Title
81374
    1CHL1    C3    1   0.018   3.306  10.160  0.1338 -0.2783  0.0820
    1CHL1    H3    2   0.128   3.315  10.144 -0.0451  0.1746 -0.9032
    1CHL1    O3    3  -0.012   3.275  10.297  0.2058  0.5288  0.0417
    1CHL1   H3'    4  -0.064   3.195  10.302  2.8975 -1.2194  1.9332
    1CHL1    C4    5  -0.053   3.437  10.124  0.1384 -0.2055  0.3865
    1CHL1   H4A    6  -0.162   3.433  10.143  0.1276 -0.4332  0.2728
    1CHL1   H4B    7  -0.029   3.519  10.195  0.8032  0.0517 -0.1282
    1CHL1    C5    8  -0.025   3.466   9.978 -0.0903  0.2868  0.6758
    1CHL1    C6    9   0.042   3.574   9.941  0.2242 -0.1692  0.0304
    1CHL1    H6   10   0.072   3.645  10.020 -0.4956 -0.8865  0.9556
    1CHL1    C7   11   0.062   3.607   9.787  0.0148  0.7792 -0.2927
    1CHL1   H7A   12   0.059   3.714   9.760  1.0223  0.8775 -0.0155
    1CHL1   H7B   13   0.167   3.579   9.764 -0.3087  0.1023 -0.9696
    1CHL1    C8   14  -0.015   3.525   9.675  0.1327  0.0272  0.0272
    1CHL1    H8   15  -0.116   3.569   9.660  0.8138  1.9570  0.9862
    1CHL1   C14   16   0.058   3.518   9.534 -0.9405 -0.5093  0.0528
    1CHL1   H14   17   0.156   3.470   9.558  0.7781  2.3921 -0.9315
    1CHL1   C15   18   0.098   3.652   9.473  0.3618 -0.5083 -0.0457
    1CHL1  H15A   19   0.006   3.714   9.465 -0.7280 -1.6625  2.7145
    1CHL1  H15B   20   0.171   3.706   9.537  0.1320  0.5424 -0.6568
    1CHL1   C16   21   0.137   3.599   9.336  0.2058  0.9582 -0.0762
    1CHL1  H16A   22   0.118   3.678   9.260 -0.1998  0.8510 -0.0874
    1CHL1  H16B   23   0.248   3.592   9.334  0.2506  1.2857  0.8179
    1CHL1   C17   24   0.082   3.454   9.306 -1.2199  0.3408 -0.6902
    1CHL1   H17   25   0.166   3.382   9.311 -0.6002  0.9792 -1.8056
    1CHL1   C13   26  -0.009   3.433   9.429 -0.2238 -0.4145  0.4029
    1CHL1   C18   27  -0.142   3.507   9.397  0.0342 -0.4421 -0.4538
    1CHL1  H18A   28  -0.201   3.448   9.323  0.4048 -1.7922  0.3249
    1CHL1  H18B   29  -0.200   3.500   9.491  0.3056 -2.6417 -0.4182
    1CHL1  H18C   30  -0.127   3.610   9.359 -1.3346  0.0579  0.3532
    1CHL1   C12   31  -0.029   3.286   9.472 -0.2916 -0.0633  0.1425
    1CHL1  H12A   32  -0.080   3.236   9.386 -0.6924  1.3831 -0.4687
    1CHL1  H12B   33   0.073   3.243   9.486  1.6228  3.8066 -1.1362
    1CHL1   C11   34  -0.095   3.280   9.613  0.4738  0.1392 -0.5729
    1CHL1  H11A   35  -0.201   3.312   9.602 -0.1658 -1.0890  1.7427
    1CHL1  H11B   36  -0.108   3.176   9.648  2.6604  0.1019  0.2258
    1CHL1    C9   37  -0.028   3.374   9.723 -0.1462  0.0281 -0.2886
    1CHL1    H9   38   0.078   3.342   9.720 -0.4564 -0.9848 -0.7214
    1CHL1   C10   39  -0.073   3.359   9.875 -0.0036 -0.1423 -0.3138
    1CHL1   C19   40  -0.224   3.363   9.884 -0.8010  0.0304 -0.1526
    1CHL1  H19A   41  -0.278   3.372   9.981 -1.3913 -0.2376 -0.4543
    1CHL1  H19B   42  -0.263   3.448   9.824  0.8190  0.6729 -0.3386
    1CHL1  H19C   43  -0.265   3.276   9.830 -1.6683 -0.4493  1.2425
    1CHL1    C1   44  -0.019   3.228   9.923 -0.1417  0.6658  0.0660
    1CHL1   H1A   45  -0.065   3.152   9.857 -0.7928 -0.2212  1.5269
    1CHL1   H1B   46   0.087   3.216   9.892 -0.4999  1.1384 -1.3451
    1CHL1    C2   47  -0.032   3.194  10.072 -0.4675  0.2493 -0.5922
    1CHL1   H2A   48   0.020   3.099  10.096 -1.9812 -0.4936 -0.1642
    1CHL1   H2B   49  -0.139   3.171  10.090 -0.2266 -0.0314  0.5081
    1CHL1   C20   50   0.031   3.448   9.155 -0.5698 -0.1314 -0.3086
    1CHL1   H20   51  -0.056   3.513   9.131  0.4648  0.4516 -2.6724
    1CHL1   C21   52  -0.017   3.304   9.133 -0.4712  0.5008 -0.1514
    1CHL1  H21A   53  -0.118   3.303   9.179 -0.5919  0.4694 -0.4144
    1CHL1  H21B   54   0.062   3.238   9.175 -0.3892 -0.6506 -2.0460
    1CHL1  H21C   55  -0.033   3.274   9.027 -0.3932 -1.7726  0.4558
    1CHL1   C22   56   0.152   3.475   9.059  0.2619 -0.0180  0.9722
    1CHL1  H22A   57   0.209   3.570   9.071 -0.9360  0.6650  1.2812
    1CHL1  H22B   58   0.234   3.400   9.060  0.4854  0.2329  2.0717
    1CHL1   C23   59   0.105   3.474   8.914  0.0803  0.1333 -0.4383
    1CHL1  H23A   60   0.052   3.381   8.884 -0.8148  0.6117 -0.3485
    1CHL1  H23B   61   0.035   3.558   8.897  1.0096  0.9470 -0.3112
    1CHL1   C24   62   0.226   3.499   8.826  0.1743 -1.0908  0.1420
    1CHL1  H24A   63   0.274   3.595   8.851 -2.4544  0.0498  0.9716
    1CHL1  H24B   64   0.305   3.422   8.839 -0.7841 -1.7874  2.1812
    1CHL1   C25   65   0.210   3.507   8.674  0.5039  0.9324 -0.7150
    1CHL1   H25   66   0.148   3.596   8.649 -1.8299 -1.2277 -2.9886
    1CHL1   C26   67   0.336   3.535   8.591 -0.5156  1.0451 -0.2398
    1CHL1  H26A   68   0.374   3.635   8.621 -2.7182  1.9531 -0.3106
    1CHL1  H26B   69   0.422   3.465   8.599  0.0095  1.7433  0.2742
    1CHL1  H26C   70   0.308   3.534   8.483  0.8789  1.4989 -0.6195
    1CHL1   C27   71   0.151   3.373   8.620  0.7797  0.1364 -0.2628
    1CHL1  H27A   72   0.178   3.337   8.519 -1.4524  0.6277 -1.0777
    1CHL1  H27B   73   0.167   3.285   8.686 -2.8773  0.8820  1.8196
    1CHL1  H27C   74   0.040   3.364   8.630  0.6396 -0.1621 -1.9431
    2CHL1    C3   75   0.733   1.154   9.917 -0.1435 -0.6264 -0.0285
    2CHL1    H3   76   0.801   1.241   9.900 -2.6353  0.8994 -2.5660
    2CHL1    O3   77   0.705   1.155  10.056 -0.3879  0.8905  0.2371
    2CHL1   H3'   78   0.671   1.066  10.069 -0.7220  0.8810 -0.6313
    2CHL1    C4   79   0.601   1.165   9.837 -0.4017  0.3023 -0.8635
    2CHL1   H4A   80   0.541   1.079   9.872 -1.2840  1.0310 -0.5495
    2CHL1   H4B   81   0.555   1.262   9.865  1.7258  0.9750  0.4545
    2CHL1    C5   82   0.637   1.164   9.690 -0.5720  0.2130 -0.0506
    2CHL1    C6   83   0.603   1.272   9.614  0.4139  0.0753 -0.6094
    2CHL1    H6   84   0.569   1.364   9.663 -2.4653 -0.8602 -0.7719
    2CHL1    C7   85   0.633   1.264   9.466  0.8093 -0.7021  0.7625
    2CHL1   H7A   86   0.547   1.294   9.402  1.2674 -0.7799  0.1010
    2CHL1   H7B   87   0.721   1.330   9.448  0.9547 -1.4460 -1.3936
    2CHL1    C8   88   0.674   1.134   9.404 -0.3199  0.4888  0.1217
    2CHL1    H8   89   0.594   1.058   9.395  0.4595 -0.4365  0.7817
    2CHL1   C14   90   0.735   1.156   9.264 -0.5319  0.3979 -0.1937
    2CHL1   H14   91   0.826   1.218   9.279 -0.6351  0.3113  0.8221
    2CHL1   C15   92   0.642   1.235   9.172  0.4199 -0.4520  0.5966
    2CHL1  H15A   93   0.538   1.205   9.199  0.1000  0.9295  0.9681
    2CHL1  H15B   94   0.647   1.345   9.187 -2.2391 -0.0724 -0.9162
    2CHL1   C16   95   0.688   1.188   9.031  0.1613  0.3697  0.3481
    2CHL1  H16A   96   0.602   1.135   8.985 -1.6656  1.6105  2.2337
    2CHL1  H16B   97   0.718   1.270   8.962  0.0877  1.6972  1.8696
    2CHL1   C17   98   0.808   1.088   9.050 -0.1606 -0.7956  0.1797
    2CHL1   H17   99   0.898   1.149   9.069 -0.8175 -0.2146  1.5088
    2CHL1   C13  100   0.782   1.024   9.192 -0.9961 -0.4184 -0.0933
    2CHL1   C18  101   0.664   0.911   9.183 -0.5660  0.8051 -0.2163
    2CHL1  H18A  102   0.687   0.850   9.092 -0.4027  1.7586 -0.8277
    2CHL1  H18B  103   0.657   0.842   9.269 -0.8668  2.1088  0.8181
    2CHL1  H18C  104   0.566   0.962   9.179 -1.5818 -1.1114 -0.3290
    2CHL1   C12  105   0.897   0.962   9.276 -0.3553  0.4967 -0.7444
    2CHL1  H12A  106   0.941   0.870   9.233  3.8618  1.4077  1.3816
    2CHL1  H12B  107   0.979   1.037   9.281  0.2833 -0.3416  1.3257
    2CHL1   C11  108   0.846   0.951   9.427 -0.3816  0.0357 -0.4676
    2CHL1  H11A  109   0.782   0.860   9.427  1.1410 -1.0516  1.0067
    2CHL1  H11B  110   0.930   0.919   9.491 -1.0002 -0.5182  0.0751
    2CHL1    C9  111   0.777   1.069   9.492 -0.1913  0.4717  0.5740
    2CHL1    H9  112   0.850   1.151   9.502  1.2347 -0.8181  0.9036
    2CHL1   C10  113   0.721   1.043   9.635 -0.2095  0.8051 -0.3787
    2CHL1   C19  114   0.626   0.924   9.646 -0.6634  0.0934  0.0819
    2CHL1  H19A  115   0.533   0.948   9.590 -1.5863 -0.4410  1.3384
    2CHL1  H19B  116   0.662   0.831   9.597  1.6753  2.0240 -2.0194
    2CHL1  H19C  117   0.601   0.907   9.753 -0.0164  0.3154  0.2659
    2CHL1    C1  118   0.843   1.022   9.734  0.3746 -0.2778 -0.7254
    2CHL1   H1A  119   0.885   0.920   9.720  1.0069 -0.0233 -0.7027
    2CHL1   H1B  120   0.921   1.097   9.709  0.9674 -0.7811 -0.4238
    2CHL1    C2  121   0.815   1.025   9.886  0.2793  0.1269 -0.4549
    2CHL1   H2A  122   0.907   1.038   9.947  1.6234 -0.0275 -2.4190
    2CHL1   H2B  123   0.754   0.939   9.922  1.9003 -0.5404  0.7773
    2CHL1   C20  124   0.832   1.001   8.920 -0.7139  0.0792 -0.0263
    2CHL1   H20  125   0.742   0.939   8.905 -1.9778  2.0554 -0.8157
    2CHL1   C21  126   0.951   0.908   8.940 -0.1782  0.0879 -0.0634
    2CHL1  H21A  127   0.923   0.845   9.027  0.1334 -0.0169 -0.0377
    2CHL1  H21B  128   1.052   0.953   8.957  0.0966 -0.6750  0.3523
    2CHL1  H21C  129   0.960   0.828   8.865  0.0103 -0.7106  0.8018
    2CHL1   C22  130   0.853   1.101   8.796 -0.3243  0.6998 -0.1299
    2CHL1  H22A  131   0.760   1.160   8.779  0.2601  2.4552  2.5238
    2CHL1  H22B  132   0.920   1.188   8.815 -0.3525  0.6829  0.0458
    2CHL1   C23  133   0.898   1.033   8.667  0.1230 -0.0503 -0.1203
    2CHL1  H23A  134   0.993   0.974   8.668 -1.0642 -2.0152 -0.3274
    2CHL1  H23B  135   0.814   0.969   8.633 -1.9494  0.2563  4.1343
    2CHL1   C24  136   0.915   1.141   8.560  0.4341 -0.0478 -0.0391
    2CHL1  H24A  137   0.833   1.215   8.571 -0.4385 -1.0083  0.0433
    2CHL1  H24B  138   1.013   1.185   8.587 -0.4641  2.3140 -0.5350
    2CHL1   C25  139   0.940   1.088   8.413  0.1033 -0.0247 -0.2990
    2CHL1   H25  140   0.960   1.179   8.353 -2.1767  0.2485 -0.6960
    2CHL1   C26  141   1.060   1.004   8.397 -0.2878 -0.4058  0.3621
    2CHL1  H26A  142   1.079   0.998   8.287  1.5220  0.8286  0.5732
    2CHL1  H26B  143   1.152   1.043   8.447 -0.0409 -1.8797  1.0879
    2CHL1  H26C  144   1.034   0.905   8.440  0.7881 -0.6771  0.4023
    2CHL1   C27  145   0.816   1.031   8.350 -0.4066 -0.7404  0.1815
    2CHL1  H27A  146   0.724   1.089   8.371  0.0291 -0.1116  0.3585
    2CHL1  H27B  147   0.833   1.013   8.242 -0.4212  1.0222 -0.1204
    2CHL1  H27C  148   0.790   0.930   8.391 -0.3197 -0.7040  0.3280
    3CHL1    C3  149   1.301   1.026  10.212 -0.0731 -0.6999  0.2365
    3CHL1    H3  150   1.301   1.137  10.203  0.7205 -0.3924  3.2743
    3CHL1    O3  151   1.241   0.990  10.337  0.1246  0.1498  0.3693
    3CHL1   H3'  152   1.171   1.054  10.348 -0.0071 -0.0488  0.6864
    3CHL1    C4  153   1.222   0.965  10.090 -0.9351  0.2255 -0.3089
    3CHL1   H4A  154   1.225   0.855  10.101  0.3862  0.0880 -1.9353
    3CHL1   H4B  155   1.114   0.987  10.081 -1.1790 -0.2644  1.2260
    3CHL1    C5  156   1.283   0.976   9.950 -0.1347  0.0551 -0.8984
    3CHL1    C6  157   1.216   1.026   9.850 -0.6053  0.5961 -0.1644
    3CHL1    H6  158   1.107   1.043   9.862 -0.9605 -2.2706  0.9533
    3CHL1    C7  159   1.269   1.061   9.717 -0.2137  0.0334  0.0598
    3CHL1   H7A  160   1.212   1.013   9.635  1.8921 -2.9505  0.2560
    3CHL1   H7B  161   1.283   1.170   9.701  0.7641 -0.2755 -1.2910
    3CHL1    C8  162   1.406   0.991   9.688  0.4690  0.5264  0.3683
    3CHL1    H8  163   1.399   0.884   9.659 -0.3605  0.9987 -1.2220
    3CHL1   C14  164   1.477   1.057   9.573  0.4040  0.5493 -0.3323
    3CHL1   H14  165   1.482   1.164   9.601 -0.6439  0.3284  0.7428
    3CHL1   C15  166   1.398   1.051   9.442  0.4886  1.0117 -0.3443
    3CHL1  H15A  167   1.347   0.953   9.445 -0.4027  1.4347 -1.4112
    3CHL1  H15B  168   1.330   1.139   9.451 -0.7482 -0.1370  1.9671
    3CHL1   C16  169   1.505   1.082   9.334  0.1920  0.9342  0.3907
    3CHL1  H16A  170   1.509   1.002   9.257 -4.3502  0.6088  0.3903
    3CHL1  H16B  171   1.465   1.172   9.282 -1.5490  0.1371  0.3385
    3CHL1   C17  172   1.645   1.075   9.409 -1.1957  0.1808  0.4973
    3CHL1   H17  173   1.675   1.177   9.441  3.0915 -1.6432  2.6854
    3CHL1   C13  174   1.616   1.004   9.541 -0.2879  0.6255  0.8107
    3CHL1   C18  175   1.618   0.851   9.514  0.5025  0.7331  0.0324
    3CHL1  H18A  176   1.586   0.788   9.600  1.0413  0.1268 -0.2055
    3CHL1  H18B  177   1.555   0.828   9.425 -2.4428  2.4923  1.6011
    3CHL1  H18C  178   1.723   0.819   9.498  0.8863  2.7231 -1.5676
    3CHL1   C12  179   1.706   1.051   9.670  0.2046 -0.6091 -0.1152
    3CHL1  H12A  180   1.809   1.012   9.654  0.8762  1.5628 -1.2565
    3CHL1  H12B  181   1.703   1.161   9.676 -0.3349 -0.6626  0.5946
    3CHL1   C11  182   1.649   0.976   9.797  0.2202 -0.0067 -0.3049
    3CHL1  H11A  183   1.668   0.867   9.787  1.8332  0.2414 -0.0128
    3CHL1  H11B  184   1.695   1.015   9.890 -0.7074  0.0220  0.1461
    3CHL1    C9  185   1.491   1.012   9.813 -0.7132  0.5581  0.1169
    3CHL1    H9  186   1.492   1.122   9.830  1.2323  1.0323 -2.8381
    3CHL1   C10  187   1.429   0.955   9.946 -0.0780  0.2516 -0.2971
    3CHL1   C19  188   1.447   0.802   9.930  0.2650 -0.8662 -0.8320
    3CHL1  H19A  189   1.411   0.742  10.016  0.7759 -2.4850 -1.7235
    3CHL1  H19B  190   1.398   0.765   9.837 -0.3989 -1.8493 -0.1080
    3CHL1  H19C  191   1.554   0.776   9.937  0.1145 -1.3687 -0.4135
    3CHL1    C1  192   1.506   1.017  10.067  0.7077  0.1987  0.0531
    3CHL1   H1A  193   1.611   0.983  10.066  1.3265  1.6670  4.6521
    3CHL1   H1B  194   1.495   1.127  10.059 -1.8524 -0.1337 -1.4957
    3CHL1    C2  195   1.449   0.978  10.209 -0.2266  0.2967 -0.2214
    3CHL1   H2A  196   1.513   1.019  10.290  1.4011 -1.1923 -0.6944
    3CHL1   H2B  197   1.460   0.869  10.230  3.4326  0.9076  1.4473
    3CHL1   C20  198   1.765   1.026   9.330 -0.1771  0.1906  0.2430
    3CHL1   H20  199   1.759   0.919   9.301  1.1167  0.2209 -0.1655
    3CHL1   C21  200   1.902   1.052   9.397 -0.6843  0.0704 -0.8777
    3CHL1  H21A  201   1.973   1.022   9.318 -1.7539 -1.1032 -1.4053
    3CHL1  H21B  202   1.920   0.984   9.483  1.2234 -0.4096 -1.6371
    3CHL1  H21C  203   1.915   1.159   9.423 -1.5484 -0.3943  1.6442
    3CHL1   C22  204   1.773   1.089   9.191 -0.2035  0.3895  0.4660
    3CHL1  H22A  205   1.865   1.058   9.136 -0.0668  1.8940 -0.1690
    3CHL1  H22B  206   1.683   1.051   9.138 -0.4109 -1.5919  2.2039
    3CHL1   C23  207   1.771   1.240   9.182 -0.3949 -0.3438  0.2039
    3CHL1  H23A  208   1.665   1.272   9.175 -0.7374 -1.7651 -1.1892
    3CHL1  H23B  209   1.810   1.280   9.279  0.7720  1.1968 -0.8644
    3CHL1   C24  210   1.862   1.295   9.073  0.1853 -0.1095  0.5730
    3CHL1  H24A  211   1.970   1.290   9.096 -0.1182 -0.1493  2.0754
    3CHL1  H24B  212   1.853   1.249   8.972  0.8857  1.3400 -0.1656
    3CHL1   C25  213   1.828   1.440   9.053  0.3425  0.5686 -0.1456
    3CHL1   H25  214   1.718   1.452   9.054 -0.0843 -1.9640 -3.9529
    3CHL1   C26  215   1.904   1.530   9.152  0.8997 -0.2534 -0.4742
    3CHL1  H26A  216   1.863   1.509   9.253  0.7010  0.0174 -0.4968
    3CHL1  H26B  217   2.011   1.501   9.144  0.7186 -1.0486 -0.0813
    3CHL1  H26C  218   1.894   1.638   9.126 -0.0818 -0.0248  0.7619
    3CHL1   C27  219   1.875   1.473   8.912 -0.2890 -0.1422 -0.2464
    3CHL1  H27A  220   1.805   1.424   8.840  0.8452  0.0458 -1.4919
    3CHL1  H27B  221   1.870   1.579   8.880 -0.9147 -0.4140 -1.0857
    3CHL1  H27C  222   1.981   1.443   8.898 -0.5610 -0.5315 -1.5082
    4CHL1    C3  223   0.746   2.660  10.529  0.4379  0.3058  0.1212
    4CHL1    H3  224   0.798   2.562  10.539 -2.7990 -1.4700  0.1553
    4CHL1    O3  225   0.699   2.708  10.652 -0.4892  0.2526  0.2594
    4CHL1   H3'  226   0.606   2.690  10.666  0.0631  0.4486  4.9063
    4CHL1    C4  227   0.834   2.779  10.480 -0.5800  0.2226 -0.5537
    4CHL1   H4A  228   0.777   2.874  10.492 -2.0802 -0.3604 -2.7801
    4CHL1   H4B  229   0.926   2.785  10.543 -0.2940 -0.2975 -0.9207
    4CHL1    C5  230   0.878   2.780  10.335 -0.6133  0.1860 -0.1379
    4CHL1    C6  231   1.009   2.798  10.303  0.1659  0.0622 -0.3483
    4CHL1    H6  232   1.085   2.817  10.380  0.2941 -0.1797 -0.4158
    4CHL1    C7  233   1.058   2.797  10.160 -0.5939  0.2899 -0.2729
    4CHL1   H7A  234   1.118   2.889  10.146 -0.7840  0.4723  0.0993
    4CHL1   H7B  235   1.123   2.709  10.141 -1.2403  0.0433 -1.3776
    4CHL1    C8  236   0.951   2.787  10.051  0.3722  0.1251 -0.6872
    4CHL1    H8  237   0.922   2.894  10.043 -2.3316 -0.3907  1.5437
    4CHL1   C14  238   1.006   2.746   9.922 -0.3291  0.2383  0.3312
    4CHL1   H14  239   1.037   2.639   9.931  2.3055  0.8443 -1.0963
    4CHL1   C15  240   1.131   2.827   9.866  0.3189  0.8528  0.0676
    4CHL1  H15A  241   1.115   2.933   9.895 -1.6922  1.0110 -1.5264
    4CHL1  H15B  242   1.231   2.784   9.888 -0.2232  0.5409  2.0894
    4CHL1   C16  243   1.115   2.814   9.712 -0.2912  0.4849 -0.5954
    4CHL1  H16A  244   1.106   2.914   9.665 -0.2266  1.2936  1.0540
    4CHL1  H16B  245   1.198   2.769   9.653 -1.8362  0.9168 -3.1381
    4CHL1   C17  246   0.984   2.731   9.685  0.7951 -0.5473 -0.7110
    4CHL1   H17  247   1.013   2.623   9.689 -2.9338 -1.6205 -0.1701
    4CHL1   C13  248   0.895   2.761   9.812  0.4682  0.6283 -0.3597
    4CHL1   C18  249   0.850   2.913   9.801 -0.5900 -0.2342  0.0518
    4CHL1  H18A  250   0.783   2.944   9.718  0.5848  1.7843 -0.1645
    4CHL1  H18B  251   0.779   2.939   9.883  0.9983  0.6246  1.1700
    4CHL1  H18C  252   0.933   2.985   9.789 -0.5341 -0.0106  1.6540
    4CHL1   C12  253   0.774   2.668   9.846  0.2267  0.0347  0.7798
    4CHL1  H12A  254   0.686   2.677   9.778  0.6169 -1.0743  0.1117
    4CHL1  H12B  255   0.814   2.565   9.840  1.2974  0.4834  0.0870
    4CHL1   C11  256   0.717   2.693   9.989 -0.6924  0.3826  0.0297
    4CHL1  H11A  257   0.655   2.783   9.968 -1.5801  0.0583  1.1414
    4CHL1  H11B  258   0.646   2.609  10.006 -1.8671  1.3514 -0.0061
    4CHL1    C9  259   0.830   2.707  10.091 -0.2759  0.0358 -0.2562
    4CHL1    H9  260   0.871   2.604  10.090  2.8821  1.2351 -2.3622
    4CHL1   C10  261   0.769   2.739  10.232 -0.3700  0.7133  0.4281
    4CHL1   C19  262   0.667   2.853  10.219 -0.3225  0.4751 -0.3272
    4CHL1  H19A  263   0.576   2.808  10.174  0.5638 -1.7319 -0.0120
    4CHL1  H19B  264   0.644   2.902  10.316  0.2190 -2.1220  1.1607
    4CHL1  H19C  265   0.688   2.931  10.143  1.7127 -0.0978 -0.4033
    4CHL1    C1  266   0.686   2.613  10.279  0.3414  0.4913 -0.1872
    4CHL1   H1A  267   0.605   2.581  10.210  0.0163 -1.7067  1.1676
    4CHL1   H1B  268   0.761   2.530  10.283 -0.6324 -0.3624  0.5724
    4CHL1    C2  269   0.629   2.633  10.427  0.0991 -0.2553  0.6720
    4CHL1   H2A  270   0.559   2.551  10.455 -0.6700 -0.7267 -2.4809
    4CHL1   H2B  271   0.559   2.720  10.429  0.6256  0.1588  1.2984
    4CHL1   C20  272   0.921   2.752   9.542  0.4829  0.1024 -0.1233
    4CHL1   H20  273   0.854   2.840   9.530 -2.3800 -2.3663 -2.8560
    4CHL1   C21  274   0.837   2.632   9.517 -0.1237  0.4520  0.5706
    4CHL1  H21A  275   0.788   2.632   9.418 -1.6205 -2.2810  1.2679
    4CHL1  H21B  276   0.754   2.624   9.590 -0.3010  2.3086  0.5922
    4CHL1  H21C  277   0.900   2.543   9.540  0.8464  0.5319 -1.6723
    4CHL1   C22  278   1.032   2.748   9.431 -0.2347  0.0017 -0.1186
    4CHL1  H22A  279   1.096   2.838   9.441 -2.6838  1.7396  0.6424
    4CHL1  H22B  280   1.097   2.662   9.456 -1.5852 -1.3014 -1.0225
    4CHL1   C23  281   0.999   2.721   9.281  0.9595  0.2811 -0.2473
    4CHL1  H23A  282   0.937   2.630   9.269  0.1353  0.8786 -0.5726
    4CHL1  H23B  283   0.942   2.810   9.248  0.2223  0.2780  0.9612
    4CHL1   C24  284   1.131   2.706   9.207 -0.2420 -0.3427  0.0270
    4CHL1  H24A  285   1.203   2.774   9.256 -1.6527  0.1785  1.4062
    4CHL1  H24B  286   1.175   2.604   9.211  0.4815 -0.0444 -0.2322
    4CHL1   C25  287   1.115   2.745   9.058 -0.4906 -0.8450  0.6619
    4CHL1   H25  288   1.220   2.766   9.029 -0.7599 -0.0528  0.2425
    4CHL1   C26  289   1.055   2.625   8.982  0.4942 -0.1897 -0.2290
    4CHL1  H26A  290   1.112   2.529   8.991 -2.0742 -1.9811 -2.4187
    4CHL1  H26B  291   0.952   2.601   9.014  0.6338  0.1712  0.5108
    4CHL1  H26C  292   1.048   2.642   8.873  0.7282 -1.2684 -0.4169
    4CHL1   C27  293   1.052   2.880   9.034 -0.0967 -0.0921 -0.1718
    4CHL1  H27A  294   0.942   2.866   9.047 -0.4556  1.5870 -1.3406
    4CHL1  H27B  295   1.102   2.957   9.097  0.2015 -0.0651 -0.4441
    4CHL1  H27C  296   1.064   2.908   8.928  2.7262  1.0607  0.4020
    5CHL1    C3  297   2.005   0.266  10.185 -0.4737 -0.2614  0.6224
    5CHL1    H3  298   1.926   0.309  10.120 -0.4249 -1.4391 -0.2268
    5CHL1    O3  299   1.984   0.304  10.322  0.0924 -0.6899 -0.4647
    5CHL1   H3'  300   2.064   0.267  10.361 -0.1220 -0.5934  0.0786
    5CHL1    C4  301   1.984   0.111  10.171  0.2505 -0.3812  0.3647
    5CHL1   H4A  302   2.049   0.056  10.244  2.1497  0.7965 -0.3952
    5CHL1   H4B  303   1.878   0.082  10.187 -0.2831  1.3754  0.1237
    5CHL1    C5  304   2.033   0.073  10.032 -0.0588 -0.0280 -0.4828
    5CHL1    C6  305   1.949  -0.007   9.957  0.4479  0.3938 -0.2175
    5CHL1    H6  306   1.851  -0.044   9.991  0.4329 -0.2829 -0.9891
    5CHL1    C7  307   1.997  -0.075   9.832 -0.3833 -0.0374 -1.0970
    5CHL1   H7A  308   1.983  -0.185   9.827 -1.3769  0.0829 -1.0284
    5CHL1   H7B  309   1.942  -0.041   9.742 -1.2005 -2.4271 -1.5468
    5CHL1    C8  310   2.146  -0.061   9.799 -0.5666  0.3357 -0.0184
    5CHL1    H8  311   2.207  -0.131   9.860  1.2162  0.9151 -1.0813
    5CHL1   C14  312   2.165  -0.072   9.652  0.8226 -0.5799 -0.1199
    5CHL1   H14  313   2.121   0.022   9.613  2.5668  0.7829  1.1250
    5CHL1   C15  314   2.094  -0.190   9.573 -1.2317  0.1588 -0.8531
    5CHL1  H15A  315   2.109  -0.275   9.643  0.6393  1.3016  0.1937
    5CHL1  H15B  316   1.988  -0.181   9.543 -1.4216 -0.8613 -0.4930
    5CHL1   C16  317   2.178  -0.213   9.445  0.5087 -0.9806  0.0645
    5CHL1  H16A  318   2.221  -0.315   9.448  1.7954 -0.4170  1.2812
    5CHL1  H16B  319   2.116  -0.197   9.353  0.4140  2.6094  0.6532
    5CHL1   C17  320   2.291  -0.099   9.458  0.7874  0.3677  0.0478
    5CHL1   H17  321   2.244  -0.008   9.416  2.5798  1.3113  0.0228
    5CHL1   C13  322   2.310  -0.075   9.611 -0.3842 -0.5353 -0.5154
    5CHL1   C18  323   2.376  -0.203   9.668 -0.5950  0.9168 -0.0507
    5CHL1  H18A  324   2.477  -0.226   9.628 -0.1265  0.0928  1.5566
    5CHL1  H18B  325   2.394  -0.203   9.778 -1.2422 -0.4357  0.0622
    5CHL1  H18C  326   2.306  -0.288   9.656 -0.9786  1.2829 -0.4488
    5CHL1   C12  327   2.379   0.057   9.647 -0.3286 -0.1257  0.3138
    5CHL1  H12A  328   2.485   0.041   9.619 -0.6504 -1.1403 -0.3462
    5CHL1  H12B  329   2.341   0.150   9.600 -0.8169 -0.2688  0.4232
    5CHL1   C11  330   2.353   0.081   9.801  0.0308  0.0693 -0.1127
    5CHL1  H11A  331   2.409   0.005   9.861  1.3339  0.8546 -0.3106
    5CHL1  H11B  332   2.401   0.177   9.831 -1.0061  0.1818  1.1985
    5CHL1    C9  333   2.201   0.077   9.838 -0.0127  0.3591  0.6802
    5CHL1    H9  334   2.147   0.161   9.791  0.6516  1.1458  1.3134
    5CHL1   C10  335   2.175   0.117   9.989  0.4902 -0.2399 -0.5877
    5CHL1   C19  336   2.273   0.043  10.093 -0.1120  0.1179 -0.0988
    5CHL1  H19A  337   2.253   0.075  10.197  2.0580  2.6374 -0.4216
    5CHL1  H19B  338   2.261  -0.068  10.086  1.1512  0.0598 -1.7920
    5CHL1  H19C  339   2.376   0.077  10.071  0.1840 -0.9055 -0.3379
    5CHL1    C1  340   2.191   0.274  10.003 -0.2015 -0.7873 -0.0749
    5CHL1   H1A  341   2.300   0.288   9.989 -0.4387 -0.9880 -2.3245
    5CHL1   H1B  342   2.125   0.317   9.924  2.3050 -0.4578 -2.0772
    5CHL1    C2  343   2.146   0.325  10.141  0.2669  0.2795 -0.0930
    5CHL1   H2A  344   2.150   0.436  10.139  2.0439  0.2259 -0.0043
    5CHL1   H2B  345   2.218   0.288  10.218 -1.7433  1.1902  2.2759
    5CHL1   C20  346   2.418  -0.128   9.369  0.2882 -0.4498 -0.3871
    5CHL1   H20  347   2.488  -0.186   9.434  0.4357  1.2870  1.0399
    5CHL1   C21  348   2.477   0.007   9.329  0.9234 -0.6523  0.1799
    5CHL1  H21A  349   2.409   0.057   9.257  0.2097 -0.9924  0.6213
    5CHL1  H21B  350   2.575  -0.008   9.279  1.1697  0.4820  0.3189
    5CHL1  H21C  351   2.504   0.079   9.409 -0.4884  0.9163 -0.7227
    5CHL1   C22  352   2.398  -0.220   9.248 -0.9376 -0.4751 -0.0830
    5CHL1  H22A  353   2.494  -0.265   9.217 -2.0857 -2.3588 -0.9981
    5CHL1  H22B  354   2.346  -0.312   9.280 -1.5046  0.4705  1.7848
    5CHL1   C23  355   2.325  -0.165   9.126 -0.3838  0.0572 -0.3524
    5CHL1  H23A  356   2.220  -0.153   9.163 -0.2445  0.1982  0.0060
    5CHL1  H23B  357   2.354  -0.066   9.087 -0.2076 -0.1295 -0.6901
    5CHL1   C24  358   2.338  -0.273   9.018  0.6351 -0.0390  0.2863
    5CHL1  H24A  359   2.440  -0.270   8.976  0.1050  0.1289 -1.0117
    5CHL1  H24B  360   2.324  -0.376   9.058  0.9089  0.0252  0.5452
    5CHL1   C25  361   2.242  -0.262   8.904 -0.3406  0.5430  0.1596
    5CHL1   H25  362   2.241  -0.162   8.857 -1.6201  0.6278  0.3475
    5CHL1   C26  363   2.297  -0.345   8.790  0.1153 -0.0909  0.1395
    5CHL1  H26A  364   2.395  -0.304   8.757 -0.1613 -0.3030 -0.9873
    5CHL1  H26B  365   2.303  -0.450   8.825  0.8497 -0.2549 -0.4700
    5CHL1  H26C  366   2.228  -0.346   8.703  0.3794  1.7998 -0.1278
    5CHL1   C27  367   2.102  -0.299   8.946 -0.1101  0.2302  0.0524
    5CHL1  H27A  368   2.035  -0.282   8.859 -0.5117 -1.1485  0.0692
    5CHL1  H27B  369   2.090  -0.407   8.972  0.2038 -0.1181 -1.2065
    5CHL1  H27C  370   2.067  -0.222   9.018 -1.6662  0.3837 -0.8459
    6CHL1    C3  371   0.162   4.940  10.361 -0.1431  0.2111  0.3854
    6CHL1    H3  372   0.058   4.950  10.398  0.6516 -1.0409  3.0696
    6CHL1    O3  373   0.252   4.938  10.468 -0.7400  0.0698  0.1935
    6CHL1   H3'  374   0.209   4.882  10.532 -1.1885  0.8582  0.5947
    6CHL1    C4  375   0.185   4.821  10.273 -0.2313  0.2657 -0.0677
    6CHL1   H4A  376   0.295   4.811  10.265 -0.1165  2.2740 -1.1232
    6CHL1   H4B  377   0.142   4.741  10.338  0.0627  0.6030  0.5469
    6CHL1    C5  378   0.133   4.818  10.130 -0.4778  0.1311  0.1434
    6CHL1    C6  379   0.049   4.725  10.083  0.6002  0.0306 -0.5437
    6CHL1    H6  380   0.018   4.634  10.137 -0.6609  1.3844  1.0370
    6CHL1    C7  381  -0.008   4.735   9.944  0.7167 -0.7035  0.5338
    6CHL1   H7A  382   0.000   4.631   9.905 -1.1170 -0.4364 -0.6353
    6CHL1   H7B  383  -0.114   4.760   9.963  1.1511  0.6908  1.2508
    6CHL1    C8  384   0.061   4.831   9.853  0.1727  0.7470 -0.2616
    6CHL1    H8  385   0.163   4.789   9.833 -0.5369 -2.2002  1.9122
    6CHL1   C14  386  -0.016   4.846   9.730 -1.2712 -0.0451  0.0478
    6CHL1   H14  387  -0.113   4.895   9.752  0.2132  3.0296  0.0228
    6CHL1   C15  388  -0.076   4.722   9.660 -1.1504  0.8364 -0.6979
    6CHL1  H15A  389   0.010   4.653   9.659 -2.1575 -0.4333 -0.8668
    6CHL1  H15B  390  -0.144   4.677   9.736  2.0395 -1.2853  0.9685
    6CHL1   C16  391  -0.124   4.774   9.528 -0.7443  0.4014  0.1521
    6CHL1  H16A  392  -0.077   4.714   9.447  0.3864  2.7926 -1.0353
    6CHL1  H16B  393  -0.234   4.774   9.521 -0.8604  4.9264  0.0826
    6CHL1   C17  394  -0.086   4.927   9.525 -0.2006  0.1611  0.5190
    6CHL1   H17  395  -0.167   4.984   9.576 -0.8907  0.9726 -1.4389
    6CHL1   C13  396   0.034   4.943   9.623 -0.3023  0.7481 -1.0682
    6CHL1   C18  397   0.163   4.886   9.559  0.9453  0.1207  0.2780
    6CHL1  H18A  398   0.139   4.785   9.519 -2.4720  0.5948  1.0255
    6CHL1  H18B  399   0.202   4.952   9.479  0.8184 -0.7897 -0.5372
    6CHL1  H18C  400   0.246   4.884   9.633 -0.7849 -2.4988  2.2152
    6CHL1   C12  401   0.035   5.086   9.687 -0.8304  0.6773 -0.3099
    6CHL1  H12A  402   0.080   5.157   9.614 -1.3656  0.4090 -0.9069
    6CHL1  H12B  403  -0.065   5.126   9.712 -0.9933  1.1480 -1.6868
    6CHL1   C11  404   0.118   5.078   9.819 -0.5275  0.0749  0.2501
    6CHL1  H11A  405   0.224   5.065   9.785 -0.1914  3.3687 -0.0738
    6CHL1  H11B  406   0.112   5.182   9.857  1.3047  0.5987 -0.8172
    6CHL1    C9  407   0.073   4.967   9.919  0.3753  0.0546  0.1958
    6CHL1    H9  408  -0.027   4.995   9.959  0.0450  2.3543 -2.0905
    6CHL1   C10  409   0.164   4.953  10.044 -0.0125 -0.4905  0.1321
    6CHL1   C19  410   0.314   4.962  10.001  0.5097 -0.3920  0.5782
    6CHL1  H19A  411   0.344   5.046   9.936 -0.2849  1.6012  2.7142
    6CHL1  H19B  412   0.377   4.967  10.093  1.5812 -1.9932 -0.0570
    6CHL1  H19C  413   0.351   4.879   9.937 -1.4759  0.0240 -1.1687
    6CHL1    C1  414   0.132   5.072  10.139 -0.0340 -0.0392  0.3028
    6CHL1   H1A  415   0.166   5.163  10.086 -1.7064  1.3967  1.6531
    6CHL1   H1B  416   0.025   5.075  10.168  0.1389 -1.7438  1.2202
    6CHL1    C2  417   0.207   5.067  10.278  0.0391  0.3934 -0.1827
    6CHL1   H2A  418   0.181   5.153  10.343 -2.7060  1.3212 -2.4298
    6CHL1   H2B  419   0.317   5.078  10.262 -0.0185 -2.8253 -3.4298
    6CHL1   C20  420  -0.067   4.989   9.383 -0.5745  0.7162 -0.9750
    6CHL1   H20  421   0.031   4.947   9.353 -1.4442 -1.8630 -0.3871
    6CHL1   C21  422  -0.072   5.146   9.372 -0.4816 -0.7088  0.3790
    6CHL1  H21A  423  -0.158   5.190   9.428 -0.4937  0.1486 -0.3091
    6CHL1  H21B  424  -0.088   5.168   9.265 -0.2339 -1.0282  0.2757
    6CHL1  H21C  425   0.017   5.199   9.411 -1.4523 -0.6661  2.6601
    6CHL1   C22  426  -0.162   4.933   9.270  0.1611  0.0490 -0.1466
    6CHL1  H22A  427  -0.194   4.830   9.294  0.8838  0.1554  1.2876
    6CHL1  H22B  428  -0.252   4.997   9.261 -1.4051 -1.9333  1.0574
    6CHL1   C23  429  -0.093   4.929   9.129  0.6073  0.0545  0.1773
    6CHL1  H23A  430  -0.050   5.029   9.109  0.3257  0.3283  0.9319
    6CHL1  H23B  431  -0.008   4.858   9.142 -0.2627 -1.3756 -1.6961
    6CHL1   C24  432  -0.182   4.883   9.019  0.2039 -0.1383 -0.0598
    6CHL1  H24A  433  -0.119   4.840   8.938 -0.3410 -1.4056  0.1850
    6CHL1  H24B  434  -0.238   4.803   9.072  0.4620  0.9183  1.8632
    6CHL1   C25  435  -0.281   4.984   8.952 -0.0846  0.5814  0.5454
    6CHL1   H25  436  -0.354   5.018   9.028  0.5937  0.6326  1.1779
    6CHL1   C26  437  -0.212   5.120   8.892 -0.4407  0.2586 -0.2426
    6CHL1  H26A  438  -0.190   5.189   8.977  0.6272  0.7793 -0.9281
    6CHL1  H26B  439  -0.124   5.099   8.828 -1.0514 -1.5708 -0.5137
    6CHL1  H26C  440  -0.283   5.178   8.829  1.7809  0.1650 -2.9399
    6CHL1   C27  441  -0.368   4.914   8.844 -0.4020  0.6236 -0.4805
    6CHL1  H27A  442  -0.309   4.882   8.755  0.9863  1.3136  0.1630
    6CHL1  H27B  443  -0.418   4.828   8.893  1.4777 -1.9315 -2.9067
    6CHL1  H27C  444  -0.445   4.983   8.804 -0.1024  1.0266 -0.3702
    7CHL1    C3  445   2.506   0.848  10.367 -0.9996  0.1454  0.1207
    7CHL1    H3  446   2.534   0.740  10.359 -0.6809  0.3209 -1.3735
    7CHL1    O3  447   2.494   0.887  10.506 -0.4749 -0.5301  0.6125
    7CHL1   H3'  448   2.425   0.952  10.492  0.4171  0.9987  2.9731
    7CHL1    C4  449   2.609   0.944  10.300  0.2207  0.0776  0.9763
    7CHL1   H4A  450   2.585   1.047  10.334  0.0544  0.9274 -1.6268
    7CHL1   H4B  451   2.707   0.921  10.346 -0.2707  1.1970  2.6188
    7CHL1    C5  452   2.608   0.950  10.150 -0.6136  0.1326  0.0760
    7CHL1    C6  453   2.719   0.937  10.081  0.5598 -0.5569 -0.2604
    7CHL1    H6  454   2.812   0.915  10.136 -0.8412  0.2983  2.5157
    7CHL1    C7  455   2.723   0.933   9.932  0.3255 -0.8108 -0.0979
    7CHL1   H7A  456   2.806   0.999   9.899 -3.7230  3.6888 -1.8558
    7CHL1   H7B  457   2.726   0.826   9.902 -0.0108 -1.4821  2.1953
    7CHL1    C8  458   2.597   0.982   9.869  0.2383  0.1945  0.4224
    7CHL1    H8  459   2.589   1.092   9.878 -2.6324  0.0091  0.6537
    7CHL1   C14  460   2.595   0.950   9.719 -0.6431  0.0877  0.2368
    7CHL1   H14  461   2.591   0.840   9.712 -0.3281  0.0341  0.8480
    7CHL1   C15  462   2.709   1.005   9.634  0.4267 -0.1267 -0.0549
    7CHL1  H15A  463   2.745   1.099   9.680  1.1557 -0.3218 -0.2263
    7CHL1  H15B  464   2.788   0.927   9.631 -0.4618 -1.0703  0.7682
    7CHL1   C16  465   2.649   1.017   9.496 -0.5876  0.1887  0.1014
    7CHL1  H16A  466   2.640   1.127   9.479 -0.7243  0.7289  3.4125
    7CHL1  H16B  467   2.709   0.963   9.419  0.8839  0.5825  0.9623
    7CHL1   C17  468   2.501   0.959   9.503 -0.5896  0.1479 -0.3969
    7CHL1   H17  469   2.512   0.849   9.497 -1.8139  0.0059 -0.1321
    7CHL1   C13  470   2.459   0.980   9.647  0.4178  0.5584  0.2447
    7CHL1   C18  471   2.424   1.132   9.672  0.2700 -0.1232 -0.3834
    7CHL1  H18A  472   2.414   1.151   9.781 -1.5705  0.0678 -0.5682
    7CHL1  H18B  473   2.515   1.187   9.641  0.2547  0.5206  0.6697
    7CHL1  H18C  474   2.336   1.166   9.612  1.6010  2.1996 -1.0485
    7CHL1   C12  475   2.353   0.888   9.705  0.2578 -0.3030  0.0833
    7CHL1  H12A  476   2.253   0.897   9.658 -0.0358 -1.7109  0.4044
    7CHL1  H12B  477   2.384   0.782   9.692 -0.3994 -0.3050 -1.6042
    7CHL1   C11  478   2.339   0.920   9.855 -0.1012 -0.0730  0.0353
    7CHL1  H11A  479   2.292   1.019   9.875  0.2115 -0.0423  0.6123
    7CHL1  H11B  480   2.271   0.839   9.887 -1.1475  0.2770 -1.2204
    7CHL1    C9  481   2.476   0.926   9.939 -0.3401  0.0544 -0.3068
    7CHL1    H9  482   2.496   0.816   9.934  0.3324  0.1421  0.4214
    7CHL1   C10  483   2.468   0.962  10.088 -0.4174  0.1946  0.5268
    7CHL1   C19  484   2.433   1.113  10.100 -0.3401 -0.4069 -0.5417
    7CHL1  H19A  485   2.496   1.178  10.036  2.5513 -2.9478 -0.3936
    7CHL1  H19B  486   2.331   1.127  10.058 -0.8776 -0.8554  0.6079
    7CHL1  H19C  487   2.425   1.150  10.204 -0.2073 -2.5245  0.2577
    7CHL1    C1  488   2.378   0.853  10.148  0.4499  0.6053 -0.0771
    7CHL1   H1A  489   2.277   0.870  10.106  0.1701 -2.1340 -0.5872
    7CHL1   H1B  490   2.407   0.750  10.119  3.2564  1.1442  0.6181
    7CHL1    C2  491   2.371   0.861  10.299 -0.6485  0.3691  0.2840
    7CHL1   H2A  492   2.298   0.785  10.335 -0.6788  0.2983  0.0763
    7CHL1   H2B  493   2.332   0.961  10.326  2.2493  1.1095  1.9738
    7CHL1   C20  494   2.399   0.995   9.395  0.3817  0.2034 -0.4937
    7CHL1   H20  495   2.315   1.058   9.433  1.1726  1.5914 -1.0110
    7CHL1   C21  496   2.344   0.852   9.350  0.3798  0.1746 -0.3296
    7CHL1  H21A  497   2.275   0.867   9.264  0.0450  1.2761  0.1215
    7CHL1  H21B  498   2.306   0.805   9.443 -1.0967 -0.5672 -1.2896
    7CHL1  H21C  499   2.431   0.799   9.305  0.3004 -0.9366  0.8236
    7CHL1   C22  500   2.451   1.075   9.271 -0.3616 -0.5137  0.9341
    7CHL1  H22A  501   2.490   1.166   9.320 -1.5299 -0.3884  1.6513
    7CHL1  H22B  502   2.539   1.023   9.226 -1.1399  0.6273 -2.0627
    7CHL1   C23  503   2.356   1.084   9.154 -0.4848  0.4519  0.4770
    7CHL1  H23A  504   2.323   0.981   9.128 -1.4956  0.5866  1.2143
    7CHL1  H23B  505   2.261   1.135   9.181 -0.3547 -0.8830  3.7278
    7CHL1   C24  506   2.417   1.125   9.017 -0.7231  0.1329 -0.3643
    7CHL1  H24A  507   2.464   1.224   9.033 -2.2673  0.9511 -0.7291
    7CHL1  H24B  508   2.494   1.055   8.978 -0.6693  1.2582 -2.3410
    7CHL1   C25  509   2.300   1.143   8.912 -0.1144 -0.1224  0.2958
    7CHL1   H25  510   2.217   1.198   8.962  1.0378  1.7824  0.1708
    7CHL1   C26  511   2.353   1.219   8.793  0.6549  0.2898 -0.5072
    7CHL1  H26A  512   2.437   1.165   8.745  1.0337 -1.3369  1.8705
    7CHL1  H26B  513   2.273   1.220   8.716 -0.9637 -0.9188  1.1103
    7CHL1  H26C  514   2.376   1.325   8.819 -0.0024  0.2281  0.3572
    7CHL1   C27  515   2.244   1.008   8.871  0.2730 -0.5027 -0.1273
    7CHL1  H27A  516   2.186   1.034   8.779 -0.1446  0.9037  0.5335
    7CHL1  H27B  517   2.322   0.934   8.841 -1.9847 -1.8107 -3.0380
    7CHL1  H27C  518   2.182   0.967   8.953 -0.4151  1.1439  0.1910
    8CHL1    C3  519   3.414   2.536  10.457 -0.6100  0.7589 -0.3838
    8CHL1    H3  520   3.446   2.637  10.423 -0.7130  1.3966  1.3659
    8CHL1    O3  521   3.422   2.541  10.599  0.0156 -0.0983 -0.6394
    8CHL1   H3'  522   3.330   2.536  10.626  0.7019 -0.6405  1.7594
    8CHL1    C4  523   3.261   2.515  10.416  0.4095 -0.0763  0.0285
    8CHL1   H4A  524   3.214   2.424  10.458 -0.6650  1.6061  2.5386
    8CHL1   H4B  525   3.201   2.592  10.467  0.3498  0.3035 -0.6074
    8CHL1    C5  526   3.252   2.534  10.264  0.3813  0.1395  0.1011
    8CHL1    C6  527   3.167   2.619  10.211 -0.5527 -0.1751  0.2535
    8CHL1    H6  528   3.108   2.675  10.284  0.2785  0.5728  0.3573
    8CHL1    C7  529   3.144   2.635  10.064 -0.0113 -0.7796 -0.4404
    8CHL1   H7A  530   3.037   2.659  10.043 -0.1071 -2.0181 -1.4012
    8CHL1   H7B  531   3.199   2.727  10.034  0.9913 -0.0715  3.3077
    8CHL1    C8  532   3.209   2.529   9.977 -0.4700 -0.5792 -0.4846
    8CHL1    H8  533   3.149   2.435   9.979  1.2498 -1.6593  1.9833
    8CHL1   C14  534   3.221   2.586   9.842  0.1063 -0.8813  0.1588
    8CHL1   H14  535   3.292   2.672   9.850 -0.1343 -0.6665 -0.0168
    8CHL1   C15  536   3.096   2.641   9.772 -0.7393 -0.1211 -0.2531
    8CHL1  H15A  537   3.005   2.579   9.781  0.9416 -2.7986 -1.1976
    8CHL1  H15B  538   3.059   2.739   9.811  0.1298  0.9084 -1.9357
    8CHL1   C16  539   3.138   2.659   9.627 -0.4478 -1.0853 -0.6172
    8CHL1  H16A  540   3.061   2.613   9.562  0.8853  0.2632 -3.2686
    8CHL1  H16B  541   3.152   2.768   9.614 -0.7142 -0.9521  0.1861
    8CHL1   C17  542   3.278   2.599   9.612 -1.0154 -0.4845  0.1673
    8CHL1   H17  543   3.349   2.684   9.625  0.0773 -1.1216 -1.4262
    8CHL1   C13  544   3.289   2.502   9.736  0.2530  0.3330  0.8101
    8CHL1   C18  545   3.207   2.368   9.703  0.2637  0.3473  0.4033
    8CHL1  H18A  546   3.251   2.312   9.618  1.0426 -1.1060  1.7273
    8CHL1  H18B  547   3.217   2.297   9.788  1.0110 -2.6161 -2.0968
    8CHL1  H18C  548   3.102   2.387   9.674  0.1594  1.9239  1.7554
    8CHL1   C12  549   3.435   2.466   9.783  0.4877 -0.5966 -0.3933
    8CHL1  H12A  550   3.485   2.386   9.724  0.8365 -0.7468  0.0996
    8CHL1  H12B  551   3.506   2.551   9.782  0.0632 -0.2263  0.4468
    8CHL1   C11  552   3.426   2.406   9.927  0.9786 -0.2162 -0.5313
    8CHL1  H11A  553   3.372   2.309   9.921 -0.8761  0.8162 -0.6326
    8CHL1  H11B  554   3.532   2.391   9.957  1.1761 -0.6888 -1.4395
    8CHL1    C9  555   3.347   2.497  10.032 -0.6894 -0.1979  0.2672
    8CHL1    H9  556   3.410   2.589  10.027  1.1714 -1.4479  0.0122
    8CHL1   C10  557   3.339   2.440  10.179  0.4406 -0.6527  0.1394
    8CHL1   C19  558   3.300   2.290  10.185  0.0071  0.2306 -0.3440
    8CHL1  H19A  559   3.296   2.249  10.289 -0.0172 -1.6301 -1.0634
    8CHL1  H19B  560   3.204   2.279  10.130 -0.4232  1.9140  0.0337
    8CHL1  H19C  561   3.377   2.228  10.135  0.4163  0.1176  0.4185
    8CHL1    C1  562   3.483   2.451  10.233  0.4644  0.6087 -0.1873
    8CHL1   H1A  563   3.549   2.372  10.191  0.3151 -0.3811  1.3910
    8CHL1   H1B  564   3.520   2.553  10.211  2.4077 -0.0612 -0.0707
    8CHL1    C2  565   3.494   2.427  10.388 -1.1605  0.0636  0.4188
    8CHL1   H2A  566   3.601   2.438  10.416 -0.2566 -0.4476 -2.6441
    8CHL1   H2B  567   3.453   2.325  10.409 -0.2484 -0.5832 -0.9038
    8CHL1   C20  568   3.299   2.539   9.470 -0.6181 -0.0539  0.7341
    8CHL1   H20  569   3.210   2.474   9.458  0.9449 -2.6300  2.6025
    8CHL1   C21  570   3.436   2.467   9.452 -0.1365  0.0335  0.7191
    8CHL1  H21A  571   3.433   2.428   9.347 -0.6230  1.6941  0.1016
    8CHL1  H21B  572   3.455   2.382   9.521  0.7122 -0.5821 -0.2603
    8CHL1  H21C  573   3.520   2.537   9.469  0.5181 -1.1375  2.4071
    8CHL1   C22  574   3.285   2.650   9.367 -0.1493  0.3763 -0.6992
    8CHL1  H22A  575   3.185   2.694   9.384 -0.1112 -0.0220  0.5986
    8CHL1  H22B  576   3.355   2.734   9.387  0.1081  0.5137 -2.1185
    8CHL1   C23  577   3.293   2.616   9.224  0.1219  0.4797  0.3280
    8CHL1  H23A  578   3.382   2.552   9.209  0.2321  1.1749 -2.3235
    8CHL1  H23B  579   3.201   2.562   9.191  1.9064 -1.7506 -1.1801
    8CHL1   C24  580   3.306   2.738   9.141 -0.0854 -0.5377  0.5115
    8CHL1  H24A  581   3.228   2.813   9.165  0.5048 -0.0439  0.8994
    8CHL1  H24B  582   3.403   2.786   9.161 -0.1836  0.0992 -0.5222
    8CHL1   C25  583   3.321   2.699   8.989 -0.1005 -0.1178 -0.1188
    8CHL1   H25  584   3.253   2.612   8.976 -0.4153  0.0404  0.4729
    8CHL1   C26  585   3.295   2.813   8.887  0.5462 -0.1875  0.0340
    8CHL1  H26A  586   3.361   2.897   8.916 -1.9565  2.2470 -1.1537
    8CHL1  H26B  587   3.314   2.781   8.782  0.4996  1.2443 -0.4112
    8CHL1  H26C  588   3.189   2.843   8.898  0.5804 -0.5604  1.5655
    8CHL1   C27  589   3.461   2.651   8.963  0.5824  0.0719  0.6315
    8CHL1  H27A  590   3.525   2.741   8.949  0.9365 -0.4809 -1.4064
    8CHL1  H27B  591   3.498   2.580   9.039 -1.4756 -1.2358  0.4490
    8CHL1  H27C  592   3.476   2.593   8.869  1.3155  0.2346  0.6440
    9CHL1    C3  593   6.248   5.737   9.958 -0.3354 -0.6023  0.1103
    9CHL1    H3  594   6.271   5.640   9.909 -1.2413 -1.1649  0.7856
    9CHL1    O3  595   6.277   5.728  10.092  0.2992 -0.2318 -0.2327
    9CHL1   H3'  596   6.287   5.816  10.128  0.9676  0.6073 -2.4301
    9CHL1    C4  597   6.332   5.855   9.906  0.0773  0.2136 -0.0476
    9CHL1   H4A  598   6.302   5.936   9.975 -0.0896 -0.1254  0.2830
    9CHL1   H4B  599   6.439   5.833   9.924 -0.1586 -1.5494 -0.6641
    9CHL1    C5  600   6.316   5.881   9.756  0.0286 -0.2391  0.6345
    9CHL1    C6  601   6.414   5.881   9.666  0.2130  0.7098 -0.3898
    9CHL1    H6  602   6.518   5.878   9.703  0.5150 -0.9033 -1.3178
    9CHL1    C7  603   6.406   5.924   9.519  0.2088  0.4936 -0.5503
    9CHL1   H7A  604   6.473   6.008   9.491  1.5365 -0.7463 -1.2230
    9CHL1   H7B  605   6.430   5.837   9.454 -2.4132  0.3575 -1.4051
    9CHL1    C8  606   6.268   5.972   9.482 -0.2678  0.0924 -0.9990
    9CHL1    H8  607   6.262   6.080   9.509 -2.3662  0.0937 -1.3234
    9CHL1   C14  608   6.240   5.966   9.335 -0.1698 -0.1752 -0.0159
    9CHL1   H14  609   6.228   5.858   9.311  1.5773 -0.0118 -1.6982
    9CHL1   C15  610   6.347   6.024   9.242 -0.1495  0.6903 -0.1549
    9CHL1  H15A  611   6.389   6.121   9.275  2.5454 -0.1928 -0.8231
    9CHL1  H15B  612   6.431   5.951   9.233 -1.0934 -0.3122 -1.0104
    9CHL1   C16  613   6.270   6.034   9.109 -0.0249 -0.0443 -1.0471
    9CHL1  H16A  614   6.294   6.126   9.051 -2.6204 -0.0394 -2.2104
    9CHL1  H16B  615   6.328   5.959   9.050  2.7497  0.5428  0.8276
    9CHL1   C17  616   6.116   6.009   9.127 -0.1641  0.1657 -0.9160
    9CHL1   H17  617   6.084   5.906   9.101 -0.3313 -0.0848  0.2543
    9CHL1   C13  618   6.105   6.022   9.286  0.5919  0.0670  0.0279
    9CHL1   C18  619   6.092   6.169   9.327  0.2723  0.0953  0.9871
    9CHL1  H18A  620   6.135   6.182   9.428  0.4886 -1.7192  1.1406
    9CHL1  H18B  621   6.138   6.240   9.255  3.4420 -2.9980 -0.1554
    9CHL1  H18C  622   5.983   6.191   9.330  0.5423  1.2455  2.6743
    9CHL1   C12  623   6.000   5.935   9.360 -0.4329 -0.0285  0.2143
    9CHL1  H12A  624   5.897   5.960   9.327 -1.0018 -3.7267 -1.1026
    9CHL1  H12B  625   6.005   5.830   9.324 -1.3779 -0.3068  0.8712
    9CHL1   C11  626   6.018   5.939   9.512  0.4578  0.5898 -0.6113
    9CHL1  H11A  627   5.994   6.042   9.546 -3.4172 -0.2195 -0.6539
    9CHL1  H11B  628   5.938   5.869   9.544  0.4932  1.9174  2.6278
    9CHL1    C9  629   6.156   5.897   9.567  0.1650 -0.1717  0.2710
    9CHL1    H9  630   6.162   5.791   9.537 -2.5662  0.3789 -2.3955
    9CHL1   C10  631   6.172   5.898   9.718  0.4583 -0.5923 -0.6516
    9CHL1   C19  632   6.115   6.029   9.771  0.7248  0.3952 -0.9195
    9CHL1  H19A  633   6.126   6.051   9.879  0.1454 -0.3406 -0.7043
    9CHL1  H19B  634   6.159   6.111   9.710 -2.2898  1.8926 -1.1578
    9CHL1  H19C  635   6.008   6.032   9.741  0.4589 -2.0598 -0.2995
    9CHL1    C1  636   6.083   5.789   9.780 -0.2344 -0.5251 -0.2110
    9CHL1   H1A  637   5.980   5.821   9.753  0.8753  1.9993 -1.7119
    9CHL1   H1B  638   6.109   5.694   9.729  1.2364 -1.3518  2.0281
    9CHL1    C2  639   6.105   5.778   9.928  0.0903  0.9332  0.8094
    9CHL1   H2A  640   6.040   5.692   9.958  1.5858 -1.1313 -1.7305
    9CHL1   H2B  641   6.068   5.871   9.977 -0.2238  2.4913 -2.2997
    9CHL1   C20  642   6.031   6.110   9.035 -0.6032 -0.4054 -0.0393
    9CHL1   H20  643   6.064   6.214   9.054 -0.9339 -0.2575 -0.2694
    9CHL1   C21  644   5.879   6.090   9.063  0.8648 -0.4487 -0.1314
    9CHL1  H21A  645   5.853   5.983   9.053 -2.4074  0.1329  1.5466
    9CHL1  H21B  646   5.819   6.127   8.977 -0.3303  0.9942  1.2807
    9CHL1  H21C  647   5.835   6.127   9.158  0.8439  0.6478 -0.5603
    9CHL1   C22  648   6.050   6.077   8.892 -0.4163  0.3592  0.1410
    9CHL1  H22A  649   6.152   6.041   8.867 -0.7457  1.8736 -3.7769
    9CHL1  H22B  650   6.000   5.981   8.865  1.4848  0.0895 -2.6481
    9CHL1   C23  651   6.006   6.194   8.801 -0.1911 -0.1367  0.0787
    9CHL1  H23A  652   5.903   6.230   8.825  0.1914  1.2949 -0.3471
    9CHL1  H23B  653   6.069   6.286   8.806 -1.8866  1.0449  0.1471
    9CHL1   C24  654   6.007   6.145   8.655 -0.1566  0.1850  0.6339
    9CHL1  H24A  655   6.057   6.220   8.590  1.0311 -1.3432 -0.2518
    9CHL1  H24B  656   6.070   6.053   8.653 -1.9055 -1.0227 -0.0797
    9CHL1   C25  657   5.863   6.131   8.596 -0.1514 -0.0772 -0.1133
    9CHL1   H25  658   5.810   6.228   8.600  2.1688  1.1890  0.6945
    9CHL1   C26  659   5.876   6.093   8.445 -0.2278  0.9840 -0.5045
    9CHL1  H26A  660   5.936   6.001   8.429 -2.4270 -0.1672 -2.3804
    9CHL1  H26B  661   5.776   6.073   8.400 -1.4072  0.3084  2.2424
    9CHL1  H26C  662   5.925   6.174   8.389 -0.9001  2.3189  0.7955
    9CHL1   C27  663   5.775   6.030   8.665  0.4206  0.1603 -0.4510
    9CHL1  H27A  664   5.756   6.053   8.773 -0.0040 -2.1496  0.0010
    9CHL1  H27B  665   5.678   6.018   8.612 -0.2918 -1.7940  1.1974
    9CHL1  H27C  666   5.822   5.929   8.673 -2.8934 -1.3077  2.0402
   10CHL1    C3  667   4.673   3.212  10.088  0.2119  0.9488 -0.7114
   10CHL1    H3  668   4.586   3.158  10.044  1.3569 -0.6663 -1.0411
   10CHL1    O3  669   4.685   3.199  10.236  0.0970  0.2841  0.3626
   10CHL1   H3'  670   4.748   3.260  10.275  2.2953 -1.1833 -0.8322
   10CHL1    C4  671   4.807   3.181  10.015  0.4148  0.0519  0.0334
   10CHL1   H4A  672   4.897   3.239  10.047  1.0786 -1.4631  0.9689
   10CHL1   H4B  673   4.834   3.080  10.053  0.7145  0.7521  1.7349
   10CHL1    C5  674   4.804   3.204   9.864  0.6221 -0.0085 -0.2606
   10CHL1    C6  675   4.827   3.101   9.780 -0.0194  0.0519 -0.3869
   10CHL1    H6  676   4.835   2.996   9.810 -0.6293 -0.0679 -0.6517
   10CHL1    C7  677   4.815   3.122   9.630 -0.5348 -0.3225 -0.0804
   10CHL1   H7A  678   4.887   3.067   9.565 -1.2466  2.0414 -2.9978
   10CHL1   H7B  679   4.718   3.086   9.590 -0.6819  0.9674 -0.9247
   10CHL1    C8  680   4.820   3.275   9.584 -0.5639 -0.4222 -0.2692
   10CHL1    H8  681   4.919   3.324   9.591 -0.2283 -1.0849 -0.3328
   10CHL1   C14  682   4.781   3.297   9.434  0.2201  0.0036 -0.3065
   10CHL1   H14  683   4.674   3.267   9.434 -0.0734  1.0158 -0.1466
   10CHL1   C15  684   4.859   3.229   9.328  0.5753  0.8344 -0.0987
   10CHL1  H15A  685   4.967   3.254   9.334  0.5782  0.6759  0.5539
   10CHL1  H15B  686   4.845   3.119   9.340  0.9211  1.0547  2.4414
   10CHL1   C16  687   4.797   3.281   9.191 -1.0046  0.5150 -0.6003
   10CHL1  H16A  688   4.882   3.310   9.125 -0.7342 -1.5712 -1.2082
   10CHL1  H16B  689   4.736   3.206   9.138 -0.1287 -1.6171  1.3458
   10CHL1   C17  690   4.715   3.406   9.238  0.8759  0.3500  0.4692
   10CHL1   H17  691   4.610   3.370   9.236 -0.0971  3.1086 -2.3178
   10CHL1   C13  692   4.762   3.440   9.383 -0.3869  1.2294 -0.1766
   10CHL1   C18  693   4.895   3.522   9.373 -0.1950 -0.0396  0.6459
   10CHL1  H18A  694   4.963   3.499   9.288 -0.7124  0.0184  0.2100
   10CHL1  H18B  695   4.866   3.629   9.368  0.4054  0.2969  3.6082
   10CHL1  H18C  696   4.947   3.510   9.470  0.1890  2.3496  0.7502
   10CHL1   C12  697   4.667   3.505   9.478  0.2269  0.4966 -0.3586
   10CHL1  H12A  698   4.649   3.613   9.459 -1.9694  0.1250 -0.5409
   10CHL1  H12B  699   4.569   3.452   9.480  0.4379  0.1739  1.9419
   10CHL1   C11  700   4.711   3.501   9.626 -0.3515 -0.1775 -0.6486
   10CHL1  H11A  701   4.807   3.557   9.635 -0.4442 -0.5434  3.3996
   10CHL1  H11B  702   4.635   3.563   9.678 -1.5201  0.3879 -2.9791
   10CHL1    C9  703   4.729   3.357   9.673 -0.2499  0.1795  1.1317
   10CHL1    H9  704   4.629   3.310   9.668  0.1980 -0.5867 -1.4090
   10CHL1   C10  705   4.771   3.350   9.826  1.0326 -0.0510 -0.3932
   10CHL1   C19  706   4.900   3.437   9.848  0.1022 -0.1271  0.3457
   10CHL1  H19A  707   4.939   3.408   9.948  0.5868 -0.1989  0.1369
   10CHL1  H19B  708   4.970   3.406   9.767  0.2169 -0.3545  0.5326
   10CHL1  H19C  709   4.879   3.545   9.833  1.4020 -0.3006 -3.0511
   10CHL1    C1  710   4.649   3.388   9.913 -0.0929 -0.9073 -0.3568
   10CHL1   H1A  711   4.611   3.492   9.910 -1.2723 -1.3241  0.0007
   10CHL1   H1B  712   4.556   3.331   9.891 -2.2613  1.5733  1.9931
   10CHL1    C2  713   4.660   3.352  10.068  0.3238 -1.3385 -0.0502
   10CHL1   H2A  714   4.570   3.393  10.119  0.4406 -0.1166 -0.8089
   10CHL1   H2B  715   4.742   3.416  10.110 -2.1608  2.6650 -1.0027
   10CHL1   C20  716   4.718   3.529   9.133 -0.0089 -0.4592  0.2857
   10CHL1   H20  717   4.824   3.552   9.108  0.5614 -0.9856  2.1232
   10CHL1   C21  718   4.644   3.647   9.188 -0.7791 -0.1224 -0.3712
   10CHL1  H21A  719   4.641   3.733   9.118 -1.4535  2.0163  2.1997
   10CHL1  H21B  720   4.688   3.681   9.284 -2.3970 -1.1381  0.7501
   10CHL1  H21C  721   4.540   3.613   9.204 -0.7276  1.1470  3.0496
   10CHL1   C22  722   4.671   3.479   9.001  0.1255 -0.1893  0.6765
   10CHL1  H22A  723   4.739   3.395   8.975  1.6598  0.8822  1.1508
   10CHL1  H22B  724   4.564   3.449   9.008 -0.3424  1.0940 -0.7675
   10CHL1   C23  725   4.697   3.582   8.892 -0.4196  0.4697 -0.6394
   10CHL1  H23A  726   4.620   3.663   8.899  0.7706  1.4381  1.8869
   10CHL1  H23B  727   4.796   3.626   8.913 -1.1292  1.1119  1.4360
   10CHL1   C24  728   4.681   3.532   8.746 -0.7424 -0.5697 -0.0544
   10CHL1  H24A  729   4.746   3.442   8.743  2.8209  1.7211  2.9998
   10CHL1  H24B  730   4.577   3.496   8.732 -2.1974  3.7638 -1.0215
   10CHL1   C25  731   4.740   3.625   8.639  0.3141 -0.0979  0.4797
   10CHL1   H25  732   4.850   3.622   8.648  0.3770  2.6649  0.8748
   10CHL1   C26  733   4.698   3.566   8.508 -0.1665  0.4690  0.3785
   10CHL1  H26A  734   4.756   3.620   8.431  0.3937  0.1283  0.5554
   10CHL1  H26B  735   4.717   3.456   8.506  1.2619  0.7034  0.8735
   10CHL1  H26C  736   4.592   3.585   8.478 -0.0219  0.2605 -0.2809
   10CHL1   C27  737   4.683   3.766   8.661 -0.9753  0.5971  0.0054
   10CHL1  H27A  738   4.719   3.808   8.757 -0.4629  1.4234 -0.5340
   10CHL1  H27B  739   4.729   3.823   8.576  0.8038  1.6638  1.6435
   10CHL1  H27C  740   4.573   3.779   8.653 -1.2235  1.6127  4.1266
   11CHL1    C3  741   0.938   6.420   9.927 -0.0775 -0.3964 -0.2396
   11CHL1    H3  742   0.877   6.330   9.905  0.0794 -0.3133 -1.0447
   11CHL1    O3  743   0.970   6.428  10.064  0.9055 -0.5070 -0.6821
   11CHL1   H3'  744   1.013   6.510  10.090  0.5930 -0.7888  0.7834
   11CHL1    C4  745   1.072   6.407   9.856 -0.2841  0.3794  0.8612
   11CHL1   H4A  746   1.142   6.481   9.900 -1.0740  0.8782  1.3003
   11CHL1   H4B  747   1.124   6.313   9.884 -0.4232 -0.5061 -1.7541
   11CHL1    C5  748   1.054   6.404   9.705  0.6904 -0.0660 -0.2921
   11CHL1    C6  749   1.095   6.306   9.628  0.7643  0.3544  0.5241
   11CHL1    H6  750   1.153   6.220   9.665  0.3639 -1.3179 -2.5469
   11CHL1    C7  751   1.088   6.303   9.480  0.5153 -0.1676 -0.1786
   11CHL1   H7A  752   1.173   6.248   9.433  0.0925 -0.6263 -0.3994
   11CHL1   H7B  753   0.995   6.250   9.453  1.2872 -1.4754 -0.3279
   11CHL1    C8  754   1.065   6.447   9.420  0.4766 -0.3410  0.1010
   11CHL1    H8  755   1.166   6.492   9.427  0.0634  0.5501  0.3866
   11CHL1   C14  756   1.026   6.445   9.271  0.6707  0.5166 -0.5274
   11CHL1   H14  757   0.930   6.388   9.269  2.8070 -3.2300 -1.1840
   11CHL1   C15  758   1.124   6.361   9.189  0.1148  0.2175 -0.3364
   11CHL1  H15A  759   1.227   6.397   9.214 -0.6069  0.5847  2.2886
   11CHL1  H15B  760   1.112   6.251   9.189 -4.7067  0.6494 -0.5334
   11CHL1   C16  761   1.078   6.406   9.046  0.1572  0.0403  0.1189
   11CHL1  H16A  762   1.161   6.441   8.981 -1.3158  1.0099 -1.2923
   11CHL1  H16B  763   1.029   6.317   9.003 -0.8106  0.3571  0.5545
   11CHL1   C17  764   0.968   6.523   9.060 -0.5816  0.3609  0.3550
   11CHL1   H17  765   0.867   6.477   9.055 -1.1108  1.4640  0.7641
   11CHL1   C13  766   0.998   6.579   9.195 -0.2614  0.2601  0.2922
   11CHL1   C18  767   1.130   6.659   9.191 -0.1105 -0.3406  0.4863
   11CHL1  H18A  768   1.212   6.601   9.142  0.1083  0.2120  0.1975
   11CHL1  H18B  769   1.107   6.750   9.132  0.8794 -0.4431 -0.0656
   11CHL1  H18C  770   1.161   6.696   9.291  1.0128 -0.9757  0.3819
   11CHL1   C12  771   0.885   6.651   9.277 -0.5440  0.2563 -0.2849
   11CHL1  H12A  772   0.861   6.753   9.240 -0.9986  0.7456  1.3265
   11CHL1  H12B  773   0.787   6.598   9.277  0.3415 -1.4117 -0.6792
   11CHL1   C11  774   0.923   6.663   9.427 -0.1867  0.1243  0.1468
   11CHL1  H11A  775   1.016   6.724   9.425 -0.0321 -0.0162  2.4611
   11CHL1  H11B  776   0.853   6.728   9.483  0.9602  1.5395 -0.0039
   11CHL1    C9  777   0.951   6.523   9.499  0.0713  0.5436  0.4105
   11CHL1    H9  778   0.862   6.456   9.495  1.4224 -1.2188 -0.4924
   11CHL1   C10  779   0.977   6.526   9.650  0.6000 -0.7917  0.0575
   11CHL1   C19  780   1.076   6.656   9.679 -0.2169  0.0265  0.1380
   11CHL1  H19A  781   1.156   6.661   9.602 -2.2824 -0.6556 -2.1351
   11CHL1  H19B  782   1.018   6.751   9.677  1.5365  1.1534  1.4403
   11CHL1  H19C  783   1.138   6.644   9.770 -0.7763  0.9243  0.6457
   11CHL1    C1  784   0.848   6.555   9.730  0.7008  0.0167 -0.0764
   11CHL1   H1A  785   0.794   6.645   9.693  1.5321  0.7835  0.5367
   11CHL1   H1B  786   0.781   6.472   9.700  0.7441  0.2655 -0.8862
   11CHL1    C2  787   0.867   6.549   9.882 -0.5394 -0.0110  0.2282
   11CHL1   H2A  788   0.769   6.560   9.933 -1.2313  1.2973 -1.3132
   11CHL1   H2B  789   0.932   6.636   9.908  0.9894 -1.1265  0.2389
   11CHL1   C20  790   0.967   6.625   8.945  0.6215  0.9834  0.1159
   11CHL1   H20  791   1.055   6.691   8.926  1.5652 -0.7746 -1.8261
   11CHL1   C21  792   0.851   6.730   8.961  0.3041  0.8204  0.4740
   11CHL1  H21A  793   0.885   6.807   9.033 -0.9730  0.0409  1.9358
   11CHL1  H21B  794   0.763   6.670   8.992  1.8518 -2.2750 -0.8552
   11CHL1  H21C  795   0.837   6.782   8.863  0.6783 -0.8830 -0.5061
   11CHL1   C22  796   0.934   6.546   8.819  0.1701 -0.3482  1.0070
   11CHL1  H22A  797   1.001   6.458   8.814  1.0095  0.3496 -0.2922
   11CHL1  H22B  798   0.829   6.511   8.816 -0.7432  2.3854 -0.6071
   11CHL1   C23  799   0.956   6.614   8.684 -0.2198 -0.0945  0.1204
   11CHL1  H23A  800   0.891   6.703   8.677 -0.3424 -0.0460  1.6039
   11CHL1  H23B  801   1.063   6.644   8.676  0.0696 -1.3477 -0.8141
   11CHL1   C24  802   0.928   6.521   8.566  0.1585  0.1914 -0.0917
   11CHL1  H24A  803   0.987   6.428   8.562  0.7220  0.5289  0.3964
   11CHL1  H24B  804   0.820   6.494   8.562 -0.0072  0.6318  1.3561
   11CHL1   C25  805   0.956   6.593   8.428  0.3531 -0.4709 -0.1228
   11CHL1   H25  806   1.064   6.619   8.432  0.6060 -1.3354 -1.0595
   11CHL1   C26  807   0.928   6.502   8.313 -0.0930 -0.2265  0.0563
   11CHL1  H26A  808   0.821   6.474   8.297 -0.0699 -0.8149  0.9109
   11CHL1  H26B  809   0.964   6.560   8.225 -0.3023 -0.3091 -0.0859
   11CHL1  H26C  810   0.986   6.408   8.319  2.3012  1.1502 -0.8786
   11CHL1   C27  811   0.892   6.729   8.407  0.0174 -0.2413 -0.0749
   11CHL1  H27A  812   0.914   6.760   8.302 -0.9526  2.0120  0.3464
   11CHL1  H27B  813   0.783   6.705   8.405  0.8882 -4.6561 -2.7243
   11CHL1  H27C  814   0.912   6.810   8.480 -1.5267  0.8195 -0.8052
   12CHL1    C3  815   4.230   2.220  10.310 -0.7788  0.0717 -0.5382
   12CHL1    H3  816   4.243   2.329  10.290  1.2875  0.5418  2.8134
   12CHL1    O3  817   4.258   2.179  10.445 -0.8429  0.9254 -0.0574
   12CHL1   H3'  818   4.231   2.254  10.498  0.9997  0.8633  1.0001
   12CHL1    C4  819   4.079   2.197  10.280 -1.1229 -0.2544 -0.0207
   12CHL1   H4A  820   4.055   2.092  10.307  1.0810 -1.0460 -1.0012
   12CHL1   H4B  821   4.032   2.263  10.356 -1.1701  0.5268 -0.7144
   12CHL1    C5  822   4.029   2.231  10.137 -0.9451  0.4392 -0.6103
   12CHL1    C6  823   3.934   2.319  10.113 -0.0433 -0.2285  0.2554
   12CHL1    H6  824   3.881   2.362  10.200  0.6319  0.3355  0.3961
   12CHL1    C7  825   3.881   2.349   9.974  0.2530  0.3334  0.2564
   12CHL1   H7A  826   3.772   2.331   9.983 -0.0148  1.9705  0.3709
   12CHL1   H7B  827   3.900   2.457   9.955 -2.7498  0.9399  0.4935
   12CHL1    C8  828   3.942   2.255   9.868  0.1098 -0.0778  0.3397
   12CHL1    H8  829   3.901   2.152   9.873  1.4267 -0.7302 -1.7400
   12CHL1   C14  830   3.916   2.313   9.724 -0.3456  0.5339 -0.3166
   12CHL1   H14  831   3.986   2.399   9.726 -0.8850  0.9499  2.1478
   12CHL1   C15  832   3.777   2.355   9.685  0.6906  0.1646 -0.0174
   12CHL1  H15A  833   3.703   2.282   9.725  0.3945  0.7990  0.6031
   12CHL1  H15B  834   3.758   2.461   9.711 -2.2269 -0.1372 -0.7535
   12CHL1   C16  835   3.780   2.347   9.532 -0.0127  0.4149 -0.3344
   12CHL1  H16A  836   3.694   2.283   9.501  0.6918  0.1109 -1.6674
   12CHL1  H16B  837   3.762   2.443   9.481 -1.9723  0.5598  0.5753
   12CHL1   C17  838   3.915   2.286   9.485  0.7452  0.4015 -0.8765
   12CHL1   H17  839   3.970   2.381   9.464  0.2672  1.2333  1.5681
   12CHL1   C13  840   3.973   2.221   9.612  0.0340 -0.3071 -0.5107
   12CHL1   C18  841   3.911   2.083   9.627 -0.0292 -0.3144  0.0499
   12CHL1  H18A  842   3.949   2.031   9.718 -1.9977  0.4084  1.3114
   12CHL1  H18B  843   3.800   2.088   9.634  0.0193 -0.1452  0.8001
   12CHL1  H18C  844   3.941   2.024   9.537  1.7389  0.9946 -0.2503
   12CHL1   C12  845   4.121   2.216   9.633  0.0523 -0.5293 -0.7063
   12CHL1  H12A  846   4.162   2.129   9.576  2.5802  1.4585 -1.9999
   12CHL1  H12B  847   4.169   2.310   9.601  1.0730 -0.5781  0.6179
   12CHL1   C11  848   4.165   2.174   9.774 -0.1713  0.4096  0.4620
   12CHL1  H11A  849   4.146   2.065   9.772 -0.6588  0.5073 -0.4956
   12CHL1  H11B  850   4.274   2.192   9.788 -0.1919  1.1775 -0.3505
   12CHL1    C9  851   4.093   2.240   9.897 -0.7865 -0.9286 -0.1464
   12CHL1    H9  852   4.127   2.344   9.913 -0.3486 -1.1891  0.6335
   12CHL1   C10  853   4.118   2.164  10.025 -1.1763 -0.7234 -0.5081
   12CHL1   C19  854   4.084   2.017  10.019  0.2165 -0.1065 -0.4749
   12CHL1  H19A  855   4.093   1.972  10.121 -0.6371  0.9182  0.0705
   12CHL1  H19B  856   3.979   1.993   9.989  0.0611 -0.1864  0.1133
   12CHL1  H19C  857   4.155   1.950   9.966  1.1133 -1.2190  2.0427
   12CHL1    C1  858   4.271   2.180  10.068 -0.2473  0.0232 -0.3639
   12CHL1   H1A  859   4.345   2.127  10.005  3.1005  0.9398  2.6301
   12CHL1   H1B  860   4.313   2.280  10.046 -0.4188  0.1502 -0.1139
   12CHL1    C2  861   4.302   2.128  10.209 -0.2184 -0.0338 -0.7443
   12CHL1   H2A  862   4.413   2.127  10.215 -0.1467  0.7709 -1.7715
   12CHL1   H2B  863   4.279   2.022  10.234 -0.7276  0.0342 -0.9116
   12CHL1   C20  864   3.910   2.209   9.348  0.4620 -0.6403  0.2805
   12CHL1   H20  865   3.841   2.122   9.347  0.8345 -0.9413  0.7540
   12CHL1   C21  866   4.049   2.154   9.305 -0.2624 -1.0007  0.1257
   12CHL1  H21A  867   4.080   2.080   9.381 -0.5800 -0.0021  1.2328
   12CHL1  H21B  868   4.125   2.234   9.292  0.9527 -2.1936 -0.1732
   12CHL1  H21C  869   4.041   2.105   9.206  3.0726 -0.3696 -0.4949
   12CHL1   C22  870   3.848   2.296   9.233 -0.0093 -0.5112 -0.0990
   12CHL1  H22A  871   3.743   2.321   9.258  0.6247 -0.0514  2.1566
   12CHL1  H22B  872   3.901   2.390   9.208 -0.3819 -0.5511 -1.0892
   12CHL1   C23  873   3.851   2.237   9.092 -0.3989  0.6056  0.3092
   12CHL1  H23A  874   3.950   2.213   9.047 -1.7481  2.0315 -3.6958
   12CHL1  H23B  875   3.794   2.142   9.095 -1.2210  1.1236  1.5338
   12CHL1   C24  876   3.792   2.331   8.986 -0.0657  0.6571 -0.3883
   12CHL1  H24A  877   3.681   2.336   8.993 -0.0235  0.5422  0.3658
   12CHL1  H24B  878   3.829   2.434   9.005  1.7349 -0.4749  2.4838
   12CHL1   C25  879   3.838   2.293   8.845 -0.8177 -0.2718  0.1567
   12CHL1   H25  880   3.945   2.263   8.849 -0.3726  1.0596 -1.4953
   12CHL1   C26  881   3.767   2.166   8.788 -0.3276  0.3597 -0.2831
   12CHL1  H26A  882   3.787   2.163   8.678 -0.5227 -0.1801 -0.3036
   12CHL1  H26B  883   3.803   2.077   8.844 -1.4134  0.4749  0.6124
   12CHL1  H26C  884   3.657   2.169   8.804 -0.6938 -0.3194 -2.5002
   12CHL1   C27  885   3.812   2.404   8.744  0.5579 -0.4936  0.0969
   12CHL1  H27A  886   3.709   2.440   8.763 -0.2639 -3.0146  0.6012
   12CHL1  H27B  887   3.877   2.492   8.763 -0.7144  0.5807 -0.4628
   12CHL1  H27C  888   3.821   2.359   8.642 -1.3187  1.6865 -1.0805
   13CHL1    C3  889   2.973   4.081   9.714 -0.1844 -0.4564 -0.2487
   13CHL1    H3  890   3.061   4.018   9.687  0.4042  0.3826 -0.2967
   13CHL1    O3  891   2.957   4.087   9.854  0.0154  0.1815 -0.5288
   13CHL1   H3'  892   2.930   4.003   9.892 -1.2249  1.0148  0.5161
   13CHL1    C4  893   2.989   4.227   9.656  0.8663  0.9343 -0.0339
   13CHL1   H4A  894   2.907   4.289   9.699  0.5242  0.3342  0.1876
   13CHL1   H4B  895   3.083   4.259   9.705  0.2440  0.7878  1.2803
   13CHL1    C5  896   2.976   4.236   9.507 -0.3611  0.8039  0.2310
   13CHL1    C6  897   3.061   4.300   9.423 -0.2995  0.0656 -0.8930
   13CHL1    H6  898   3.142   4.363   9.463 -0.6707  0.7206 -1.1542
   13CHL1    C7  899   3.036   4.309   9.277  0.1627 -0.7716  0.0576
   13CHL1   H7A  900   3.068   4.406   9.234 -0.8713 -1.2263 -1.7816
   13CHL1   H7B  901   3.112   4.241   9.233 -0.3999 -1.0127 -0.5540
   13CHL1    C8  902   2.900   4.282   9.216  0.2110  0.2360 -0.4523
   13CHL1    H8  903   2.827   4.354   9.257  1.4316  0.2149  1.8673
   13CHL1   C14  904   2.890   4.265   9.063  0.4905 -0.2375 -0.1104
   13CHL1   H14  905   2.959   4.180   9.041  1.6580  0.4833  0.7396
   13CHL1   C15  906   2.928   4.380   8.971 -0.1952  0.2141 -0.6353
   13CHL1  H15A  907   2.880   4.469   9.018  0.5479  0.0893  0.3715
   13CHL1  H15B  908   3.037   4.399   8.963 -0.1565 -0.2388 -1.2248
   13CHL1   C16  909   2.856   4.355   8.839 -0.1952 -0.4512  0.0028
   13CHL1  H16A  910   2.796   4.446   8.817  0.4602  0.1202  0.5364
   13CHL1  H16B  911   2.933   4.332   8.762  0.7221 -0.9231  1.0320
   13CHL1   C17  912   2.754   4.242   8.859 -0.6920  0.4766  0.5297
   13CHL1   H17  913   2.791   4.143   8.826  3.1774  0.9099  3.1789
   13CHL1   C13  914   2.745   4.230   9.016  0.3353  0.2802  0.1637
   13CHL1   C18  915   2.637   4.337   9.056  0.6490  0.4407  0.1028
   13CHL1  H18A  916   2.628   4.358   9.164  0.6404 -2.8062  0.7787
   13CHL1  H18B  917   2.657   4.432   9.002 -1.4961  1.8600  1.7399
   13CHL1  H18C  918   2.538   4.299   9.023  0.5078  0.2772  0.7132
   13CHL1   C12  919   2.707   4.088   9.069 -0.4321  0.5746  0.8159
   13CHL1  H12A  920   2.599   4.079   9.046 -0.0617  0.0384 -0.7831
   13CHL1  H12B  921   2.766   4.011   9.014 -0.9935  0.6469  0.0934
   13CHL1   C11  922   2.725   4.085   9.223 -0.4002  0.5900 -0.6041
   13CHL1  H11A  923   2.641   4.152   9.250  0.8469  1.0317  2.3152
   13CHL1  H11B  924   2.698   3.984   9.258  3.8668 -0.5955 -0.4385
   13CHL1    C9  925   2.859   4.143   9.277 -0.3740  0.3102 -0.3595
   13CHL1    H9  926   2.943   4.078   9.244 -0.2851  0.8592 -1.2332
   13CHL1   C10  927   2.858   4.156   9.434  0.4059  0.5851 -0.0844
   13CHL1   C19  928   2.723   4.218   9.482  0.5813 -0.3215 -0.5045
   13CHL1  H19A  929   2.719   4.255   9.587  2.1477 -0.0152 -0.5414
   13CHL1  H19B  930   2.698   4.308   9.422 -0.4188 -0.5136 -0.3712
   13CHL1  H19C  931   2.641   4.146   9.463 -0.4351  1.4160 -2.8200
   13CHL1    C1  932   2.861   4.010   9.495 -0.6202  0.0581  0.4123
   13CHL1   H1A  933   2.778   3.957   9.445  1.0207 -3.7707  1.5581
   13CHL1   H1B  934   2.958   3.964   9.466 -0.4016  0.3065  0.7455
   13CHL1    C2  935   2.855   4.008   9.651  0.1548 -0.1661  0.4252
   13CHL1   H2A  936   2.866   3.900   9.677 -0.0430 -0.9270 -2.4513
   13CHL1   H2B  937   2.758   4.044   9.691 -1.2658 -3.5622  0.2651
   13CHL1   C20  938   2.626   4.250   8.773  0.6908  0.6321  0.1018
   13CHL1   H20  939   2.561   4.339   8.791 -1.0312 -0.1876 -1.7621
   13CHL1   C21  940   2.533   4.127   8.793  0.6113 -0.2259 -0.1281
   13CHL1  H21A  941   2.459   4.119   8.710  0.3088 -0.0475  0.1241
   13CHL1  H21B  942   2.482   4.132   8.892  2.6931  0.7191  0.9278
   13CHL1  H21C  943   2.590   4.032   8.798 -0.1363 -0.6008  1.3839
   13CHL1   C22  944   2.657   4.246   8.620 -0.1445 -0.1239 -0.2199
   13CHL1  H22A  945   2.748   4.302   8.590 -0.3480  0.0526 -0.5095
   13CHL1  H22B  946   2.677   4.148   8.572  0.8983  0.8883 -1.8807
   13CHL1   C23  947   2.542   4.307   8.536  0.1962 -0.1398  0.2306
   13CHL1  H23A  948   2.445   4.257   8.559  1.2798 -0.3068  5.1509
   13CHL1  H23B  949   2.530   4.412   8.571  1.1096 -0.3783  1.2823
   13CHL1   C24  950   2.569   4.298   8.387 -0.2652  0.1445 -0.6926
   13CHL1  H24A  951   2.665   4.346   8.357  0.3873 -0.0915  0.9800
   13CHL1  H24B  952   2.588   4.195   8.352  0.6169 -0.0888  0.4571
   13CHL1   C25  953   2.460   4.362   8.294  0.3650  0.0635 -0.7878
   13CHL1   H25  954   2.384   4.282   8.280  1.3803 -0.7880 -1.6203
   13CHL1   C26  955   2.392   4.481   8.361 -0.0850 -0.2952 -0.1069
   13CHL1  H26A  956   2.340   4.460   8.457  1.0523 -0.9263  0.3814
   13CHL1  H26B  957   2.470   4.560   8.364  0.9338 -1.3406  3.2123
   13CHL1  H26C  958   2.306   4.502   8.295 -1.3960 -1.9159  1.0594
   13CHL1   C27  959   2.512   4.396   8.155 -0.4050  0.0304 -0.1216
   13CHL1  H27A  960   2.425   4.413   8.088 -1.0385 -1.2249  0.3638
   13CHL1  H27B  961   2.572   4.489   8.161 -0.8534  0.2361  1.1295
   13CHL1  H27C  962   2.569   4.307   8.119 -1.4209 -0.3555 -0.7897
   14CHL1    C3  963   2.619   0.386  10.125 -0.7023 -0.5301  0.2391
   14CHL1    H3  964   2.526   0.325  10.114 -0.9165 -0.4661  1.6312
   14CHL1    O3  965   2.639   0.392  10.266 -0.0108 -0.9034 -0.4388
   14CHL1   H3'  966   2.711   0.454  10.281 -0.7301  0.4900 -2.4944
   14CHL1    C4  967   2.748   0.329  10.055 -0.1511  0.3540 -0.0934
   14CHL1   H4A  968   2.827   0.392  10.102  1.4193 -2.6861  1.5605
   14CHL1   H4B  969   2.759   0.227  10.099  0.3628  1.4125  2.3315
   14CHL1    C5  970   2.754   0.320   9.900  0.2328 -0.2363 -0.6177
   14CHL1    C6  971   2.776   0.204   9.833  0.2507  0.8338 -0.2054
   14CHL1    H6  972   2.798   0.114   9.893 -0.0052 -1.3431 -3.3067
   14CHL1    C7  973   2.774   0.188   9.690 -0.2825 -1.0186  0.3789
   14CHL1   H7A  974   2.854   0.133   9.637  0.4313  0.0397  0.3351
   14CHL1   H7B  975   2.677   0.143   9.659  0.2572 -1.0527 -1.2721
   14CHL1    C8  976   2.771   0.329   9.611  0.3837  0.7121 -0.9250
   14CHL1    H8  977   2.872   0.374   9.622  0.1219  0.8145  1.3117
   14CHL1   C14  978   2.742   0.317   9.470  0.1647  0.6870 -0.2047
   14CHL1   H14  979   2.640   0.275   9.463  0.7361 -0.6998 -0.3451
   14CHL1   C15  980   2.834   0.223   9.382  0.1974  0.4522 -0.0669
   14CHL1  H15A  981   2.943   0.224   9.406 -0.1556 -0.5146  1.6397
   14CHL1  H15B  982   2.800   0.117   9.386 -1.4673  0.7784 -3.5115
   14CHL1   C16  983   2.817   0.282   9.237 -0.5286 -0.4297  0.9442
   14CHL1  H16A  984   2.923   0.303   9.211 -0.6135 -1.7537 -0.5938
   14CHL1  H16B  985   2.773   0.208   9.166  4.3893 -1.7046 -1.0137
   14CHL1   C17  986   2.722   0.400   9.249 -0.4501  0.7637 -0.1263
   14CHL1   H17  987   2.622   0.351   9.250 -1.0985  2.0706  0.0418
   14CHL1   C13  988   2.741   0.450   9.393  0.0262  0.1652  0.3738
   14CHL1   C18  989   2.871   0.531   9.399 -0.4841  0.2309 -0.1269
   14CHL1  H18A  990   2.952   0.472   9.351 -1.0903  1.0675 -2.2298
   14CHL1  H18B  991   2.863   0.627   9.344 -0.2051  0.1374 -0.3322
   14CHL1  H18C  992   2.908   0.567   9.497  0.9392 -1.1955 -0.1186
   14CHL1   C12  993   2.623   0.537   9.449  0.4458 -0.1143  0.0834
   14CHL1  H12A  994   2.615   0.631   9.390  0.3379  0.7256  1.4007
   14CHL1  H12B  995   2.526   0.483   9.442  0.1603  0.2962  0.7749
   14CHL1   C11  996   2.650   0.554   9.598  0.4106 -0.3536  0.5090
   14CHL1  H11A  997   2.741   0.615   9.614 -0.5617  1.0549  0.7392
   14CHL1  H11B  998   2.559   0.607   9.631 -0.8007 -1.4561 -0.9640
   14CHL1    C9  999   2.673   0.423   9.679 -0.5668  0.4048  0.1006
   14CHL1    H9 1000   2.574   0.373   9.680 -0.3968  0.0585  2.5134
   14CHL1   C10 1001   2.707   0.448   9.829  0.1659 -0.7373  0.0610
   14CHL1   C19 1002   2.830   0.547   9.842  0.8559  0.1781 -0.0265
   14CHL1  H19A 1003   2.871   0.561   9.944  0.2566  0.1751  0.2166
   14CHL1  H19B 1004   2.920   0.525   9.781  1.2197  0.7483  0.3056
   14CHL1  H19C 1005   2.784   0.641   9.805  0.5607 -0.7357 -2.0745
   14CHL1    C1 1006   2.585   0.508   9.904 -0.8666 -0.2803  0.4038
   14CHL1   H1A 1007   2.556   0.605   9.858 -2.9047 -0.9683  0.1873
   14CHL1   H1B 1008   2.510   0.430   9.877 -0.6135 -0.6566  0.7902
   14CHL1    C2 1009   2.593   0.527  10.059 -0.2139  0.0269  0.1066
   14CHL1   H2A 1010   2.495   0.566  10.094 -0.5898  0.2387 -1.1550
   14CHL1   H2B 1011   2.676   0.597  10.082  0.9236 -1.7208  1.5031
   14CHL1   C20 1012   2.737   0.485   9.126 -0.0375  0.4141  0.6389
   14CHL1   H20 1013   2.835   0.537   9.114  0.0597 -0.2341 -1.5242
   14CHL1   C21 1014   2.634   0.602   9.138  0.2400  0.3294 -0.8499
   14CHL1  H21A 1015   2.624   0.659   9.043  0.5840  3.0347  0.6880
   14CHL1  H21B 1016   2.664   0.679   9.211 -0.3982  0.6163 -0.8895
   14CHL1  H21C 1017   2.545   0.556   9.187 -0.0324 -0.5690 -2.1553
   14CHL1   C22 1018   2.722   0.411   8.989  0.1946  0.9811  0.3393
   14CHL1  H22A 1019   2.750   0.483   8.909  1.3060  1.6017  1.2867
   14CHL1  H22B 1020   2.788   0.322   8.992 -0.8888  0.1592  0.3938
   14CHL1   C23 1021   2.569   0.366   8.967  0.1826 -0.5547  0.7425
   14CHL1  H23A 1022   2.556   0.281   9.038  0.2429  1.4309  3.1728
   14CHL1  H23B 1023   2.500   0.447   8.997  0.6938  0.7049 -1.3638
   14CHL1   C24 1024   2.542   0.311   8.828  0.4265 -0.0006 -0.0853
   14CHL1  H24A 1025   2.577   0.384   8.752  0.6422  1.2521  1.1991
   14CHL1  H24B 1026   2.605   0.221   8.810 -1.0014 -1.0758  0.1753
   14CHL1   C25 1027   2.394   0.265   8.806 -0.0865  0.4177 -0.4178
   14CHL1   H25 1028   2.347   0.233   8.901 -0.2094 -3.0015 -1.5310
   14CHL1   C26 1029   2.313   0.373   8.742  0.7595  0.1889 -0.2787
   14CHL1  H26A 1030   2.342   0.395   8.637  0.8183  0.4099 -0.2180
   14CHL1  H26B 1031   2.204   0.356   8.747  0.3707  2.9405  1.7138
   14CHL1  H26C 1032   2.320   0.462   8.808  1.7301  0.6769 -1.0173
   14CHL1   C27 1033   2.369   0.141   8.718 -0.6433  0.6208 -0.4144
   14CHL1  H27A 1034   2.262   0.117   8.733 -0.6381 -0.7581 -2.5066
   14CHL1  H27B 1035   2.395   0.157   8.612 -0.6786  2.0094 -0.2190
   14CHL1  H27C 1036   2.423   0.055   8.764 -0.4163  2.0809  2.1663
   15CHL1    C3 1037   2.613   6.001  10.130  0.1536  0.0366 -1.3126
   15CHL1    H3 1038   2.647   5.900  10.099  4.5086  1.1807 -0.6503
   15CHL1    O3 1039   2.578   6.002  10.268 -0.5369  0.3017  0.5030
   15CHL1   H3' 1040   2.525   6.082  10.279 -0.6720 -0.0513  2.8059
   15CHL1    C4 1041   2.721   6.105  10.098 -0.3358 -0.4327  0.1963
   15CHL1   H4A 1042   2.689   6.203  10.140 -2.8951 -0.7977 -0.7888
   15CHL1   H4B 1043   2.808   6.068  10.156 -0.9044 -1.6277  0.3017
   15CHL1    C5 1044   2.750   6.124   9.947 -0.1988  0.6104  0.4709
   15CHL1    C6 1045   2.874   6.120   9.901 -0.5831  0.7054  0.2765
   15CHL1    H6 1046   2.958   6.097   9.967 -0.7361 -1.7626 -0.3375
   15CHL1    C7 1047   2.906   6.147   9.757  0.1394  0.2304 -0.3873
   15CHL1   H7A 1048   2.971   6.236   9.756  1.2993 -0.6076 -1.1815
   15CHL1   H7B 1049   2.943   6.057   9.703 -0.4055  0.8150 -1.7634
   15CHL1    C8 1050   2.786   6.196   9.670 -0.2489  0.1615 -0.6550
   15CHL1    H8 1051   2.779   6.305   9.689 -1.5658 -0.0531  0.1338
   15CHL1   C14 1052   2.824   6.167   9.525  0.1175 -0.9766 -0.2190
   15CHL1   H14 1053   2.826   6.057   9.511 -1.9412 -1.3205  1.9042
   15CHL1   C15 1054   2.956   6.230   9.467  1.1597 -0.2681  1.3285
   15CHL1  H15A 1055   2.953   6.337   9.497 -0.0082 -0.6323  2.5315
   15CHL1  H15B 1056   3.041   6.177   9.516 -0.0114 -1.8491  1.6708
   15CHL1   C16 1057   2.941   6.214   9.316 -0.2827  0.6231  0.2673
   15CHL1  H16A 1058   2.981   6.304   9.265 -0.2982  0.9175  0.7698
   15CHL1  H16B 1059   2.989   6.123   9.275 -0.5116  0.8609 -0.5348
   15CHL1   C17 1060   2.784   6.192   9.299  0.1550  0.1749  0.0070
   15CHL1   H17 1061   2.776   6.083   9.279 -0.2305  0.5429 -1.9027
   15CHL1   C13 1062   2.717   6.220   9.429  0.6886 -0.8412  0.0376
   15CHL1   C18 1063   2.697   6.375   9.456 -0.1389 -0.6460  1.6203
   15CHL1  H18A 1064   2.792   6.431   9.444 -1.0939  0.2039 -3.0391
   15CHL1  H18B 1065   2.637   6.428   9.379  2.5941  1.8025  1.0804
   15CHL1  H18C 1066   2.645   6.397   9.551 -1.6126  0.6988  0.5246
   15CHL1   C12 1067   2.584   6.139   9.462 -0.2130 -0.2050 -0.2201
   15CHL1  H12A 1068   2.498   6.186   9.410 -0.0923 -0.7683 -0.9266
   15CHL1  H12B 1069   2.590   6.031   9.439 -0.4222 -0.3470  0.3683
   15CHL1   C11 1070   2.545   6.138   9.608 -0.4207 -0.1877 -1.4218
   15CHL1  H11A 1071   2.498   6.238   9.622  3.4065  1.3900  0.8409
   15CHL1  H11B 1072   2.463   6.064   9.624  0.2217 -0.3300  1.4315
   15CHL1    C9 1073   2.657   6.117   9.710 -0.6755 -0.4799 -0.1306
   15CHL1    H9 1074   2.685   6.010   9.699  0.6443 -0.3178  1.4021
   15CHL1   C10 1075   2.622   6.136   9.858 -0.7310 -0.2119 -0.1213
   15CHL1   C19 1076   2.572   6.275   9.867  0.1565 -0.3232 -0.4375
   15CHL1  H19A 1077   2.477   6.275   9.810 -1.7559 -0.9806  2.6637
   15CHL1  H19B 1078   2.536   6.298   9.970 -0.8631  0.3937 -0.9405
   15CHL1  H19C 1079   2.633   6.354   9.819 -0.3796 -0.1531 -0.8372
   15CHL1    C1 1080   2.517   6.034   9.896  0.1398 -0.5551  0.2284
   15CHL1   H1A 1081   2.416   6.045   9.850 -0.1958  0.3097  1.1533
   15CHL1   H1B 1082   2.557   5.936   9.864  0.8969 -0.7534  1.7327
   15CHL1    C2 1083   2.486   6.027  10.047 -0.3611 -0.2596  0.1938
   15CHL1   H2A 1084   2.410   5.947  10.058  0.3205 -0.9069  0.1842
   15CHL1   H2B 1085   2.441   6.125  10.074  0.3514  0.9283 -2.7109
   15CHL1   C20 1086   2.720   6.246   9.173 -1.0042  0.1809  0.1679
   15CHL1   H20 1087   2.739   6.355   9.163  0.7531  0.0654  1.8830
   15CHL1   C21 1088   2.565   6.228   9.153  0.3564  0.0012 -0.0535
   15CHL1  H21A 1089   2.530   6.129   9.186  0.5237  0.0882  0.3904
   15CHL1  H21B 1090   2.526   6.240   9.050  0.5890  1.0930 -0.0240
   15CHL1  H21C 1091   2.501   6.296   9.214 -0.3230 -0.2002 -0.5355
   15CHL1   C22 1092   2.784   6.186   9.049 -0.5426  0.2861  0.0841
   15CHL1  H22A 1093   2.879   6.132   9.066  1.1466  2.8282 -0.9799
   15CHL1  H22B 1094   2.719   6.101   9.017  2.4994 -2.7561  1.6852
   15CHL1   C23 1095   2.789   6.276   8.925 -0.1789 -0.4502  0.5210
   15CHL1  H23A 1096   2.682   6.305   8.914 -0.8301 -2.7406  0.4301
   15CHL1  H23B 1097   2.841   6.367   8.961  0.5866 -0.0126 -1.6550
   15CHL1   C24 1098   2.860   6.218   8.799  0.2596 -0.2754 -0.2701
   15CHL1  H24A 1099   2.970   6.205   8.813  0.3977  0.7060 -0.4297
   15CHL1  H24B 1100   2.817   6.117   8.787  2.0345 -0.8525 -1.9994
   15CHL1   C25 1101   2.831   6.304   8.674  0.1226  0.1168  0.3735
   15CHL1   H25 1102   2.883   6.255   8.589 -0.7630 -0.8484  0.3896
   15CHL1   C26 1103   2.681   6.297   8.647 -0.1737  0.3664 -0.1785
   15CHL1  H26A 1104   2.633   6.385   8.696  1.9380  0.5213  1.6894
   15CHL1  H26B 1105   2.659   6.304   8.538  0.1615 -1.6173 -0.3759
   15CHL1  H26C 1106   2.632   6.207   8.690 -3.2713  2.1298  0.1922
   15CHL1   C27 1107   2.892   6.449   8.676  0.6890 -0.2169 -0.1171
   15CHL1  H27A 1108   2.997   6.455   8.710  0.3288 -1.7527  1.3227
   15CHL1  H27B 1109   2.887   6.492   8.573 -0.4146  0.2213  0.1026
   15CHL1  H27C 1110   2.822   6.516   8.730 -1.8152 -1.9084 -1.1655
   16CHL1    C3 1111   3.638   6.710  10.211 -0.4334  0.4831 -0.8985
   16CHL1    H3 1112   3.649   6.601  10.193  1.0921  0.0252  2.3872
   16CHL1    O3 1113   3.622   6.718  10.352 -0.0108  0.3808  0.5510
   16CHL1   H3' 1114   3.621   6.811  10.376  0.4499 -0.1170  2.6464
   16CHL1    C4 1115   3.778   6.782  10.172  0.0266 -0.5619  0.5627
   16CHL1   H4A 1116   3.771   6.883  10.218 -0.3458  0.3472 -1.4418
   16CHL1   H4B 1117   3.864   6.729  10.218  0.6169 -3.0530 -3.1620
   16CHL1    C5 1118   3.807   6.779  10.023 -0.1437 -0.6348  0.6838
   16CHL1    C6 1119   3.916   6.740   9.957 -0.4873  0.1934 -0.6907
   16CHL1    H6 1120   3.993   6.699  10.025 -2.6984 -0.8270  1.2607
   16CHL1    C7 1121   3.945   6.742   9.809 -0.5619  0.3972 -0.5076
   16CHL1   H7A 1122   4.036   6.802   9.787 -0.4797 -0.3619 -2.2758
   16CHL1   H7B 1123   3.965   6.638   9.778 -0.7136  0.3896 -0.5792
   16CHL1    C8 1124   3.839   6.814   9.733  0.9366  0.3659 -0.4573
   16CHL1    H8 1125   3.864   6.922   9.732  1.3776  0.2837  0.8318
   16CHL1   C14 1126   3.847   6.765   9.584  0.1515 -0.2430 -0.0509
   16CHL1   H14 1127   3.821   6.657   9.581  1.2297 -0.6291  2.7359
   16CHL1   C15 1128   3.982   6.772   9.509 -0.5968 -0.5200 -0.8359
   16CHL1  H15A 1129   4.009   6.876   9.540  0.3715 -1.3232  1.0889
   16CHL1  H15B 1130   4.064   6.709   9.550 -0.3588  0.3299  0.0277
   16CHL1   C16 1131   3.946   6.766   9.360 -0.0955 -0.2169 -0.8951
   16CHL1  H16A 1132   3.981   6.857   9.308  0.0046  2.0784  2.9888
   16CHL1  H16B 1133   3.991   6.673   9.318 -1.5677 -1.1929 -0.3688
   16CHL1   C17 1134   3.785   6.777   9.358  0.5708  0.6420 -0.2078
   16CHL1   H17 1135   3.767   6.667   9.358  2.0790  0.3679 -1.1701
   16CHL1   C13 1136   3.742   6.837   9.493 -0.7561 -0.9774  0.2075
   16CHL1   C18 1137   3.759   6.996   9.486 -0.7913  0.5404 -0.1666
   16CHL1  H18A 1138   3.669   7.034   9.434 -2.1410 -0.7051  1.2343
   16CHL1  H18B 1139   3.768   7.053   9.581  0.9045 -0.6730  0.4375
   16CHL1  H18C 1140   3.847   7.024   9.424  0.0752 -0.2599  0.7006
   16CHL1   C12 1141   3.603   6.806   9.548 -0.2938  0.0986 -0.2305
   16CHL1  H12A 1142   3.530   6.858   9.481 -0.4363 -0.1345 -0.2587
   16CHL1  H12B 1143   3.593   6.695   9.539 -0.3565  0.1040 -0.2264
   16CHL1   C11 1144   3.588   6.850   9.696 -0.0918  0.4322 -0.0481
   16CHL1  H11A 1145   3.591   6.960   9.709  0.3953  0.2387  1.5067
   16CHL1  H11B 1146   3.484   6.827   9.726 -1.5553  2.8436 -2.9799
   16CHL1    C9 1147   3.692   6.792   9.793 -0.3102  0.2965 -0.2186
   16CHL1    H9 1148   3.685   6.681   9.794  1.7083  0.1547 -0.1357
   16CHL1   C10 1149   3.679   6.829   9.941 -0.0838  0.3566  0.9889
   16CHL1   C19 1150   3.691   6.981   9.960 -0.6782  0.4321  0.9732
   16CHL1  H19A 1151   3.691   7.009  10.067 -0.5097 -0.7655  1.2882
   16CHL1  H19B 1152   3.781   7.023   9.910 -0.3889 -1.2596  0.0341
   16CHL1  H19C 1153   3.601   7.030   9.917 -0.5842 -2.8492 -3.3457
   16CHL1    C1 1154   3.537   6.773   9.992  0.6549 -0.7353 -0.2553
   16CHL1   H1A 1155   3.463   6.845   9.950 -0.7464 -0.5120  2.4662
   16CHL1   H1B 1156   3.517   6.670   9.954 -0.6841 -0.2921 -0.7965
   16CHL1    C2 1157   3.521   6.769  10.142  0.3639  0.1580  0.0376
   16CHL1   H2A 1158   3.430   6.708  10.160  0.0393  0.0638 -1.7485
   16CHL1   H2B 1159   3.505   6.874  10.176 -0.7400  0.1241 -0.3374
   16CHL1   C20 1160   3.711   6.828   9.230 -0.4375 -0.3994 -0.1618
   16CHL1   H20 1161   3.685   6.931   9.264  0.0923 -0.5907  0.8382
   16CHL1   C21 1162   3.590   6.737   9.196 -0.2681  0.4452  0.7161
   16CHL1  H21A 1163   3.521   6.788   9.127 -1.0504 -0.3396  0.9049
   16CHL1  H21B 1164   3.524   6.712   9.282 -0.8830 -2.4164 -0.5115
   16CHL1  H21C 1165   3.619   6.644   9.142 -0.4944 -0.6077  2.3380
   16CHL1   C22 1166   3.801   6.851   9.098 -0.6117 -0.0495  0.2023
   16CHL1  H22A 1167   3.870   6.934   9.122 -0.8186 -0.4085  2.1937
   16CHL1  H22B 1168   3.852   6.753   9.098 -1.9576 -0.7686 -0.0889
   16CHL1   C23 1169   3.740   6.873   8.961 -0.2955 -0.6101  0.5695
   16CHL1  H23A 1170   3.818   6.871   8.882 -0.5893 -0.1557  0.2612
   16CHL1  H23B 1171   3.674   6.788   8.930  1.8676 -1.4911 -1.8241
   16CHL1   C24 1172   3.657   7.008   8.959 -0.1585 -0.1803  0.2011
   16CHL1  H24A 1173   3.563   7.017   9.017 -1.9069 -0.3970 -2.5318
   16CHL1  H24B 1174   3.720   7.078   9.018  0.0534  0.7520 -1.0958
   16CHL1   C25 1175   3.636   7.067   8.815  0.2907  0.0939 -0.4668
   16CHL1   H25 1176   3.733   7.057   8.761  0.1505 -0.3735 -0.6376
   16CHL1   C26 1177   3.530   6.979   8.739  0.4489 -0.5247 -0.2331
   16CHL1  H26A 1178   3.513   7.039   8.647  0.5609  1.5316  1.0500
   16CHL1  H26B 1179   3.558   6.875   8.711 -1.3072 -0.8063 -1.0096
   16CHL1  H26C 1180   3.437   6.991   8.799 -1.1943 -1.6898 -2.4938
   16CHL1   C27 1181   3.604   7.219   8.828  0.4243 -0.5804 -0.3781
   16CHL1  H27A 1182   3.688   7.273   8.877  1.9789 -2.5234 -0.8084
   16CHL1  H27B 1183   3.592   7.259   8.725  0.6035 -1.2053 -0.6467
   16CHL1  H27C 1184   3.511   7.242   8.883  1.7435  0.0420  1.6189
   17CHL1    C3 1185   5.869   3.623  10.237 -0.3179 -0.4293 -0.0510
   17CHL1    H3 1186   5.863   3.513  10.256 -1.9111 -0.2395  0.6193
   17CHL1    O3 1187   5.830   3.684  10.357  0.3900  0.1600 -0.3747
   17CHL1   H3' 1188   5.835   3.779  10.342  2.0362  0.4879  2.0330
   17CHL1    C4 1189   6.010   3.668  10.194  0.8766  0.4534 -0.4013
   17CHL1   H4A 1190   6.006   3.778  10.208 -0.7951  0.0243  3.0223
   17CHL1   H4B 1191   6.074   3.621  10.272 -0.5729  0.9140  1.1114
   17CHL1    C5 1192   6.048   3.622  10.058 -0.8515 -0.2725  0.1769
   17CHL1    C6 1193   6.167   3.562  10.039 -1.0664 -0.8139  0.2872
   17CHL1    H6 1194   6.243   3.543  10.116  1.1412 -0.0103 -1.6563
   17CHL1    C7 1195   6.219   3.536   9.902  0.2265 -0.1358  0.3045
   17CHL1   H7A 1196   6.326   3.566   9.896 -0.0400  1.3898  2.5266
   17CHL1   H7B 1197   6.207   3.426   9.892 -1.4445  0.0869 -0.3777
   17CHL1    C8 1198   6.136   3.607   9.788 -0.2315  0.4812  0.0604
   17CHL1    H8 1199   6.169   3.712   9.777 -1.2608  0.7223 -0.8788
   17CHL1   C14 1200   6.162   3.538   9.659 -0.7284 -0.0304 -0.1768
   17CHL1   H14 1201   6.127   3.433   9.671  0.1410 -0.1501  1.4183
   17CHL1   C15 1202   6.311   3.526   9.624  0.6663 -0.3686  0.0772
   17CHL1  H15A 1203   6.372   3.616   9.648 -3.1037  2.1553  0.6448
   17CHL1  H15B 1204   6.360   3.440   9.674 -1.2770 -0.8949  1.1118
   17CHL1   C16 1205   6.304   3.489   9.476 -0.1326 -0.4132  0.2963
   17CHL1  H16A 1206   6.353   3.579   9.433  0.7128 -0.9527  0.1164
   17CHL1  H16B 1207   6.348   3.391   9.449  1.0773  0.4284 -0.8419
   17CHL1   C17 1208   6.162   3.503   9.423 -0.2415  0.4792  0.5107
   17CHL1   H17 1209   6.114   3.403   9.427  0.8154  0.0043  1.6468
   17CHL1   C13 1210   6.096   3.585   9.535  0.3386 -0.1618 -0.3561
   17CHL1   C18 1211   6.129   3.734   9.509  0.5990  0.7047 -0.3529
   17CHL1  H18A 1212   6.082   3.755   9.411 -0.3730  0.0856 -0.0301
   17CHL1  H18B 1213   6.086   3.801   9.586 -0.1492 -0.1810  0.0060
   17CHL1  H18C 1214   6.237   3.758   9.493  0.8201 -1.3981 -2.3353
   17CHL1   C12 1215   5.944   3.567   9.561 -0.2985  0.4184 -0.3335
   17CHL1  H12A 1216   5.888   3.629   9.488 -1.1459 -0.5391 -0.5075
   17CHL1  H12B 1217   5.910   3.462   9.544 -0.0540  0.0551  1.3456
   17CHL1   C11 1218   5.900   3.631   9.698  0.2315  0.2218 -0.0818
   17CHL1  H11A 1219   5.907   3.740   9.679  2.9538  0.3090  1.1472
   17CHL1  H11B 1220   5.792   3.613   9.714  0.0413  1.1029 -0.3424
   17CHL1    C9 1221   5.989   3.593   9.819 -0.0776  0.5328  0.0081
   17CHL1    H9 1222   5.966   3.487   9.845  2.5579 -0.2330 -0.6257
   17CHL1   C10 1223   5.946   3.659   9.951  0.1275 -0.0672  0.0313
   17CHL1   C19 1224   5.949   3.811   9.930  0.0661 -0.5207  0.4934
   17CHL1  H19A 1225   5.933   3.860  10.028  2.3736  1.1215  0.1050
   17CHL1  H19B 1226   6.049   3.846   9.896 -0.7242  0.9865 -0.3264
   17CHL1  H19C 1227   5.865   3.846   9.865  0.2237  0.9428  1.0591
   17CHL1    C1 1228   5.800   3.618   9.997  0.3235 -0.2103 -0.7801
   17CHL1   H1A 1229   5.720   3.650   9.927  0.9359  0.4087 -1.2012
   17CHL1   H1B 1230   5.808   3.508  10.003 -1.9964 -0.4091 -0.8859
   17CHL1    C2 1231   5.754   3.662  10.137  1.0770 -0.4034  0.8950
   17CHL1   H2A 1232   5.657   3.614  10.161  0.0996  0.5029 -1.0815
   17CHL1   H2B 1233   5.748   3.772  10.142 -1.1123 -0.5493  2.1782
   17CHL1   C20 1234   6.150   3.538   9.274  0.0638 -0.2478 -0.3199
   17CHL1   H20 1235   6.203   3.635   9.272  0.0412 -0.1050  2.9272
   17CHL1   C21 1236   6.008   3.548   9.225  0.4579 -0.4252  0.0600
   17CHL1  H21A 1237   5.944   3.624   9.276 -3.1342 -1.2902 -2.9558
   17CHL1  H21B 1238   5.956   3.451   9.240 -0.3357  0.1147  0.8753
   17CHL1  H21C 1239   6.011   3.564   9.115  3.0355  2.0596  0.4347
   17CHL1   C22 1240   6.231   3.434   9.186 -0.0652 -0.8058 -0.7285
   17CHL1  H22A 1241   6.336   3.452   9.218 -0.9349  2.8155  0.4228
   17CHL1  H22B 1242   6.211   3.327   9.206  3.6060 -1.2178  1.1773
   17CHL1   C23 1243   6.232   3.466   9.039  0.1911 -0.1479  0.0076
   17CHL1  H23A 1244   6.135   3.446   8.990 -0.1622  3.1650 -0.7541
   17CHL1  H23B 1245   6.251   3.575   9.029 -2.0508  0.0673 -2.3404
   17CHL1   C24 1246   6.333   3.377   8.959  0.3218  0.0440 -0.1263
   17CHL1  H24A 1247   6.424   3.378   9.022 -0.3966 -1.1698  0.9535
   17CHL1  H24B 1248   6.296   3.272   8.962 -1.2643  0.4264 -3.3788
   17CHL1   C25 1249   6.354   3.428   8.812 -0.0826  0.3043 -0.2036
   17CHL1   H25 1250   6.258   3.434   8.757 -1.4566 -0.0297  2.0774
   17CHL1   C26 1251   6.409   3.573   8.827  0.0578 -0.7024  0.2151
   17CHL1  H26A 1252   6.487   3.601   8.900 -0.7509 -0.8278  1.1409
   17CHL1  H26B 1253   6.440   3.602   8.725 -3.2020  0.4713 -0.5116
   17CHL1  H26C 1254   6.325   3.642   8.852  0.9832 -0.4041  2.6380
   17CHL1   C27 1255   6.460   3.349   8.732  0.1675 -0.6041  0.2314
   17CHL1  H27A 1256   6.550   3.336   8.796 -1.9007 -0.1676  3.3401
   17CHL1  H27B 1257   6.417   3.248   8.718  1.3477 -1.5605  3.0957
   17CHL1  H27C 1258   6.477   3.401   8.636 -0.4610 -1.2626 -0.2447
   18CHL1    C3 1259   4.958   2.718  10.220  0.2521 -0.0242  0.9512
   18CHL1    H3 1260   4.849   2.735  10.210  0.1290 -1.1401  0.3138
   18CHL1    O3 1261   4.989   2.713  10.354  0.2009 -0.2287  0.3222
   18CHL1   H3' 1262   4.968   2.805  10.372  1.6411  0.0503  0.6010
   18CHL1    C4 1263   4.987   2.579  10.169 -0.0772 -0.4829  0.0914
   18CHL1   H4A 1264   5.093   2.559  10.192  0.7173  1.3369 -1.8217
   18CHL1   H4B 1265   4.931   2.503  10.228  1.9303 -2.1416 -0.1155
   18CHL1    C5 1266   4.969   2.566  10.023 -0.6916 -0.7698  0.3442
   18CHL1    C6 1267   4.894   2.472   9.961 -0.1879 -0.5355  0.9461
   18CHL1    H6 1268   4.866   2.387  10.025 -2.7975 -1.6505 -1.5795
   18CHL1    C7 1269   4.859   2.469   9.811  0.0199 -0.3632  0.0067
   18CHL1   H7A 1270   4.879   2.365   9.776 -1.7093 -1.6110  2.5167
   18CHL1   H7B 1271   4.752   2.488   9.788 -0.3667  0.2262  2.1815
   18CHL1    C8 1272   4.952   2.558   9.724 -0.1220  0.6560 -0.7534
   18CHL1    H8 1273   5.048   2.502   9.720 -0.3753 -0.0041  1.5715
   18CHL1   C14 1274   4.877   2.568   9.587 -0.6018  0.3111  0.4098
   18CHL1   H14 1275   4.780   2.621   9.603  0.2239  2.2382 -0.8250
   18CHL1   C15 1276   4.847   2.439   9.516 -0.0717 -0.2716 -0.1836
   18CHL1  H15A 1277   4.939   2.376   9.519  0.2092  0.1871  0.7145
   18CHL1  H15B 1278   4.762   2.384   9.561 -0.5355  0.2437 -0.4328
   18CHL1   C16 1279   4.814   2.484   9.372  0.2503 -0.8825  0.4254
   18CHL1  H16A 1280   4.872   2.415   9.307  1.2849  0.6339 -0.2877
   18CHL1  H16B 1281   4.707   2.481   9.343  0.4809 -2.3457 -0.3437
   18CHL1   C17 1282   4.858   2.627   9.357 -0.2449 -0.1631  0.0541
   18CHL1   H17 1283   4.763   2.682   9.370 -1.1324 -1.4312 -0.9782
   18CHL1   C13 1284   4.946   2.653   9.485  0.2812 -0.2723  0.0108
   18CHL1   C18 1285   5.094   2.596   9.462 -0.1480  0.1179 -0.1175
   18CHL1  H18A 1286   5.148   2.666   9.395 -0.9687 -1.5154 -2.5848
   18CHL1  H18B 1287   5.155   2.586   9.554  0.0061 -0.8313 -0.3178
   18CHL1  H18C 1288   5.092   2.501   9.404  0.8625  0.2966 -0.4555
   18CHL1   C12 1289   4.958   2.797   9.550 -0.2247  0.0075  0.3285
   18CHL1  H12A 1290   5.011   2.879   9.497 -2.6397  2.5716  1.7981
   18CHL1  H12B 1291   4.856   2.836   9.564  0.4976  1.3945  1.9004
   18CHL1   C11 1292   5.038   2.805   9.686  0.0688  0.6150 -0.3095
   18CHL1  H11A 1293   5.142   2.776   9.663 -0.0623  0.3223 -0.5436
   18CHL1  H11B 1294   5.029   2.905   9.732 -3.7494 -0.1138  0.7628
   18CHL1    C9 1295   4.974   2.700   9.791 -0.2938  0.6250  0.8413
   18CHL1    H9 1296   4.870   2.734   9.810 -0.1609  2.4669 -1.6323
   18CHL1   C10 1297   5.029   2.680   9.936  0.2449  0.1115 -0.4861
   18CHL1   C19 1298   5.176   2.668   9.917  0.4968  0.4463  0.7448
   18CHL1  H19A 1299   5.240   2.656  10.007  0.5535  1.1883  0.8119
   18CHL1  H19B 1300   5.198   2.587   9.845 -0.3822  1.3296 -0.5333
   18CHL1  H19C 1301   5.222   2.747   9.854  2.1268 -0.1793  1.1367
   18CHL1    C1 1302   5.007   2.819  10.003  0.1215  0.4869 -0.3899
   18CHL1   H1A 1303   5.070   2.901   9.961  0.9169 -0.5006 -1.1384
   18CHL1   H1B 1304   4.904   2.860  10.001  0.0592  0.4254  1.0572
   18CHL1    C2 1305   5.042   2.819  10.156  0.2730 -0.9549 -0.3073
   18CHL1   H2A 1306   5.023   2.921  10.196 -1.6700 -1.4525  0.0953
   18CHL1   H2B 1307   5.144   2.791  10.187 -0.4242 -1.4655  1.5620
   18CHL1   C20 1308   4.924   2.654   9.212  0.7527 -0.3129  0.6161
   18CHL1   H20 1309   5.025   2.607   9.216  1.2800  0.6845 -0.7165
   18CHL1   C21 1310   4.938   2.806   9.206 -0.0923 -0.1733 -0.1091
   18CHL1  H21A 1311   5.008   2.850   9.280 -0.3009  1.4764 -0.8520
   18CHL1  H21B 1312   4.842   2.860   9.222  0.7114  1.0824  0.5332
   18CHL1  H21C 1313   4.969   2.827   9.101  0.4423 -2.0439 -0.3375
   18CHL1   C22 1314   4.839   2.597   9.089 -0.3069 -0.2910  0.1339
   18CHL1  H22A 1315   4.834   2.487   9.105  1.8229 -0.3703  0.4233
   18CHL1  H22B 1316   4.740   2.647   9.094  1.0363  2.5392 -0.7885
   18CHL1   C23 1317   4.910   2.613   8.948 -0.4227 -0.6917 -0.2327
   18CHL1  H23A 1318   4.918   2.719   8.916 -1.6276 -0.3488  0.5694
   18CHL1  H23B 1319   5.012   2.570   8.962 -0.1549 -0.7462 -2.2305
   18CHL1   C24 1320   4.846   2.534   8.837  0.6102 -0.1527  0.8401
   18CHL1  H24A 1321   4.817   2.439   8.887 -2.6887 -0.4250 -1.4439
   18CHL1  H24B 1322   4.749   2.574   8.800  0.6958 -2.6113 -2.2944
   18CHL1   C25 1323   4.930   2.480   8.720  0.5869  0.1572 -0.3516
   18CHL1   H25 1324   4.868   2.427   8.645  0.2823 -3.4064  2.2758
   18CHL1   C26 1325   5.000   2.598   8.646 -0.3115  0.5414 -0.0672
   18CHL1  H26A 1326   5.076   2.561   8.574 -0.9026 -0.2469 -0.2890
   18CHL1  H26B 1327   4.937   2.667   8.586  0.2823  2.2651  1.2373
   18CHL1  H26C 1328   5.056   2.654   8.724 -0.3567 -0.2298  0.5223
   18CHL1   C27 1329   5.047   2.382   8.760  0.2085  0.2111 -0.1236
   18CHL1  H27A 1330   4.993   2.297   8.806  0.1424 -1.0225 -2.4100
   18CHL1  H27B 1331   5.103   2.347   8.670 -0.1175  2.9739 -1.4637
   18CHL1  H27C 1332   5.117   2.436   8.827 -0.5968 -0.8706  1.5938
   19CHL1    C3 1333   2.390   5.558  10.141 -0.1343 -0.0781  0.3886
   19CHL1    H3 1334   2.481   5.599  10.092 -1.0296 -0.1131 -1.3260
   19CHL1    O3 1335   2.404   5.558  10.278 -0.2819  0.0852  0.2891
   19CHL1   H3' 1336   2.398   5.648  10.310 -1.1793  1.0582 -2.4294
   19CHL1    C4 1337   2.267   5.632  10.087  0.1138 -0.1049  0.3881
   19CHL1   H4A 1338   2.178   5.617  10.152 -0.5387 -1.2997 -0.7547
   19CHL1   H4B 1339   2.288   5.739  10.111 -1.6922  0.1360  0.9214
   19CHL1    C5 1340   2.234   5.622   9.938  0.2208  0.0191  0.1016
   19CHL1    C6 1341   2.209   5.733   9.861  0.7989  0.2834  0.0959
   19CHL1    H6 1342   2.220   5.836   9.897  1.8834  0.5661 -1.0026
   19CHL1    C7 1343   2.180   5.724   9.713 -0.0907 -0.0052 -0.9956
   19CHL1   H7A 1344   2.090   5.782   9.681 -0.5269  0.0944  0.3900
   19CHL1   H7B 1345   2.274   5.745   9.658  2.0590 -2.1236  1.7734
   19CHL1    C8 1346   2.141   5.576   9.675  0.4076 -0.2026  0.5957
   19CHL1    H8 1347   2.041   5.562   9.720 -0.4755  2.1070 -0.5766
   19CHL1   C14 1348   2.142   5.561   9.526 -0.5212 -0.1785  0.1929
   19CHL1   H14 1349   2.247   5.577   9.493  0.2001  0.3089  2.5877
   19CHL1   C15 1350   2.071   5.664   9.449  0.1576 -0.5591  0.3177
   19CHL1  H15A 1351   1.970   5.693   9.487 -0.0361 -2.3647  1.2263
   19CHL1  H15B 1352   2.120   5.763   9.460 -2.1026  0.5449  0.9037
   19CHL1   C16 1353   2.069   5.606   9.309  0.3087 -0.0042  0.8630
   19CHL1  H16A 1354   1.971   5.626   9.262  1.9291  0.7580 -2.3459
   19CHL1  H16B 1355   2.143   5.646   9.237 -2.1849  0.6157 -1.4054
   19CHL1   C17 1356   2.094   5.448   9.326 -0.0667  0.2825  0.4240
   19CHL1   H17 1357   2.203   5.434   9.307 -0.3523 -0.3230 -0.8622
   19CHL1   C13 1358   2.091   5.422   9.478 -0.2298 -0.0045 -0.4690
   19CHL1   C18 1359   1.945   5.396   9.516  0.4071 -0.2452  0.5177
   19CHL1  H18A 1360   1.916   5.378   9.622  3.0186  0.9788  1.4908
   19CHL1  H18B 1361   1.878   5.479   9.486  0.8305 -1.2069 -3.4134
   19CHL1  H18C 1362   1.903   5.315   9.454  2.2098 -0.5544 -0.3529
   19CHL1   C12 1363   2.190   5.316   9.531  0.7231  0.0192 -0.6099
   19CHL1  H12A 1364   2.152   5.216   9.498 -1.0286 -0.6837  3.2342
   19CHL1  H12B 1365   2.280   5.337   9.469 -0.0933 -2.7124 -2.8322
   19CHL1   C11 1366   2.205   5.328   9.683 -0.2281  0.1181  0.6417
   19CHL1  H11A 1367   2.110   5.283   9.719 -1.2346  0.0114 -2.0672
   19CHL1  H11B 1368   2.284   5.257   9.715  1.6801  0.5457 -2.8617
   19CHL1    C9 1369   2.229   5.467   9.740  0.4351 -0.3062  0.2467
   19CHL1    H9 1370   2.338   5.481   9.723  0.5378 -0.2978  0.9029
   19CHL1   C10 1371   2.227   5.475   9.888  0.0758 -0.5850 -1.2037
   19CHL1   C19 1372   2.089   5.422   9.941 -0.0731  0.1812  0.3644
   19CHL1  H19A 1373   2.093   5.440  10.051  0.5484 -0.1909  0.4039
   19CHL1  H19B 1374   1.999   5.476   9.905 -0.4512 -0.7121 -0.0449
   19CHL1  H19C 1375   2.077   5.312   9.924 -1.1350  0.2372  0.7081
   19CHL1    C1 1376   2.346   5.395   9.953 -0.0531 -0.1233  0.3655
   19CHL1   H1A 1377   2.339   5.285   9.936 -3.4409  0.2008 -0.5421
   19CHL1   H1B 1378   2.446   5.429   9.917  0.2695 -0.4828  0.8981
   19CHL1    C2 1379   2.363   5.407  10.106  0.3739 -0.2143 -0.0363
   19CHL1   H2A 1380   2.447   5.347  10.146 -1.1665 -1.2446  1.7261
   19CHL1   H2B 1381   2.272   5.372  10.159 -0.4928  1.2650 -0.5171
   19CHL1   C20 1382   2.024   5.355   9.222  0.0021 -0.1995  0.2020
   19CHL1   H20 1383   1.914   5.355   9.239 -0.2585 -1.9853 -1.2662
   19CHL1   C21 1384   2.067   5.209   9.244  0.4179  0.8482 -0.2845
   19CHL1  H21A 1385   2.026   5.175   9.341 -0.2461  0.0106 -0.8471
   19CHL1  H21B 1386   2.178   5.203   9.247  0.3802 -1.4948 -2.0435
   19CHL1  H21C 1387   2.032   5.136   9.168  0.2926  0.0455  0.5399
   19CHL1   C22 1388   2.057   5.392   9.069  0.1808  0.2677  0.8601
   19CHL1  H22A 1389   2.056   5.501   9.046 -2.4596  0.0274 -0.4711
   19CHL1  H22B 1390   2.156   5.344   9.059 -0.8309 -1.9378  1.0840
   19CHL1   C23 1391   1.961   5.319   8.974 -0.3551 -0.4800 -0.1543
   19CHL1  H23A 1392   1.939   5.219   9.016  0.1061 -1.1611 -1.5081
   19CHL1  H23B 1393   1.860   5.364   8.982 -0.0511  0.2343 -0.2533
   19CHL1   C24 1394   2.015   5.313   8.829  0.0514 -0.0314 -0.1252
   19CHL1  H24A 1395   2.029   5.419   8.797  3.6272  0.0422  1.4401
   19CHL1  H24B 1396   2.119   5.275   8.830 -0.4228 -1.3647 -0.3954
   19CHL1   C25 1397   1.937   5.231   8.721 -0.2593 -0.0567  0.2161
   19CHL1   H25 1398   1.828   5.229   8.742 -0.5974  1.2093 -1.3311
   19CHL1   C26 1399   1.949   5.312   8.588 -0.4940 -0.3075 -0.6925
   19CHL1  H26A 1400   1.900   5.410   8.606 -1.4155 -1.3800  3.0510
   19CHL1  H26B 1401   2.055   5.325   8.558 -0.6226  2.7638  0.0535
   19CHL1  H26C 1402   1.892   5.261   8.508 -0.8105  1.0596 -1.3564
   19CHL1   C27 1403   1.989   5.089   8.709  0.0423 -0.4162  0.1935
   19CHL1  H27A 1404   1.911   5.035   8.651  1.4109 -2.2777  0.0627
   19CHL1  H27B 1405   2.086   5.092   8.655 -0.5303  2.1230 -0.7815
   19CHL1  H27C 1406   1.982   5.053   8.814 -1.0265  1.6738  0.8693
   20CHL1    C3 1407   4.514   6.454  10.433  0.4135  0.2716  0.1000
   20CHL1    H3 1408   4.623   6.457  10.416  0.6359  1.4068  1.6682
   20CHL1    O3 1409   4.496   6.433  10.575  0.4308 -0.7298  0.5639
   20CHL1   H3' 1410   4.405   6.423  10.604  0.3117 -0.4674  0.2813
   20CHL1    C4 1411   4.461   6.593  10.397 -0.2692  0.0560  0.3629
   20CHL1   H4A 1412   4.357   6.612  10.431 -1.0204 -0.1866 -1.7180
   20CHL1   H4B 1413   4.518   6.673  10.448  0.3343  0.0324 -0.2739
   20CHL1    C5 1414   4.481   6.605  10.246  0.5009 -0.3368 -1.0500
   20CHL1    C6 1415   4.567   6.699  10.190 -0.3393 -0.3396 -0.3291
   20CHL1    H6 1416   4.627   6.761  10.257 -1.7824 -1.3233  1.9168
   20CHL1    C7 1417   4.586   6.719  10.051 -1.0184  0.3578 -0.2955
   20CHL1   H7A 1418   4.573   6.829  10.040 -2.3205  0.1929 -0.5910
   20CHL1   H7B 1419   4.686   6.681  10.023 -0.2550  1.8571  0.3478
   20CHL1    C8 1420   4.478   6.649   9.965 -0.3732 -0.2400 -0.3209
   20CHL1    H8 1421   4.382   6.704   9.980 -1.4033 -1.7505 -1.2700
   20CHL1   C14 1422   4.512   6.660   9.819  0.7218 -0.8902 -0.4403
   20CHL1   H14 1423   4.606   6.603   9.805  0.9368 -0.4677 -0.7181
   20CHL1   C15 1424   4.534   6.795   9.757  0.7470  0.0541 -0.0718
   20CHL1  H15A 1425   4.454   6.868   9.784 -1.4882 -1.7841 -1.4982
   20CHL1  H15B 1426   4.631   6.844   9.774  0.6189  0.2807  0.0108
   20CHL1   C16 1427   4.526   6.770   9.606 -0.2184  0.4031  0.0626
   20CHL1  H16A 1428   4.440   6.831   9.570  1.1844  2.3101 -0.1233
   20CHL1  H16B 1429   4.621   6.795   9.555 -0.8133 -0.2752 -1.4118
   20CHL1   C17 1430   4.483   6.621   9.590 -0.0454  0.7729  0.4174
   20CHL1   H17 1431   4.576   6.561   9.579  1.1200  2.4401  0.8819
   20CHL1   C13 1432   4.414   6.584   9.727  0.1064 -0.5511  0.1009
   20CHL1   C18 1433   4.272   6.645   9.731  0.3927  0.2745  0.4087
   20CHL1  H18A 1434   4.195   6.602   9.663  0.4835  0.7797 -0.0179
   20CHL1  H18B 1435   4.222   6.646   9.830 -1.0466  0.3424 -0.2945
   20CHL1  H18C 1436   4.276   6.749   9.690  0.6986 -0.0923 -0.5019
   20CHL1   C12 1437   4.401   6.439   9.764 -0.7939  0.2674 -0.1883
   20CHL1  H12A 1438   4.328   6.380   9.704 -0.4835 -1.3513  0.9993
   20CHL1  H12B 1439   4.501   6.392   9.756 -0.8535 -0.0019  0.6383
   20CHL1   C11 1440   4.362   6.425   9.916 -0.6825  0.0124  0.2409
   20CHL1  H11A 1441   4.259   6.464   9.926 -0.6084  0.7664 -1.6603
   20CHL1  H11B 1442   4.350   6.321   9.954 -1.3163  0.6125  1.7044
   20CHL1    C9 1443   4.451   6.503  10.016 -0.2223 -0.6077 -0.7376
   20CHL1    H9 1444   4.549   6.450  10.026 -0.0550 -0.1551 -0.0008
   20CHL1   C10 1445   4.404   6.505  10.163 -0.2637  0.9200 -0.4003
   20CHL1   C19 1446   4.256   6.553  10.173 -0.1939  0.0176  0.4010
   20CHL1  H19A 1447   4.181   6.482  10.132 -0.4475  0.2176  0.5193
   20CHL1  H19B 1448   4.224   6.570  10.278 -1.1270 -0.3721  0.1810
   20CHL1  H19C 1449   4.250   6.646  10.113  1.1028 -1.3193 -1.8691
   20CHL1    C1 1450   4.431   6.352  10.212  0.2832 -0.5070 -0.4702
   20CHL1   H1A 1451   4.353   6.286  10.169 -0.7707 -1.4344  2.7580
   20CHL1   H1B 1452   4.535   6.325  10.182 -0.0799 -2.8796  0.3357
   20CHL1    C2 1453   4.441   6.339  10.367  0.6309  0.4115 -0.0886
   20CHL1   H2A 1454   4.492   6.244  10.394 -0.1345 -0.3206 -1.1758
   20CHL1   H2B 1455   4.339   6.322  10.408  0.9622  2.1177  1.5076
   20CHL1   C20 1456   4.402   6.606   9.460 -0.0271 -0.3372 -0.0241
   20CHL1   H20 1457   4.306   6.661   9.474  1.3236  1.3330  3.1202
   20CHL1   C21 1458   4.366   6.460   9.428 -0.2816 -0.0480 -0.3007
   20CHL1  H21A 1459   4.455   6.401   9.395 -1.1889 -1.9068  0.4608
   20CHL1  H21B 1460   4.288   6.466   9.349 -0.1968 -0.1787 -0.3952
   20CHL1  H21C 1461   4.312   6.411   9.512  0.8025 -0.9382 -0.0970
   20CHL1   C22 1462   4.469   6.680   9.334  0.7503 -0.5106 -0.2312
   20CHL1  H22A 1463   4.480   6.786   9.366  2.2990 -1.4305  2.4748
   20CHL1  H22B 1464   4.569   6.637   9.310  0.9431  1.1004 -2.5181
   20CHL1   C23 1465   4.388   6.666   9.200  0.4970 -0.0898 -0.4448
   20CHL1  H23A 1466   4.385   6.557   9.177  0.2919 -0.0286 -0.7131
   20CHL1  H23B 1467   4.286   6.700   9.229  1.4833  1.5161  1.2390
   20CHL1   C24 1468   4.421   6.755   9.074 -0.1417 -0.1949 -0.6182
   20CHL1  H24A 1469   4.422   6.862   9.104 -1.4365  0.6729 -3.5104
   20CHL1  H24B 1470   4.521   6.741   9.029  0.4529  0.9376  0.3366
   20CHL1   C25 1471   4.314   6.732   8.962  0.3091  0.3891  0.8267
   20CHL1   H25 1472   4.216   6.769   9.000 -0.2225  0.3324 -0.4384
   20CHL1   C26 1473   4.351   6.822   8.841  0.0070  0.4697  0.1962
   20CHL1  H26A 1474   4.451   6.802   8.798 -0.2823  0.8214 -0.6361
   20CHL1  H26B 1475   4.279   6.820   8.757  1.8260  2.4006 -1.4575
   20CHL1  H26C 1476   4.361   6.927   8.876  0.8234  0.7726 -0.9073
   20CHL1   C27 1477   4.310   6.588   8.903  0.4358 -0.5440 -0.4207
   20CHL1  H27A 1478   4.417   6.558   8.897  0.8595  0.5717  1.2347
   20CHL1  H27B 1479   4.269   6.530   8.988 -1.0111  0.2494 -0.5623
   20CHL1  H27C 1480   4.261   6.565   8.806 -0.6910 -2.0153  0.5015
   21CHL1    C3 1481   4.639   2.605  10.408 -0.3340 -0.3163 -0.3221
   21CHL1    H3 1482   4.745   2.619  10.377 -0.4129  0.9539 -0.0658
   21CHL1    O3 1483   4.624   2.594  10.546 -0.6626 -0.2741  0.1792
   21CHL1   H3' 1484   4.529   2.591  10.555 -0.7481 -1.7000 -1.1103
   21CHL1    C4 1485   4.577   2.746  10.364  0.1775 -0.7653  0.0883
   21CHL1   H4A 1486   4.476   2.758  10.410  1.1335  1.0106  1.8254
   21CHL1   H4B 1487   4.647   2.826  10.398 -1.1771  1.5304 -2.3435
   21CHL1    C5 1488   4.557   2.747  10.213 -0.4276  0.2954 -0.2875
   21CHL1    C6 1489   4.597   2.850  10.136  0.3899 -0.4515 -0.0964
   21CHL1    H6 1490   4.635   2.938  10.190 -0.4591 -0.4229  0.4656
   21CHL1    C7 1491   4.590   2.848   9.990 -0.1600  0.9028 -0.1484
   21CHL1   H7A 1492   4.567   2.945   9.942 -0.3131 -0.5850 -3.2197
   21CHL1   H7B 1493   4.693   2.827   9.954 -0.8691  0.4016 -1.9485
   21CHL1    C8 1494   4.490   2.750   9.925 -0.0792  0.2420  0.1225
   21CHL1    H8 1495   4.383   2.777   9.943  0.8117  4.1820 -0.1599
   21CHL1   C14 1496   4.502   2.733   9.773  0.0723  0.6905 -1.0056
   21CHL1   H14 1497   4.610   2.718   9.752  0.0327  0.4232 -1.0131
   21CHL1   C15 1498   4.465   2.859   9.697  0.1079 -0.1145  0.2017
   21CHL1  H15A 1499   4.367   2.901   9.730  0.0029  1.2309 -1.7561
   21CHL1  H15B 1500   4.543   2.938   9.695 -0.4537  0.4710  1.4009
   21CHL1   C16 1501   4.436   2.802   9.550  0.2434  0.5284 -0.8083
   21CHL1  H16A 1502   4.334   2.831   9.517 -0.9508 -0.7958  1.5096
   21CHL1  H16B 1503   4.499   2.843   9.469 -0.3568  1.2065 -0.9333
   21CHL1   C17 1504   4.436   2.648   9.566 -0.6301 -0.5878 -0.7838
   21CHL1   H17 1505   4.539   2.614   9.544  0.1605  1.0592  0.2652
   21CHL1   C13 1506   4.413   2.627   9.712  0.3254  0.5340 -0.1547
   21CHL1   C18 1507   4.256   2.644   9.740  0.0231 -0.5730 -0.0996
   21CHL1  H18A 1508   4.220   2.736   9.689  0.4652 -0.4372 -0.1749
   21CHL1  H18B 1509   4.208   2.554   9.697 -2.5255  0.7138 -0.0282
   21CHL1  H18C 1510   4.233   2.655   9.848  1.5498 -1.7498  0.3546
   21CHL1   C12 1511   4.448   2.493   9.777  0.5881 -0.2900  0.8945
   21CHL1  H12A 1512   4.374   2.416   9.745  1.3980 -1.1585  1.0930
   21CHL1  H12B 1513   4.546   2.465   9.734  0.7294  1.3898  0.0627
   21CHL1   C11 1514   4.436   2.494   9.928  0.3812 -0.0503 -1.0364
   21CHL1  H11A 1515   4.330   2.490   9.962  0.0834 -1.3952 -2.0882
   21CHL1  H11B 1516   4.487   2.402   9.964 -2.6102 -0.6399  1.9340
   21CHL1    C9 1517   4.509   2.609   9.998 -0.9302  0.0467  0.3896
   21CHL1    H9 1518   4.618   2.590   9.983 -1.2025 -1.6414  0.4739
   21CHL1   C10 1519   4.502   2.612  10.149 -0.5067 -0.0833 -0.6213
   21CHL1   C19 1520   4.354   2.597  10.191  0.6169  0.1206 -0.5779
   21CHL1  H19A 1521   4.321   2.491  10.181 -0.4934  0.3296  0.8718
   21CHL1  H19B 1522   4.340   2.630  10.296 -0.8689 -0.6449 -0.5243
   21CHL1  H19C 1523   4.278   2.648  10.128 -0.0731  0.4870  0.5420
   21CHL1    C1 1524   4.593   2.502  10.207 -0.2121 -0.3072  0.0374
   21CHL1   H1A 1525   4.576   2.412  10.144 -0.3702  1.2437 -2.2083
   21CHL1   H1B 1526   4.699   2.523  10.184 -0.4868 -0.1458 -1.1134
   21CHL1    C2 1527   4.575   2.484  10.351  0.0998  0.4994  0.3710
   21CHL1   H2A 1528   4.628   2.391  10.382  1.1380  0.7345 -0.6521
   21CHL1   H2B 1529   4.469   2.468  10.379 -0.4117  1.8006 -0.7960
   21CHL1   C20 1530   4.352   2.574   9.456 -0.2035  0.4361  0.1186
   21CHL1   H20 1531   4.245   2.569   9.484 -0.5172 -2.4631 -1.3790
   21CHL1   C21 1532   4.396   2.429   9.436  0.9011  0.4047  0.9460
   21CHL1  H21A 1533   4.330   2.362   9.377  1.5593  0.1313  0.5072
   21CHL1  H21B 1534   4.394   2.389   9.539  0.8781 -3.3896 -0.4353
   21CHL1  H21C 1535   4.499   2.429   9.395  0.9922 -0.3900  1.1788
   21CHL1   C22 1536   4.353   2.634   9.314 -0.3323  0.8760  0.4717
   21CHL1  H22A 1537   4.287   2.570   9.253  0.4610 -0.4933  1.0271
   21CHL1  H22B 1538   4.295   2.728   9.329  0.6504  1.3529  1.3132
   21CHL1   C23 1539   4.480   2.676   9.232  0.2654  0.0895  0.2075
   21CHL1  H23A 1540   4.553   2.719   9.304  2.0250 -3.0370  0.3648
   21CHL1  H23B 1541   4.539   2.587   9.202 -1.3274 -0.2477 -2.0421
   21CHL1   C24 1542   4.460   2.764   9.107  0.4350 -0.2266 -0.6088
   21CHL1  H24A 1543   4.550   2.763   9.043  0.4848 -2.0820 -0.5549
   21CHL1  H24B 1544   4.380   2.717   9.045  0.0222 -0.4400  0.0765
   21CHL1   C25 1545   4.428   2.907   9.163  0.4874 -0.1095  0.8670
   21CHL1   H25 1546   4.352   2.908   9.244  1.2967  0.3631  1.6146
   21CHL1   C26 1547   4.551   2.987   9.199  0.1551  0.1981 -0.1923
   21CHL1  H26A 1548   4.545   3.082   9.257  0.2569 -0.1613  0.4030
   21CHL1  H26B 1549   4.621   2.928   9.262  2.1319  0.7490 -1.8030
   21CHL1  H26C 1550   4.620   2.997   9.112  0.0898  1.0548 -0.1528
   21CHL1   C27 1551   4.369   2.997   9.046  0.2114 -0.0035  0.3808
   21CHL1  H27A 1552   4.450   3.020   8.974 -1.0377 -0.7257 -1.2916
   21CHL1  H27B 1553   4.285   2.943   8.997  0.0839  0.5382 -0.0018
   21CHL1  H27C 1554   4.333   3.095   9.085  0.9694  0.0062  1.0507
   22CHL1    C3 1555   3.914   4.066  10.022 -0.4723 -0.4500 -0.2886
   22CHL1    H3 1556   3.805   4.067  10.044 -0.7441 -1.3549 -1.6135
   22CHL1    O3 1557   3.982   3.996  10.133 -0.2640 -0.1878  0.4989
   22CHL1   H3' 1558   4.066   4.041  10.145 -0.8617  0.8909  0.7087
   22CHL1    C4 1559   3.942   3.987   9.894  0.3103  0.3161  0.1207
   22CHL1   H4A 1560   4.044   3.943   9.894  0.1701 -0.1407  3.5807
   22CHL1   H4B 1561   3.877   3.897   9.896  0.7619 -0.0463 -1.3058
   22CHL1    C5 1562   3.915   4.066   9.764  0.2022  1.4450 -0.2730
   22CHL1    C6 1563   3.832   4.025   9.665 -0.1638 -0.7387  0.0040
   22CHL1    H6 1564   3.783   3.927   9.670 -0.8192 -0.4728 -1.1534
   22CHL1    C7 1565   3.810   4.102   9.536  0.0761 -0.1904  0.1803
   22CHL1   H7A 1566   3.788   4.035   9.450  0.3446  1.0665 -0.8680
   22CHL1   H7B 1567   3.711   4.150   9.551 -1.3629 -2.0348 -2.9450
   22CHL1    C8 1568   3.918   4.203   9.497  0.1868 -0.5188  0.4415
   22CHL1    H8 1569   4.007   4.147   9.462  0.6829 -0.7283  2.0057
   22CHL1   C14 1570   3.870   4.292   9.385 -0.0173 -0.2696 -0.1046
   22CHL1   H14 1571   3.796   4.363   9.428 -1.2710 -1.0768 -0.8920
   22CHL1   C15 1572   3.816   4.231   9.259 -0.1170 -1.0501 -0.8227
   22CHL1  H15A 1573   3.881   4.157   9.206  3.0023  0.6648  0.4557
   22CHL1  H15B 1574   3.723   4.174   9.276 -0.7096  0.1036 -0.1690
   22CHL1   C16 1575   3.805   4.348   9.169  0.7921 -0.2868  0.4781
   22CHL1  H16A 1576   3.855   4.329   9.072 -1.7694 -2.2615 -0.5091
   22CHL1  H16B 1577   3.698   4.372   9.151  0.9974 -0.4220 -0.9624
   22CHL1   C17 1578   3.879   4.473   9.236 -0.2640 -0.2310 -0.0512
   22CHL1   H17 1579   3.808   4.539   9.289  0.4492  2.4066 -2.2591
   22CHL1   C13 1580   3.966   4.403   9.345  0.0196 -0.3239  0.6037
   22CHL1   C18 1581   4.098   4.351   9.277 -0.4452  0.1458  1.0357
   22CHL1  H18A 1582   4.071   4.317   9.174  1.0561 -0.4715  0.8390
   22CHL1  H18B 1583   4.177   4.428   9.279  0.1658 -0.5066  2.6322
   22CHL1  H18C 1584   4.152   4.269   9.329 -1.3573 -0.6828  0.7119
   22CHL1   C12 1585   4.002   4.490   9.473 -0.4204 -0.6971 -0.4194
   22CHL1  H12A 1586   4.078   4.564   9.439  1.0559 -2.1941 -0.4447
   22CHL1  H12B 1587   3.911   4.548   9.499  1.0185  1.6374 -0.4276
   22CHL1   C11 1588   4.058   4.403   9.582  0.5985 -0.6104  0.5976
   22CHL1  H11A 1589   4.157   4.364   9.550  0.3192 -0.0496 -0.9956
   22CHL1  H11B 1590   4.075   4.458   9.676 -3.1369  1.4543  0.1430
   22CHL1    C9 1591   3.954   4.286   9.620 -0.4906 -0.2576 -0.1250
   22CHL1    H9 1592   3.859   4.337   9.645  0.6150  2.6878 -1.7644
   22CHL1   C10 1593   3.990   4.201   9.749 -0.3284  0.5300 -0.5200
   22CHL1   C19 1594   4.142   4.179   9.738 -0.1877 -0.2928 -0.4355
   22CHL1  H19A 1595   4.167   4.124   9.644  2.8457  0.0934  0.0832
   22CHL1  H19B 1596   4.192   4.278   9.744  0.8225 -0.8829  1.3393
   22CHL1  H19C 1597   4.173   4.129   9.833 -1.0637  0.7317  0.3999
   22CHL1    C1 1598   3.947   4.286   9.877 -0.0699  0.1936 -0.4411
   22CHL1   H1A 1599   4.001   4.383   9.878  2.6554 -1.2747  0.2826
   22CHL1   H1B 1600   3.841   4.311   9.855 -0.3996 -0.4440  0.3755
   22CHL1    C2 1601   3.968   4.210  10.013  0.7725  0.0707 -0.0104
   22CHL1   H2A 1602   3.928   4.270  10.098 -0.1172 -0.7197  0.1368
   22CHL1   H2B 1603   4.077   4.214  10.035  0.9651  0.4799 -1.0351
   22CHL1   C20 1604   3.948   4.561   9.133  0.3653 -0.4233  0.5056
   22CHL1   H20 1605   4.025   4.510   9.072  0.0104 -0.1508 -0.1752
   22CHL1   C21 1606   4.020   4.681   9.203  0.2911 -0.0521  0.1268
   22CHL1  H21A 1607   4.056   4.756   9.129 -3.4824  0.6139 -1.1118
   22CHL1  H21B 1608   4.107   4.648   9.264 -0.2522 -0.9944  0.4025
   22CHL1  H21C 1609   3.953   4.735   9.273  0.1490 -1.4592  1.1077
   22CHL1   C22 1610   3.844   4.616   9.025  0.3248 -0.2709 -0.1002
   22CHL1  H22A 1611   3.812   4.523   8.973 -0.0818  0.7612 -1.7064
   22CHL1  H22B 1612   3.751   4.654   9.072 -0.0741 -1.4002  0.0349
   22CHL1   C23 1613   3.901   4.711   8.920 -0.0051 -0.0303 -0.8387
   22CHL1  H23A 1614   3.904   4.815   8.958 -0.0577 -0.1012 -0.6371
   22CHL1  H23B 1615   3.999   4.669   8.887  0.1381 -0.3726  0.0158
   22CHL1   C24 1616   3.813   4.713   8.788 -0.6359  0.2160 -0.4075
   22CHL1  H24A 1617   3.803   4.609   8.751 -1.1657  0.8208 -1.9897
   22CHL1  H24B 1618   3.708   4.736   8.815 -1.0764  1.8645 -3.3839
   22CHL1   C25 1619   3.852   4.803   8.666  0.5805  0.4095  0.1526
   22CHL1   H25 1620   3.962   4.787   8.668  0.5891  0.5395  0.8709
   22CHL1   C26 1621   3.820   4.752   8.529 -0.3506 -0.9128  0.2365
   22CHL1  H26A 1622   3.712   4.766   8.508  0.2914  1.6184 -1.7694
   22CHL1  H26B 1623   3.886   4.806   8.456  0.9236 -1.5377  0.9042
   22CHL1  H26C 1624   3.854   4.646   8.523 -3.0571 -1.9519  2.4181
   22CHL1   C27 1625   3.827   4.957   8.674  0.4737 -0.1969  0.1430
   22CHL1  H27A 1626   3.891   4.987   8.760  2.3148 -2.7388 -0.2771
   22CHL1  H27B 1627   3.858   5.012   8.582 -0.4711  1.5980  0.8754
   22CHL1  H27C 1628   3.721   4.973   8.702 -0.3728 -1.8017 -2.0095
   23CHL1    C3 1629   0.651   5.148  10.183 -0.0090  0.7350  0.4786
   23CHL1    H3 1630   0.577   5.069  10.155  1.8766  0.0033 -2.7288
   23CHL1    O3 1631   0.696   5.134  10.317  0.5825  0.2389  0.3922
   23CHL1   H3' 1632   0.743   5.214  10.341 -0.6168  1.3706 -0.9306
   23CHL1    C4 1633   0.762   5.133  10.079 -0.0749 -0.1171  0.0106
   23CHL1   H4A 1634   0.839   5.212  10.095 -0.0495 -0.2208  0.4092
   23CHL1   H4B 1635   0.822   5.042  10.100  1.7493  1.3070  1.1824
   23CHL1    C5 1636   0.715   5.129   9.933 -0.1693 -0.2638  0.1329
   23CHL1    C6 1637   0.734   5.027   9.850  0.0431 -0.3591 -0.0781
   23CHL1    H6 1638   0.792   4.939   9.879 -0.2716  0.2383  2.4711
   23CHL1    C7 1639   0.682   5.012   9.711  0.9217  0.2745 -0.2006
   23CHL1   H7A 1640   0.755   4.978   9.635  0.9800  0.1463 -0.0881
   23CHL1   H7B 1641   0.590   4.950   9.706  1.4185 -0.5083  0.4416
   23CHL1    C8 1642   0.637   5.154   9.658 -0.0640  0.5140  0.8901
   23CHL1    H8 1643   0.727   5.210   9.624  0.4809 -1.4029 -0.9189
   23CHL1   C14 1644   0.553   5.137   9.537 -0.1362 -0.7412  0.7539
   23CHL1   H14 1645   0.459   5.081   9.557 -0.5256 -0.5411 -0.4436
   23CHL1   C15 1646   0.607   5.045   9.423  0.2221 -0.0926  0.6832
   23CHL1  H15A 1647   0.717   5.062   9.418  0.5929 -2.6482 -0.8830
   23CHL1  H15B 1648   0.581   4.940   9.450  0.6980 -1.0782 -2.5561
   23CHL1   C16 1649   0.537   5.105   9.304 -0.7400  0.3484 -0.5098
   23CHL1  H16A 1650   0.616   5.154   9.242  0.5311 -4.0150 -2.5694
   23CHL1  H16B 1651   0.484   5.031   9.241  0.3928 -0.1847 -0.8648
   23CHL1   C17 1652   0.443   5.216   9.350  0.2779 -0.9916  0.1346
   23CHL1   H17 1653   0.353   5.166   9.393  0.3736 -0.9840  0.3415
   23CHL1   C13 1654   0.501   5.274   9.480 -0.3591  0.4180 -0.6222
   23CHL1   C18 1655   0.623   5.372   9.439 -0.2212 -0.1083 -0.2520
   23CHL1  H18A 1656   0.681   5.324   9.358  2.0707  0.8627  0.7673
   23CHL1  H18B 1657   0.581   5.469   9.404 -2.1738 -0.8372 -0.0063
   23CHL1  H18C 1658   0.694   5.391   9.522  2.2043 -1.8028 -1.8756
   23CHL1   C12 1659   0.412   5.340   9.584  0.2316 -0.2512  0.0339
   23CHL1  H12A 1660   0.376   5.436   9.541  1.2518 -0.2588 -0.8742
   23CHL1  H12B 1661   0.332   5.267   9.605  1.0584 -0.9264  0.8762
   23CHL1   C11 1662   0.492   5.364   9.707  0.6118 -0.1692 -0.1692
   23CHL1  H11A 1663   0.574   5.438   9.696  1.8735 -1.5311 -0.1683
   23CHL1  H11B 1664   0.420   5.411   9.777  0.4281 -2.2545  1.0824
   23CHL1    C9 1665   0.560   5.237   9.762 -0.2265  0.3202  0.5860
   23CHL1    H9 1666   0.480   5.163   9.784  1.3356 -1.8353 -0.8042
   23CHL1   C10 1667   0.629   5.256   9.895  0.2831 -0.2252 -0.6532
   23CHL1   C19 1668   0.723   5.380   9.890  0.2975 -0.3403  0.3947
   23CHL1  H19A 1669   0.786   5.392   9.981  0.0294  0.4606  0.4807
   23CHL1  H19B 1670   0.794   5.376   9.805 -0.7910  1.6608 -0.6200
   23CHL1  H19C 1671   0.668   5.476   9.882 -0.2483 -0.9842 -5.9896
   23CHL1    C1 1672   0.521   5.283  10.002  0.1552  0.0902 -0.1437
   23CHL1   H1A 1673   0.486   5.387   9.985 -3.1060 -0.7520  1.0455
   23CHL1   H1B 1674   0.438   5.209   9.999  0.4432 -0.2215 -0.4209
   23CHL1    C2 1675   0.570   5.274  10.147  0.6020  0.1143 -0.1321
   23CHL1   H2A 1676   0.486   5.268  10.219 -0.0255  0.5921 -0.8219
   23CHL1   H2B 1677   0.646   5.353  10.167  1.6991 -0.6431 -1.2135
   23CHL1   C20 1678   0.390   5.315   9.254 -0.3313 -0.0326 -0.7928
   23CHL1   H20 1679   0.458   5.403   9.258  1.2471 -1.3210  3.1088
   23CHL1   C21 1680   0.247   5.360   9.289 -0.0641 -0.6355 -0.4486
   23CHL1  H21A 1681   0.253   5.413   9.386  0.6322  2.2637 -2.0120
   23CHL1  H21B 1682   0.173   5.278   9.298 -0.7007  0.3341  4.1773
   23CHL1  H21C 1683   0.205   5.437   9.222 -1.1855 -0.7099  0.1625
   23CHL1   C22 1684   0.392   5.257   9.112  0.0021  0.1994 -0.3542
   23CHL1  H22A 1685   0.497   5.228   9.088  0.7363  1.4429  1.2570
   23CHL1  H22B 1686   0.320   5.172   9.122  2.0445 -1.5418 -0.0538
   23CHL1   C23 1687   0.347   5.349   8.992  0.0152  0.1095  0.1421
   23CHL1  H23A 1688   0.253   5.404   9.015  0.8702  0.3522  3.2650
   23CHL1  H23B 1689   0.426   5.421   8.964 -1.9100  1.2240 -2.6373
   23CHL1   C24 1690   0.301   5.255   8.878 -0.4904 -0.8593 -0.1091
   23CHL1  H24A 1691   0.383   5.195   8.834 -0.1388  1.0138 -2.0780
   23CHL1  H24B 1692   0.227   5.184   8.921 -2.7440  0.7959 -1.1377
   23CHL1   C25 1693   0.236   5.326   8.753 -0.3562  0.0654 -0.0939
   23CHL1   H25 1694   0.158   5.394   8.793 -0.7396  0.4624 -1.4840
   23CHL1   C26 1695   0.344   5.429   8.686  0.8819  0.2784 -0.2549
   23CHL1  H26A 1696   0.434   5.373   8.653  0.8104  0.4583 -0.7556
   23CHL1  H26B 1697   0.293   5.470   8.597  1.1141 -1.8089 -1.3583
   23CHL1  H26C 1698   0.375   5.514   8.752  0.4392  0.2978 -0.0721
   23CHL1   C27 1699   0.154   5.241   8.656  0.4865  0.3294 -0.0614
   23CHL1  H27A 1700   0.075   5.185   8.710 -0.3406  2.5329  1.0534
   23CHL1  H27B 1701   0.112   5.294   8.568 -0.8744 -0.2221  0.2422
   23CHL1  H27C 1702   0.221   5.165   8.609 -0.1022 -1.1156  1.4131
   24CHL1    C3 1703   1.471   6.539  10.056  0.4080 -0.3703  0.2110
   24CHL1    H3 1704   1.418   6.444  10.035 -2.1120  1.0754 -0.2252
   24CHL1    O3 1705   1.464   6.587  10.192  0.0001 -0.2834 -0.0482
   24CHL1   H3' 1706   1.501   6.675  10.185  2.3882 -1.0734  1.6981
   24CHL1    C4 1707   1.619   6.516  10.026  0.2365  0.9064 -0.0486
   24CHL1   H4A 1708   1.667   6.613  10.051 -0.6346  1.0219  1.2299
   24CHL1   H4B 1709   1.662   6.428  10.078 -1.6694  0.4059  0.7234
   24CHL1    C5 1710   1.638   6.493   9.878  0.6282  0.1708 -0.0379
   24CHL1    C6 1711   1.714   6.385   9.836  0.0877  0.0992  0.6546
   24CHL1    H6 1712   1.771   6.322   9.906 -0.2911  0.6714  1.4874
   24CHL1    C7 1713   1.726   6.340   9.692  0.7044 -0.1604 -0.5136
   24CHL1   H7A 1714   1.821   6.287   9.672 -0.3023 -1.9137 -0.7180
   24CHL1   H7B 1715   1.655   6.257   9.671  0.6925 -0.2894  0.0555
   24CHL1    C8 1716   1.694   6.453   9.588 -0.2625  0.1844 -0.4188
   24CHL1    H8 1717   1.785   6.516   9.583  1.6416 -2.5724 -1.2274
   24CHL1   C14 1718   1.677   6.391   9.451  0.1199  0.2961 -0.1378
   24CHL1   H14 1719   1.587   6.327   9.450  1.9368 -2.3719  2.3286
   24CHL1   C15 1720   1.788   6.298   9.401 -0.2289 -0.2384  0.4807
   24CHL1  H15A 1721   1.877   6.355   9.437 -0.3682 -0.5132  1.2745
   24CHL1  H15B 1722   1.778   6.201   9.454  0.5684 -0.3712  0.3897
   24CHL1   C16 1723   1.769   6.289   9.251 -1.0319  0.1010 -0.7951
   24CHL1  H16A 1724   1.865   6.310   9.201 -0.3190 -0.9074  0.1198
   24CHL1  H16B 1725   1.723   6.193   9.217 -1.2987  0.2707 -0.9153
   24CHL1   C17 1726   1.669   6.406   9.213  0.0326 -0.2806  0.1957
   24CHL1   H17 1727   1.571   6.357   9.194 -0.9793  1.6212  0.3853
   24CHL1   C13 1728   1.658   6.491   9.340  0.5038 -0.4643  0.0571
   24CHL1   C18 1729   1.778   6.591   9.336 -0.7283 -0.2554  0.5493
   24CHL1  H18A 1730   1.870   6.535   9.310 -0.6377 -0.8753  2.1905
   24CHL1  H18B 1731   1.755   6.667   9.258  3.5791 -1.2855 -1.8441
   24CHL1  H18C 1732   1.786   6.642   9.435  4.0416 -0.2183  0.2255
   24CHL1   C12 1733   1.525   6.566   9.377 -0.3605  0.0753  0.1246
   24CHL1  H12A 1734   1.494   6.653   9.316  0.9818  1.7269  1.7443
   24CHL1  H12B 1735   1.440   6.494   9.383  0.2784 -0.6480  0.4682
   24CHL1   C11 1736   1.526   6.625   9.514 -0.4964 -0.3435  0.2498
   24CHL1  H11A 1737   1.594   6.712   9.510  1.3046 -1.7313 -0.0706
   24CHL1  H11B 1738   1.429   6.670   9.542 -0.3594  0.0165  0.1493
   24CHL1    C9 1739   1.568   6.527   9.625  0.5098 -0.4669 -0.0901
   24CHL1    H9 1740   1.493   6.445   9.620  0.5067 -0.4672 -0.0309
   24CHL1   C10 1741   1.566   6.591   9.770  0.0395  1.3659  0.2370
   24CHL1   C19 1742   1.640   6.722   9.764 -0.3902 -0.2079  0.0320
   24CHL1  H19A 1743   1.680   6.748   9.865  1.6749  1.1368 -1.0952
   24CHL1  H19B 1744   1.720   6.734   9.689 -1.4316 -0.0882 -1.0788
   24CHL1  H19C 1745   1.565   6.798   9.732 -0.2019  1.3901  3.1833
   24CHL1    C1 1746   1.422   6.614   9.813  0.2136 -0.0164  0.0052
   24CHL1   H1A 1747   1.364   6.686   9.751  0.3990  0.6839  0.6403
   24CHL1   H1B 1748   1.370   6.518   9.795 -2.0715  1.4139 -1.4506
   24CHL1    C2 1749   1.404   6.647   9.968  0.1728 -0.0755  0.3141
   24CHL1   H2A 1750   1.295   6.667   9.976  0.3667  1.1299  0.0410
   24CHL1   H2B 1751   1.453   6.742   9.998 -2.1791  1.1836  0.2473
   24CHL1   C20 1752   1.696   6.473   9.078  1.1924 -0.3202 -0.5352
   24CHL1   H20 1753   1.795   6.523   9.085  1.1814 -0.8176  4.3492
   24CHL1   C21 1754   1.592   6.581   9.041  0.2213  0.8355  0.3714
   24CHL1  H21A 1755   1.491   6.536   9.037  0.3319  0.5301  1.1106
   24CHL1  H21B 1756   1.628   6.634   8.949 -1.1708  2.0925  0.5324
   24CHL1  H21C 1757   1.580   6.663   9.115 -1.9415  0.3074  0.6094
   24CHL1   C22 1758   1.694   6.359   8.960 -0.4771  0.0730  0.5569
   24CHL1  H22A 1759   1.768   6.283   8.994  2.0079  1.8650 -0.6543
   24CHL1  H22B 1760   1.591   6.324   8.939 -0.1583  0.9986 -2.9854
   24CHL1   C23 1761   1.751   6.425   8.830  0.0477 -0.8220 -0.0389
   24CHL1  H23A 1762   1.665   6.476   8.781  0.5429 -0.6244 -0.7130
   24CHL1  H23B 1763   1.832   6.500   8.846  0.6096 -1.2726 -0.7144
   24CHL1   C24 1764   1.810   6.320   8.725  0.2060  0.3026 -0.0971
   24CHL1  H24A 1765   1.872   6.387   8.661 -1.3510  1.3573 -0.5432
   24CHL1  H24B 1766   1.878   6.263   8.791  0.5594 -1.3181 -1.8433
   24CHL1   C25 1767   1.706   6.254   8.640  0.4600 -0.7220 -0.2897
   24CHL1   H25 1768   1.610   6.238   8.693  0.3489  2.4593  0.5536
   24CHL1   C26 1769   1.677   6.353   8.524  0.0748 -0.2554 -1.0273
   24CHL1  H26A 1770   1.675   6.462   8.548  0.8239 -0.4655  0.0066
   24CHL1  H26B 1771   1.758   6.349   8.448  0.8420 -2.6015 -0.1264
   24CHL1  H26C 1772   1.580   6.324   8.478  0.5000 -3.3161 -0.1044
   24CHL1   C27 1773   1.763   6.114   8.591  0.3925  0.4645 -0.0304
   24CHL1  H27A 1774   1.800   6.054   8.677  1.4826 -1.1443 -1.5917
   24CHL1  H27B 1775   1.693   6.057   8.526 -0.3976  2.0879 -0.6468
   24CHL1  H27C 1776   1.855   6.132   8.532  0.1924 -0.9807 -0.7879
   25CHL1    C3 1777   3.231   0.977  10.207  0.3018  0.1242  0.8223
   25CHL1    H3 1778   3.299   1.062  10.183 -0.3465  0.0101 -1.5077
   25CHL1    O3 1779   3.198   0.971  10.348 -0.2252 -0.3673 -0.4665
   25CHL1   H3' 1780   3.279   0.994  10.394 -0.1611 -0.7950 -0.3719
   25CHL1    C4 1781   3.102   0.992  10.126  0.5242  1.2025 -0.4155
   25CHL1   H4A 1782   3.032   0.911  10.153  0.1971  1.3395 -0.8506
   25CHL1   H4B 1783   3.039   1.080  10.151  0.3859  1.1132 -0.4499
   25CHL1    C5 1784   3.108   0.989   9.980  0.5143 -0.2920 -0.4356
   25CHL1    C6 1785   3.083   1.101   9.910  0.4420  0.6581 -0.5103
   25CHL1    H6 1786   3.057   1.191   9.967 -0.8965 -1.1247  1.7984
   25CHL1    C7 1787   3.096   1.107   9.764 -0.6064  0.9674 -0.1657
   25CHL1   H7A 1788   3.006   1.155   9.720 -1.2419  0.7648  0.9015
   25CHL1   H7B 1789   3.178   1.176   9.733 -0.3064 -0.1813 -2.0076
   25CHL1    C8 1790   3.137   0.974   9.693  0.2741 -0.0669  0.1039
   25CHL1    H8 1791   3.043   0.917   9.679 -0.6966  0.6671  3.2750
   25CHL1   C14 1792   3.202   1.018   9.564 -0.1639 -0.2195  0.2033
   25CHL1   H14 1793   3.294   1.071   9.596 -0.0619 -0.8652  0.9939
   25CHL1   C15 1794   3.124   1.117   9.481  0.4380  0.0164 -0.3682
   25CHL1  H15A 1795   3.024   1.074   9.458  1.1637 -0.5372 -2.5536
   25CHL1  H15B 1796   3.101   1.219   9.520  0.4106  0.3186 -1.1640
   25CHL1   C16 1797   3.219   1.118   9.356 -0.9050  0.1729  0.6660
   25CHL1  H16A 1798   3.152   1.137   9.269 -1.4679  2.4392  1.5661
   25CHL1  H16B 1799   3.297   1.194   9.378 -0.0314 -0.9426  1.4941
   25CHL1   C17 1800   3.304   0.990   9.362 -0.4454 -0.2455  0.1093
   25CHL1   H17 1801   3.407   1.021   9.390 -1.2129 -0.2654  3.1604
   25CHL1   C13 1802   3.250   0.904   9.481  0.1587  0.6319  0.4880
   25CHL1   C18 1803   3.132   0.819   9.419 -0.3303  0.4243 -0.1023
   25CHL1  H18A 1804   3.079   0.771   9.503 -0.5530  0.9559  0.0587
   25CHL1  H18B 1805   3.061   0.887   9.366 -1.3954 -0.7508 -0.1889
   25CHL1  H18C 1806   3.168   0.732   9.360  1.5068 -0.0118  1.6075
   25CHL1   C12 1807   3.348   0.816   9.569 -0.1861 -0.1595 -0.1742
   25CHL1  H12A 1808   3.379   0.725   9.514  2.1597 -0.1662  1.1194
   25CHL1  H12B 1809   3.436   0.879   9.593 -2.0766  4.1100 -3.7034
   25CHL1   C11 1810   3.288   0.770   9.702 -0.1939  0.2927  0.0593
   25CHL1  H11A 1811   3.202   0.704   9.676 -1.3569  1.6558  0.3676
   25CHL1  H11B 1812   3.363   0.714   9.761 -1.5275  0.5406  2.0239
   25CHL1    C9 1813   3.237   0.895   9.778  0.1582 -0.1268 -0.6563
   25CHL1    H9 1814   3.317   0.967   9.802  0.9719 -2.0059  2.5310
   25CHL1   C10 1815   3.188   0.866   9.925 -1.0802  0.4177 -0.7817
   25CHL1   C19 1816   3.104   0.744   9.914 -0.2447  0.6005  0.0845
   25CHL1  H19A 1817   3.162   0.658   9.873 -1.9079 -0.1112 -0.8285
   25CHL1  H19B 1818   3.064   0.708  10.011  0.3977  3.9113  1.6502
   25CHL1  H19C 1819   3.022   0.764   9.841 -0.8410 -1.4336  0.1670
   25CHL1    C1 1820   3.316   0.845  10.013  0.4977 -0.3759 -0.1806
   25CHL1   H1A 1821   3.351   0.744   9.984  1.7727 -0.0364  0.1579
   25CHL1   H1B 1822   3.397   0.913   9.980  1.0575 -1.8492 -1.9074
   25CHL1    C2 1823   3.290   0.846  10.165 -0.7160 -0.0182 -0.0979
   25CHL1   H2A 1824   3.385   0.830  10.219 -0.4162 -0.2649 -0.7020
   25CHL1   H2B 1825   3.227   0.761  10.199  1.5540 -1.9430 -0.6348
   25CHL1   C20 1826   3.327   0.921   9.225  0.0049 -0.9028 -0.2705
   25CHL1   H20 1827   3.243   0.854   9.197  0.5764 -0.7459 -2.4091
   25CHL1   C21 1828   3.439   0.812   9.240 -0.0776 -0.4877 -0.4790
   25CHL1  H21A 1829   3.408   0.735   9.314  0.7018 -0.4937 -0.1532
   25CHL1  H21B 1830   3.535   0.860   9.266 -0.9210  0.1816  1.5418
   25CHL1  H21C 1831   3.457   0.767   9.140 -0.7618  1.3205 -1.4421
   25CHL1   C22 1832   3.363   1.022   9.112 -0.4680 -0.0847 -0.1185
   25CHL1  H22A 1833   3.322   1.122   9.136 -0.6076 -0.5523  1.6397
   25CHL1  H22B 1834   3.471   1.039   9.089 -0.3597 -1.5397 -0.7418
   25CHL1   C23 1835   3.299   0.983   8.972 -0.6329 -0.4499  0.3692
   25CHL1  H23A 1836   3.290   0.873   8.961  1.1684 -0.7087  1.2662
   25CHL1  H23B 1837   3.192   1.012   8.963 -0.0997  1.9460  1.3492
   25CHL1   C24 1838   3.378   1.048   8.852 -0.2320  1.0158  0.0300
   25CHL1  H24A 1839   3.371   1.158   8.863  0.9427  0.7066  4.7497
   25CHL1  H24B 1840   3.485   1.023   8.866 -0.7747  0.1472  2.8367
   25CHL1   C25 1841   3.319   1.003   8.721 -0.5300  0.1284  0.4690
   25CHL1   H25 1842   3.212   1.032   8.715 -0.4177  0.1054 -2.8264
   25CHL1   C26 1843   3.398   1.062   8.596  0.6021 -0.3052 -0.0500
   25CHL1  H26A 1844   3.505   1.037   8.608  0.3113 -1.4796  0.2411
   25CHL1  H26B 1845   3.367   1.000   8.509  2.1664 -0.3110 -0.6072
   25CHL1  H26C 1846   3.388   1.169   8.570 -0.3849 -0.4481 -0.3084
   25CHL1   C27 1847   3.319   0.848   8.699  0.5057  0.5473 -0.2798
   25CHL1  H27A 1848   3.279   0.823   8.599  0.4933 -2.1456  0.3780
   25CHL1  H27B 1849   3.424   0.812   8.689  0.5649 -0.0570  2.1321
   25CHL1  H27C 1850   3.280   0.790   8.786  1.1573  2.5272  1.4028
   26CHL1    C3 1851   3.712   3.253  10.205  0.3641 -1.2757  0.1776
   26CHL1    H3 1852   3.630   3.187  10.168  0.2339 -3.0437  3.3867
   26CHL1    O3 1853   3.747   3.223  10.335 -0.8746 -0.9660  0.1843
   26CHL1   H3' 1854   3.818   3.286  10.350 -0.3457 -1.9726  2.1083
   26CHL1    C4 1855   3.833   3.228  10.118 -0.7086  0.0719  0.7499
   26CHL1   H4A 1856   3.921   3.290  10.147  0.7578 -0.9959 -1.2938
   26CHL1   H4B 1857   3.879   3.128  10.130  2.3163  1.4280  1.1533
   26CHL1    C5 1858   3.812   3.271   9.974  0.2244 -0.2089 -0.3811
   26CHL1    C6 1859   3.826   3.183   9.869  0.0596 -0.2879  0.4877
   26CHL1    H6 1860   3.863   3.081   9.882 -2.0740 -0.8628  2.4076
   26CHL1    C7 1861   3.803   3.222   9.725 -0.0516 -0.1175 -0.2140
   26CHL1   H7A 1862   3.890   3.188   9.665  0.2737  1.6753 -0.7972
   26CHL1   H7B 1863   3.707   3.181   9.686 -0.5061 -2.0706  2.8226
   26CHL1    C8 1864   3.789   3.371   9.706 -0.0402  0.4846  0.3684
   26CHL1    H8 1865   3.890   3.415   9.720 -1.1864  2.7445  1.7264
   26CHL1   C14 1866   3.742   3.401   9.567  0.8342  0.5012  0.1830
   26CHL1   H14 1867   3.640   3.356   9.559 -0.3582  2.4621  3.0577
   26CHL1   C15 1868   3.825   3.336   9.452  0.1589  0.0824 -0.9003
   26CHL1  H15A 1869   3.931   3.368   9.466  0.2059 -0.3741 -0.1930
   26CHL1  H15B 1870   3.809   3.227   9.439  0.5207 -0.0605 -0.2124
   26CHL1   C16 1871   3.764   3.401   9.329 -0.1499 -0.1053  0.4933
   26CHL1  H16A 1872   3.848   3.431   9.263 -0.9763 -1.5102 -1.2427
   26CHL1  H16B 1873   3.703   3.330   9.269  2.3844 -1.6878 -0.2911
   26CHL1   C17 1874   3.695   3.531   9.373 -0.0933  0.4143 -0.4473
   26CHL1   H17 1875   3.588   3.504   9.366 -0.3478  1.8396 -3.0839
   26CHL1   C13 1876   3.718   3.546   9.524  0.1989 -0.1427 -0.2310
   26CHL1   C18 1877   3.854   3.619   9.531  0.2852  0.5092 -0.2251
   26CHL1  H18A 1878   3.904   3.601   9.629 -2.0410  1.8610  1.2809
   26CHL1  H18B 1879   3.918   3.585   9.447  0.0965  0.5298 -0.3783
   26CHL1  H18C 1880   3.829   3.727   9.523  0.8052  0.6942  0.5589
   26CHL1   C12 1881   3.611   3.610   9.615 -0.2213  0.5047 -0.7417
   26CHL1  H12A 1882   3.586   3.716   9.596 -3.0260  0.5076  2.3838
   26CHL1  H12B 1883   3.515   3.555   9.601 -1.0062  2.1046 -1.7439
   26CHL1   C11 1884   3.652   3.586   9.771  0.1896  0.2556 -0.0107
   26CHL1  H11A 1885   3.738   3.656   9.787  0.6764 -0.1254 -0.9327
   26CHL1  H11B 1886   3.562   3.616   9.829 -0.2535 -0.2476 -0.4360
   26CHL1    C9 1887   3.693   3.439   9.808  0.0361  0.3758 -0.1000
   26CHL1    H9 1888   3.603   3.372   9.806  0.1603  0.1419  1.7947
   26CHL1   C10 1889   3.746   3.412   9.947 -0.0201  1.3782 -0.0155
   26CHL1   C19 1890   3.863   3.516   9.970 -0.9462  0.2723  0.9676
   26CHL1  H19A 1891   3.896   3.510  10.076  3.5899 -1.3854 -0.3842
   26CHL1  H19B 1892   3.955   3.505   9.907 -0.6739 -1.7086  1.6624
   26CHL1  H19C 1893   3.821   3.618   9.959 -1.9174 -0.3896 -1.9773
   26CHL1    C1 1894   3.632   3.433  10.045  0.1049  0.3006 -0.1457
   26CHL1   H1A 1895   3.588   3.534  10.033 -4.0518 -1.6942 -2.5638
   26CHL1   H1B 1896   3.551   3.359  10.028  0.8808 -0.6842  0.3785
   26CHL1    C2 1897   3.665   3.399  10.193 -0.8521  0.5807  0.1130
   26CHL1   H2A 1898   3.576   3.424  10.253 -0.8305 -1.2344  0.9529
   26CHL1   H2B 1899   3.739   3.474  10.229  0.3316  0.1806 -1.3979
   26CHL1   C20 1900   3.703   3.646   9.280 -0.4854 -0.0101  1.3228
   26CHL1   H20 1901   3.811   3.671   9.273 -0.7557  1.3275  1.6594
   26CHL1   C21 1902   3.622   3.773   9.327  0.2034  0.4950 -0.6705
   26CHL1  H21A 1903   3.623   3.854   9.252  4.2692  0.7294 -0.4767
   26CHL1  H21B 1904   3.675   3.806   9.418 -0.5878 -0.7588  0.2757
   26CHL1  H21C 1905   3.516   3.754   9.357  0.5473 -1.0305 -0.3554
   26CHL1   C22 1906   3.664   3.604   9.141 -0.0800  0.4462  0.1649
   26CHL1  H22A 1907   3.717   3.516   9.099 -0.4132  1.2351 -1.9669
   26CHL1  H22B 1908   3.554   3.591   9.152  0.4705 -2.7966  2.4802
   26CHL1   C23 1909   3.689   3.720   9.045  0.9421 -0.4695  0.2175
   26CHL1  H23A 1910   3.594   3.776   9.031  1.4945  0.6867  1.0247
   26CHL1  H23B 1911   3.767   3.791   9.078  0.3843  0.8030 -1.1429
   26CHL1   C24 1912   3.731   3.676   8.908 -0.2794  0.0817 -0.8679
   26CHL1  H24A 1913   3.833   3.633   8.917 -0.7599 -0.7018  1.2057
   26CHL1  H24B 1914   3.660   3.604   8.861 -0.1247  0.3355 -1.4920
   26CHL1   C25 1915   3.746   3.802   8.812 -0.1088  0.4282 -0.6519
   26CHL1   H25 1916   3.793   3.888   8.863 -1.7856  0.6965  0.4651
   26CHL1   C26 1917   3.825   3.762   8.694 -0.2313  0.3424  0.7606
   26CHL1  H26A 1918   3.930   3.740   8.720  0.2937  0.7411 -1.0052
   26CHL1  H26B 1919   3.771   3.680   8.643 -1.7597  1.1046  1.1081
   26CHL1  H26C 1920   3.825   3.850   8.627 -1.5726 -0.8544 -0.8640
   26CHL1   C27 1921   3.602   3.852   8.778  0.5905  0.0718 -0.7790
   26CHL1  H27A 1922   3.600   3.945   8.718  0.2356 -0.2897 -1.3323
   26CHL1  H27B 1923   3.552   3.775   8.716 -0.2505  0.0712 -0.1091
   26CHL1  H27C 1924   3.544   3.859   8.873  2.4328  2.0999  0.2463
   27CHL1    C3 1925   3.892   0.628  10.233 -0.6100  0.8232 -0.1654
   27CHL1    H3 1926   4.002   0.642  10.234 -0.6672  1.1972  1.2330
   27CHL1    O3 1927   3.857   0.609  10.371 -0.1703  0.0134 -0.5437
   27CHL1   H3' 1928   3.868   0.515  10.385 -2.4374  0.0264  1.7231
   27CHL1    C4 1929   3.823   0.753  10.177  0.6940  0.4056  0.2200
   27CHL1   H4A 1930   3.715   0.732  10.193  0.6683 -0.5423 -1.1009
   27CHL1   H4B 1931   3.853   0.845  10.233  3.0405 -1.0231  1.3699
   27CHL1    C5 1932   3.846   0.776  10.028  0.3947 -0.5466 -0.3661
   27CHL1    C6 1933   3.899   0.890   9.980  0.0916  0.1413  0.7172
   27CHL1    H6 1934   3.919   0.972  10.050  1.8616  0.2667  0.0887
   27CHL1    C7 1935   3.924   0.917   9.831 -0.1923 -0.4628  0.5437
   27CHL1   H7A 1936   3.889   1.020   9.813 -0.7473 -0.6926  0.2992
   27CHL1   H7B 1937   4.034   0.911   9.818  0.0906  4.5462 -0.4629
   27CHL1    C8 1938   3.847   0.813   9.744  0.0102 -0.2313  0.0847
   27CHL1    H8 1939   3.741   0.847   9.742  0.2802  0.6194  0.3379
   27CHL1   C14 1940   3.903   0.827   9.600  0.6800  0.5928 -0.1387
   27CHL1   H14 1941   4.008   0.794   9.616 -0.4405 -0.8593  5.5524
   27CHL1   C15 1942   3.912   0.967   9.543  0.6652 -0.5688 -0.4019
   27CHL1  H15A 1943   3.816   1.014   9.574 -0.2344 -2.0369 -0.9066
   27CHL1  H15B 1944   4.005   1.005   9.591  2.3957 -2.5175 -2.1292
   27CHL1   C16 1945   3.920   0.933   9.399  0.6699  0.1741 -0.0606
   27CHL1  H16A 1946   3.837   0.985   9.347  1.9576  1.9526 -0.4034
   27CHL1  H16B 1947   4.019   0.957   9.355  1.2297 -2.4134 -0.2914
   27CHL1   C17 1948   3.898   0.771   9.368  0.5289 -0.1687  0.2804
   27CHL1   H17 1949   4.000   0.728   9.359  1.2197  1.6955 -1.2509
   27CHL1   C13 1950   3.837   0.737   9.501 -0.0965 -0.6602 -0.4262
   27CHL1   C18 1951   3.687   0.768   9.503 -0.0597 -0.6742 -0.3261
   27CHL1  H18A 1952   3.634   0.698   9.435  0.9651 -0.7989 -0.9985
   27CHL1  H18B 1953   3.638   0.753   9.602 -0.9764 -0.9693 -0.8164
   27CHL1  H18C 1954   3.669   0.871   9.466 -0.0189 -0.3027  0.6584
   27CHL1   C12 1955   3.867   0.592   9.550 -0.2736  0.3283 -0.6316
   27CHL1  H12A 1956   3.808   0.523   9.485 -1.0253  1.2869 -0.9802
   27CHL1  H12B 1957   3.971   0.556   9.536  0.3357  0.6254  2.6552
   27CHL1   C11 1958   3.822   0.571   9.693  0.5818  0.2012  0.1594
   27CHL1  H11A 1959   3.712   0.587   9.694  0.6642  0.8331 -0.8570
   27CHL1  H11B 1960   3.856   0.468   9.717 -0.6989  0.0035  1.1749
   27CHL1    C9 1961   3.873   0.670   9.796  0.1989  0.1458  0.0298
   27CHL1    H9 1962   3.982   0.656   9.808  0.5906  2.2390 -0.8773
   27CHL1   C10 1963   3.813   0.652   9.934 -0.1370 -0.9387  0.0153
   27CHL1   C19 1964   3.654   0.637   9.929  0.1695 -0.3880  0.4843
   27CHL1  H19A 1965   3.614   0.547   9.878  2.0692  1.0212 -3.7130
   27CHL1  H19B 1966   3.633   0.633  10.038  1.7712 -1.6225  0.7617
   27CHL1  H19C 1967   3.597   0.721   9.885 -1.9695 -1.8792  0.3019
   27CHL1    C1 1968   3.872   0.520   9.998 -0.1075  0.3906 -0.0232
   27CHL1   H1A 1969   3.834   0.432   9.942  0.9993  1.6122 -2.7487
   27CHL1   H1B 1970   3.983   0.521   9.987 -0.1096 -2.9748 -0.9326
   27CHL1    C2 1971   3.848   0.508  10.150 -0.3682 -0.1608 -0.3243
   27CHL1   H2A 1972   3.901   0.416  10.184 -1.3273 -0.9861 -1.0315
   27CHL1   H2B 1973   3.740   0.485  10.164 -0.7678  1.9976  0.2626
   27CHL1   C20 1974   3.822   0.744   9.238  0.8689 -0.3945  0.4855
   27CHL1   H20 1975   3.720   0.788   9.241  1.2703  0.5315  0.9059
   27CHL1   C21 1976   3.801   0.592   9.212  0.2246  0.4155 -0.4260
   27CHL1  H21A 1977   3.893   0.533   9.189 -0.4301  0.1990 -2.5541
   27CHL1  H21B 1978   3.719   0.581   9.138 -1.8531 -0.7432  1.9653
   27CHL1  H21C 1979   3.752   0.548   9.301  0.2345  1.0149 -0.1203
   27CHL1   C22 1980   3.897   0.806   9.121  0.1990 -0.4949  0.0481
   27CHL1  H22A 1981   3.914   0.915   9.136 -1.9495 -0.0738 -0.4662
   27CHL1  H22B 1982   3.995   0.757   9.101  1.4546  2.2083 -0.5870
   27CHL1   C23 1983   3.819   0.785   8.985  1.4961  0.1068  0.7963
   27CHL1  H23A 1984   3.832   0.679   8.952 -0.5994  0.1003 -0.1248
   27CHL1  H23B 1985   3.713   0.816   9.000  1.1514 -0.0088 -1.1905
   27CHL1   C24 1986   3.884   0.865   8.873  0.6980 -0.1962  0.1718
   27CHL1  H24A 1987   3.914   0.966   8.907 -0.2756  0.4311 -0.8173
   27CHL1  H24B 1988   3.969   0.808   8.830  0.8010 -0.0173  0.1426
   27CHL1   C25 1989   3.800   0.920   8.752 -0.0993 -0.2827  0.1282
   27CHL1   H25 1990   3.722   0.992   8.786 -1.2050 -0.9780 -0.8760
   27CHL1   C26 1991   3.905   0.988   8.657 -0.6321  0.0315  0.1945
   27CHL1  H26A 1992   3.876   1.052   8.570  0.7969  0.3461 -0.0572
   27CHL1  H26B 1993   3.974   1.053   8.714 -0.1200 -2.0732  2.0211
   27CHL1  H26C 1994   3.973   0.913   8.611  1.3064  0.4243  2.3421
   27CHL1   C27 1995   3.709   0.817   8.681 -0.4233  0.8505  0.1693
   27CHL1  H27A 1996   3.647   0.857   8.597  1.4961  2.1171 -0.6866
   27CHL1  H27B 1997   3.774   0.736   8.643 -0.0495  0.9701  0.5613
   27CHL1  H27C 1998   3.650   0.772   8.763  1.5029 -0.7390  0.7133
   28CHL1    C3 1999   2.906   5.711  10.097  0.6986 -0.0716  0.4753
   28CHL1    H3 2000   2.875   5.816  10.119  2.1984  0.3856  0.4747
   28CHL1    O3 2001   2.946   5.656  10.220 -0.4998  0.3383  0.8478
   28CHL1   H3' 2002   2.874   5.604  10.256  0.5031 -2.0567 -0.5471
   28CHL1    C4 2003   2.780   5.635  10.047 -0.2331 -0.1353  0.0682
   28CHL1   H4A 2004   2.794   5.528  10.074 -0.2522 -0.5534 -1.5596
   28CHL1   H4B 2005   2.689   5.671  10.101 -0.1954  2.9558 -1.7819
   28CHL1    C5 2006   2.748   5.649   9.899  0.4552 -0.1374 -0.4347
   28CHL1    C6 2007   2.626   5.667   9.843 -0.0552 -0.8377 -0.0926
   28CHL1    H6 2008   2.532   5.657   9.899 -1.1225  0.7545 -1.5408
   28CHL1    C7 2009   2.595   5.690   9.697 -0.0679 -0.6001  0.0417
   28CHL1   H7A 2010   2.502   5.639   9.664 -0.0366 -0.3066 -0.5031
   28CHL1   H7B 2011   2.577   5.798   9.679 -3.8200 -1.1295  0.2011
   28CHL1    C8 2012   2.714   5.657   9.603  0.0057 -0.4840  0.7003
   28CHL1    H8 2013   2.720   5.546   9.591  1.1080 -0.0668 -3.3497
   28CHL1   C14 2014   2.688   5.718   9.469 -0.1030  0.3227  0.0353
   28CHL1   H14 2015   2.694   5.829   9.475  1.2350  0.2825 -0.2841
   28CHL1   C15 2016   2.555   5.694   9.398  0.3958 -0.1587 -0.2218
   28CHL1  H15A 2017   2.521   5.588   9.401 -2.5987  0.8090  2.3714
   28CHL1  H15B 2018   2.473   5.754   9.442  0.2061  0.1189 -0.9426
   28CHL1   C16 2019   2.579   5.734   9.250  0.5216 -0.5497  0.2870
   28CHL1  H16A 2020   2.535   5.651   9.191 -0.3915 -0.2583  0.5607
   28CHL1  H16B 2021   2.532   5.832   9.225  0.8872 -0.1933  0.9686
   28CHL1   C17 2022   2.733   5.756   9.244 -0.7729  0.1284 -0.3771
   28CHL1   H17 2023   2.751   5.865   9.257  0.2591  0.0969 -1.5107
   28CHL1   C13 2024   2.790   5.681   9.367  0.3822 -0.9694  0.1529
   28CHL1   C18 2025   2.788   5.528   9.339 -0.0414 -0.5080 -0.0566
   28CHL1  H18A 2026   2.687   5.491   9.313 -0.9013  1.1316  0.8826
   28CHL1  H18B 2027   2.861   5.498   9.261 -0.5294  1.7002 -1.3890
   28CHL1  H18C 2028   2.819   5.470   9.429  0.0230 -0.1164  0.1763
   28CHL1   C12 2029   2.929   5.725   9.422  0.2596  0.0670 -0.3803
   28CHL1  H12A 2030   3.009   5.690   9.354  0.7423 -0.3271  0.3861
   28CHL1  H12B 2031   2.932   5.836   9.427 -0.3186  0.0492  0.5609
   28CHL1   C11 2032   2.960   5.677   9.560  0.1951 -0.3668 -1.7149
   28CHL1  H11A 2033   2.987   5.570   9.556 -1.2255 -0.7340 -1.8498
   28CHL1  H11B 2034   3.051   5.733   9.591 -1.4210  0.7469  1.1826
   28CHL1    C9 2035   2.845   5.708   9.660 -0.2177  0.3338  0.3485
   28CHL1    H9 2036   2.838   5.818   9.670 -0.5514  0.2931  0.5693
   28CHL1   C10 2037   2.876   5.656   9.805 -0.2719 -0.6352  1.0021
   28CHL1   C19 2038   2.920   5.507   9.811  0.0417  0.6271  0.3761
   28CHL1  H19A 2039   3.013   5.493   9.753 -0.2080  2.6839 -0.5854
   28CHL1  H19B 2040   2.942   5.477   9.916 -1.5158 -0.9523  0.2643
   28CHL1  H19C 2041   2.840   5.440   9.775  1.2075 -0.6865  0.2161
   28CHL1    C1 2042   2.989   5.749   9.860 -0.4555 -0.6496  0.2717
   28CHL1   H1A 2043   3.084   5.739   9.804 -0.2480 -1.7828  0.8026
   28CHL1   H1B 2044   2.956   5.854   9.848 -0.4214 -0.5411  1.1010
   28CHL1    C2 2045   3.029   5.723   9.999  0.4936  1.0224  0.3964
   28CHL1   H2A 2046   3.109   5.786  10.042  2.3041  0.3140 -1.8706
   28CHL1   H2B 2047   3.074   5.621   9.991 -1.8477  0.1294 -2.1279
   28CHL1   C20 2048   2.803   5.723   9.107 -0.4637 -0.0895  0.1916
   28CHL1   H20 2049   2.827   5.614   9.103  1.5419  0.3059  0.7312
   28CHL1   C21 2050   2.925   5.802   9.081 -0.3371  0.0406  0.2816
   28CHL1  H21A 2051   3.001   5.794   9.161  0.9976  0.4671 -0.9290
   28CHL1  H21B 2052   2.910   5.912   9.078 -2.5635 -0.2297  0.9708
   28CHL1  H21C 2053   2.970   5.791   8.980  0.6511 -1.7884  0.8976
   28CHL1   C22 2054   2.712   5.744   8.984  0.2688  0.4780 -0.5486
   28CHL1  H22A 2055   2.629   5.670   8.990  0.4834  0.1458 -1.5073
   28CHL1  H22B 2056   2.672   5.848   8.987 -0.8886  0.0629 -1.1656
   28CHL1   C23 2057   2.772   5.703   8.849 -0.1957  0.4050  0.4001
   28CHL1  H23A 2058   2.870   5.650   8.850 -1.0861 -1.2336  0.7742
   28CHL1  H23B 2059   2.707   5.630   8.798  1.8235 -1.2676  0.1635
   28CHL1   C24 2060   2.791   5.829   8.756  0.6631 -0.1425  0.2534
   28CHL1  H24A 2061   2.690   5.873   8.743  1.6224  1.8471 -0.6001
   28CHL1  H24B 2062   2.854   5.905   8.807  1.8960 -0.8852 -0.1433
   28CHL1   C25 2063   2.842   5.792   8.615 -0.0123  0.0204  0.7518
   28CHL1   H25 2064   2.927   5.720   8.608 -1.1294 -1.3661  1.0703
   28CHL1   C26 2065   2.739   5.721   8.525 -0.1199 -0.3060  0.3441
   28CHL1  H26A 2066   2.694   5.643   8.591 -1.0916 -2.9969 -3.3277
   28CHL1  H26B 2067   2.669   5.800   8.493  0.6817  0.3911  0.3047
   28CHL1  H26C 2068   2.788   5.671   8.438  0.3730  0.1964  0.3339
   28CHL1   C27 2069   2.896   5.917   8.542  0.5734  0.3462 -0.6570
   28CHL1  H27A 2070   2.809   5.985   8.525 -1.2931 -2.2266 -1.6314
   28CHL1  H27B 2071   2.966   5.969   8.612  0.1072  1.2171 -0.8303
   28CHL1  H27C 2072   2.939   5.883   8.446 -2.2051 -0.2473 -1.7379
   29CHL1    C3 2073   5.361   4.300   6.595 -0.3249 -0.4284 -0.5304
   29CHL1    H3 2074   5.408   4.222   6.657 -0.4263 -1.4139 -1.6819
   29CHL1    O3 2075   5.365   4.268   6.459  0.6131 -0.2941  0.5728
   29CHL1   H3' 2076   5.385   4.350   6.414 -1.3528 -0.1999 -0.1837
   29CHL1    C4 2077   5.211   4.309   6.635 -0.8475 -0.1706  0.1327
   29CHL1   H4A 2078   5.165   4.381   6.564  1.3719  0.8650 -0.2751
   29CHL1   H4B 2079   5.163   4.209   6.625 -2.9234  0.4440  3.0338
   29CHL1    C5 2080   5.196   4.353   6.782  0.0275 -0.0883 -0.6487
   29CHL1    C6 2081   5.121   4.290   6.874  0.0110  0.3507  0.0297
   29CHL1    H6 2082   5.087   4.191   6.840  0.5834  0.4613 -0.8821
   29CHL1    C7 2083   5.095   4.337   7.014 -0.2870 -0.2363  0.2998
   29CHL1   H7A 2084   4.988   4.320   7.040 -0.4961 -1.5631 -1.3149
   29CHL1   H7B 2085   5.143   4.265   7.084 -1.2688 -1.0243  0.1801
   29CHL1    C8 2086   5.135   4.485   7.037  0.3083 -0.4572  0.3842
   29CHL1    H8 2087   5.058   4.552   6.995  0.1937 -1.4940 -1.0900
   29CHL1   C14 2088   5.152   4.507   7.184 -0.7673 -0.4058 -0.6536
   29CHL1   H14 2089   5.224   4.430   7.219 -1.0510  0.4222  1.8585
   29CHL1   C15 2090   5.034   4.482   7.271  0.1534  0.4988  0.3146
   29CHL1  H15A 2091   4.934   4.515   7.235 -0.0375  0.3013  0.6495
   29CHL1  H15B 2092   5.018   4.373   7.287  1.5183  0.5929  2.5546
   29CHL1   C16 2093   5.070   4.549   7.401  0.7873  0.2124 -0.3153
   29CHL1  H16A 2094   4.991   4.619   7.435 -0.6525 -0.4725 -2.1489
   29CHL1  H16B 2095   5.081   4.475   7.483 -0.2629 -0.4228 -0.7403
   29CHL1   C17 2096   5.192   4.641   7.381 -0.3353 -0.2015  0.1088
   29CHL1   H17 2097   5.277   4.576   7.412 -0.8939 -0.2941  1.4801
   29CHL1   C13 2098   5.215   4.641   7.226  0.5514  0.3585  0.3498
   29CHL1   C18 2099   5.138   4.759   7.167  0.4127  0.0755 -0.4039
   29CHL1  H18A 2100   5.032   4.780   7.192  1.3710  3.1318  1.3771
   29CHL1  H18B 2101   5.205   4.845   7.189  1.2303 -0.5866 -0.2738
   29CHL1  H18C 2102   5.128   4.746   7.057  1.0390 -0.8917 -0.3488
   29CHL1   C12 2103   5.359   4.650   7.172 -0.2133 -0.6789 -0.6284
   29CHL1  H12A 2104   5.407   4.747   7.194 -1.0554 -0.4086  0.0541
   29CHL1  H12B 2105   5.420   4.569   7.217  0.8758  1.2816  1.4839
   29CHL1   C11 2106   5.364   4.630   7.015  0.1406  0.0082 -0.2818
   29CHL1  H11A 2107   5.328   4.720   6.960 -2.4591  0.0221  1.3415
   29CHL1  H11B 2108   5.469   4.604   6.988  0.4465  0.6689  0.2535
   29CHL1    C9 2109   5.280   4.502   6.980 -0.2227 -0.2020 -0.6114
   29CHL1    H9 2110   5.335   4.414   7.019 -0.9790  0.7184  2.6510
   29CHL1   C10 2111   5.277   4.481   6.822 -0.0470  0.2500 -0.0421
   29CHL1   C19 2112   5.211   4.602   6.755 -0.2409  0.2935 -0.9491
   29CHL1  H19A 2113   5.189   4.596   6.647 -1.3125  2.8480 -0.9047
   29CHL1  H19B 2114   5.114   4.611   6.808 -0.9265  0.3980 -2.2009
   29CHL1  H19C 2115   5.270   4.695   6.768  1.3477 -0.9060  0.7294
   29CHL1    C1 2116   5.428   4.462   6.761 -0.1984  0.5303 -0.4134
   29CHL1   H1A 2117   5.489   4.553   6.779  1.3141 -0.5100 -0.1669
   29CHL1   H1B 2118   5.464   4.370   6.811 -0.3683  0.5351 -0.2823
   29CHL1    C2 2119   5.437   4.427   6.616 -0.0297  1.0334  0.4012
   29CHL1   H2A 2120   5.540   4.425   6.576 -1.0938 -3.0388 -2.3489
   29CHL1   H2B 2121   5.385   4.512   6.566 -1.1545  1.3417  2.0526
   29CHL1   C20 2122   5.198   4.764   7.463  0.0643 -0.5097 -0.0518
   29CHL1   H20 2123   5.130   4.841   7.421  0.2393  0.2572  1.0459
   29CHL1   C21 2124   5.340   4.832   7.472  0.3578  0.4395  0.1802
   29CHL1  H21A 2125   5.422   4.764   7.503  0.2149  1.7785  3.7366
   29CHL1  H21B 2126   5.339   4.918   7.542 -0.2462  0.0421  0.6588
   29CHL1  H21C 2127   5.373   4.865   7.371  2.0102 -0.8426  0.2803
   29CHL1   C22 2128   5.154   4.748   7.612 -0.1525  0.8091  0.7177
   29CHL1  H22A 2129   5.083   4.663   7.625  2.1740 -1.2143  0.4667
   29CHL1  H22B 2130   5.246   4.711   7.660 -0.2203 -2.0633 -1.2101
   29CHL1   C23 2131   5.098   4.877   7.685  0.6671  0.1545  0.4004
   29CHL1  H23A 2132   5.177   4.955   7.687  1.1690 -0.1932 -2.8470
   29CHL1  H23B 2133   5.006   4.909   7.633  0.8842  0.5288  0.2435
   29CHL1   C24 2134   5.071   4.837   7.834  0.2270  0.0693 -0.0591
   29CHL1  H24A 2135   5.017   4.741   7.836 -2.8863  1.7732  0.7216
   29CHL1  H24B 2136   5.168   4.828   7.887  0.6694 -0.2819 -0.9153
   29CHL1   C25 2137   4.982   4.939   7.914 -0.4618 -0.7415  0.4544
   29CHL1   H25 2138   5.031   5.039   7.920 -0.9657 -0.4192 -0.7553
   29CHL1   C26 2139   4.848   4.975   7.837 -0.0158  0.3501 -0.3299
   29CHL1  H26A 2140   4.885   5.021   7.743  0.0346  0.0792 -0.4452
   29CHL1  H26B 2141   4.781   4.887   7.823  0.7261 -0.5578  1.5818
   29CHL1  H26C 2142   4.786   5.043   7.899 -0.3175  0.2594 -0.5327
   29CHL1   C27 2143   4.956   4.886   8.052 -0.5331 -0.3404  0.3675
   29CHL1  H27A 2144   4.903   4.789   8.059  0.4723 -0.9736 -0.6467
   29CHL1  H27B 2145   5.054   4.883   8.104 -0.6117  2.8274  0.8124
   29CHL1  H27C 2146   4.901   4.966   8.106 -0.4801  1.1982 -1.7981
   30CHL1    C3 2147   2.967   2.300   7.257  0.0835 -0.1318  0.3237
   30CHL1    H3 2148   3.046   2.222   7.249  1.5989  1.2392  1.6741
   30CHL1    O3 2149   2.903   2.315   7.130 -0.0602 -0.1180  0.1297
   30CHL1   H3' 2150   2.963   2.376   7.085  1.4421 -1.6707 -0.0261
   30CHL1    C4 2151   2.861   2.266   7.364 -0.4817 -0.2158 -0.2882
   30CHL1   H4A 2152   2.769   2.326   7.346 -0.0704  1.4880  2.8111
   30CHL1   H4B 2153   2.847   2.158   7.346  2.2741 -0.5048 -1.0157
   30CHL1    C5 2154   2.926   2.285   7.500  0.2886 -0.1320  0.4589
   30CHL1    C6 2155   2.918   2.188   7.589  0.1564 -0.0940 -0.0232
   30CHL1    H6 2156   2.859   2.099   7.559 -2.4506  0.9834  1.7003
   30CHL1    C7 2157   2.988   2.194   7.728 -0.0445 -0.5537  0.5854
   30CHL1   H7A 2158   2.934   2.143   7.810 -1.0250 -1.8610 -0.8357
   30CHL1   H7B 2159   3.093   2.158   7.715  0.6651  1.8384 -0.7312
   30CHL1    C8 2160   3.007   2.349   7.772 -0.0448  0.1631 -0.1841
   30CHL1    H8 2161   2.901   2.371   7.798 -0.5241  1.4800 -2.9854
   30CHL1   C14 2162   3.079   2.364   7.899  0.1874 -0.0376 -0.7002
   30CHL1   H14 2163   3.181   2.320   7.884  0.4730 -0.2994  1.7568
   30CHL1   C15 2164   3.021   2.285   8.024 -0.2014 -0.3474  0.4552
   30CHL1  H15A 2165   2.912   2.303   8.032 -0.1324  0.4876 -0.3464
   30CHL1  H15B 2166   3.033   2.178   8.000  0.4477 -0.8404  2.8679
   30CHL1   C16 2167   3.115   2.332   8.130 -0.0097  0.6419 -0.5912
   30CHL1  H16A 2168   3.052   2.369   8.214  1.3234 -1.9663  1.6017
   30CHL1  H16B 2169   3.199   2.262   8.150 -1.0185 -0.5929 -0.6141
   30CHL1   C17 2170   3.188   2.459   8.078 -0.5906  0.3858  0.2501
   30CHL1   H17 2171   3.285   2.414   8.046 -0.2140  1.6937 -0.5275
   30CHL1   C13 2172   3.113   2.499   7.949 -0.8570 -0.5272 -0.3461
   30CHL1   C18 2173   2.986   2.580   7.991 -0.2747 -0.1026 -0.1377
   30CHL1  H18A 2174   2.915   2.589   7.906  0.3592  2.4656 -0.4503
   30CHL1  H18B 2175   2.932   2.526   8.072 -0.3637 -1.0604 -0.8390
   30CHL1  H18C 2176   3.023   2.680   8.022 -0.1043  0.0279 -0.7530
   30CHL1   C12 2177   3.202   2.568   7.843  0.7092 -0.5352 -0.6908
   30CHL1  H12A 2178   3.227   2.674   7.867  1.3307 -0.5210 -1.3875
   30CHL1  H12B 2179   3.305   2.528   7.839  0.0916 -1.9925 -2.9488
   30CHL1   C11 2180   3.140   2.561   7.696 -0.4648  0.4139 -0.0367
   30CHL1  H11A 2181   3.063   2.641   7.701 -0.9496 -0.1171  1.3466
   30CHL1  H11B 2182   3.224   2.599   7.634 -0.7517 -0.7051 -1.1377
   30CHL1    C9 2183   3.079   2.423   7.658  0.0744  0.9534 -0.1562
   30CHL1    H9 2184   3.164   2.355   7.635 -2.1147 -1.0764 -2.5292
   30CHL1   C10 2185   3.005   2.418   7.525  0.0633 -0.4637 -0.1927
   30CHL1   C19 2186   2.903   2.539   7.533  0.1397 -0.0071  0.5086
   30CHL1  H19A 2187   2.840   2.529   7.442  0.3585  1.8096  0.1491
   30CHL1  H19B 2188   2.845   2.526   7.627 -2.1107 -0.9993 -0.9701
   30CHL1  H19C 2189   2.958   2.635   7.537 -1.6693  1.0087  1.1386
   30CHL1    C1 2190   3.106   2.437   7.410  0.7509  1.1133  0.3557
   30CHL1   H1A 2191   3.151   2.538   7.418 -0.0632  1.5972 -1.0030
   30CHL1   H1B 2192   3.184   2.359   7.425 -0.3457 -0.4641 -1.9840
   30CHL1    C2 2193   3.042   2.427   7.271  0.0320 -0.0876  0.2079
   30CHL1   H2A 2194   3.123   2.441   7.197  0.0367 -0.0274  0.2245
   30CHL1   H2B 2195   2.969   2.509   7.256 -0.9294 -0.7010  1.4341
   30CHL1   C20 2196   3.220   2.555   8.190 -0.0297  0.4710 -0.0640
   30CHL1   H20 2197   3.120   2.591   8.223  1.0524  1.6758  2.0218
   30CHL1   C21 2198   3.291   2.681   8.132 -0.3394 -0.3238 -0.5690
   30CHL1  H21A 2199   3.221   2.728   8.059 -1.8350  0.6452  1.4503
   30CHL1  H21B 2200   3.391   2.663   8.088 -0.4789  0.7832 -1.3536
   30CHL1  H21C 2201   3.317   2.751   8.214  0.6269 -0.2316 -0.9435
   30CHL1   C22 2202   3.292   2.494   8.308  0.2327  0.1685  0.4949
   30CHL1  H22A 2203   3.223   2.418   8.349 -0.6650  0.6357 -0.1331
   30CHL1  H22B 2204   3.385   2.443   8.273 -1.9985 -2.9708 -1.0775
   30CHL1   C23 2205   3.320   2.595   8.426  0.3144 -0.4809  0.3240
   30CHL1  H23A 2206   3.379   2.679   8.382 -0.2599  0.1923  0.8219
   30CHL1  H23B 2207   3.231   2.640   8.476 -0.4522 -0.7580 -0.7823
   30CHL1   C24 2208   3.413   2.530   8.530  0.1590 -0.2709  0.4659
   30CHL1  H24A 2209   3.502   2.489   8.478 -0.5439 -2.2065  0.7423
   30CHL1  H24B 2210   3.453   2.610   8.596  1.5882  0.7045 -1.5392
   30CHL1   C25 2211   3.343   2.416   8.605 -0.0170 -0.0995  0.6860
   30CHL1   H25 2212   3.291   2.347   8.535 -2.4226  1.2055  1.1203
   30CHL1   C26 2213   3.443   2.338   8.686 -0.5747  0.0170  0.6137
   30CHL1  H26A 2214   3.412   2.232   8.690  2.4285 -0.9722 -0.8444
   30CHL1  H26B 2215   3.541   2.332   8.635 -1.4900  0.3315 -1.2300
   30CHL1  H26C 2216   3.461   2.384   8.786 -0.4593 -1.2947  1.1977
   30CHL1   C27 2217   3.234   2.473   8.694  0.4229 -0.0949  0.3925
   30CHL1  H27A 2218   3.272   2.562   8.747 -1.3590  0.4493  0.7841
   30CHL1  H27B 2219   3.145   2.506   8.636 -0.9321  0.2576  2.6019
   30CHL1  H27C 2220   3.207   2.396   8.770 -1.0574 -2.1488 -2.0869
   31CHL1    C3 2221   2.387   4.377   6.753 -0.1687 -0.8717 -0.6991
   31CHL1    H3 2222   2.341   4.472   6.790 -0.0929 -0.2257 -2.1983
   31CHL1    O3 2223   2.427   4.381   6.617  0.1133 -0.2783  0.0358
   31CHL1   H3' 2224   2.352   4.366   6.558  0.1779 -0.0907 -0.0936
   31CHL1    C4 2225   2.506   4.347   6.831  0.3417 -0.0915  0.1668
   31CHL1   H4A 2226   2.541   4.249   6.791  0.1654  0.1477 -0.5820
   31CHL1   H4B 2227   2.580   4.425   6.802  0.2754  0.1305  0.5934
   31CHL1    C5 2228   2.490   4.326   6.983  0.2210 -0.0515  0.5161
   31CHL1    C6 2229   2.572   4.390   7.061 -0.7046  0.4236 -0.0568
   31CHL1    H6 2230   2.658   4.442   7.016 -0.1590 -0.7429 -0.3805
   31CHL1    C7 2231   2.552   4.395   7.214  0.2874  0.7179 -0.3528
   31CHL1   H7A 2232   2.655   4.391   7.256  0.5276  1.1741 -0.9045
   31CHL1   H7B 2233   2.512   4.495   7.240 -1.7008  0.0545 -0.7706
   31CHL1    C8 2234   2.459   4.282   7.267 -0.2234 -0.4516  0.0725
   31CHL1    H8 2235   2.510   4.183   7.268  1.2715  0.3132  0.4060
   31CHL1   C14 2236   2.408   4.321   7.405 -1.0034 -0.0880 -0.6385
   31CHL1   H14 2237   2.359   4.419   7.390  0.7366  0.8565 -0.2915
   31CHL1   C15 2238   2.525   4.345   7.505 -0.5556 -0.1302  0.3214
   31CHL1  H15A 2239   2.608   4.271   7.497 -0.2700  0.2786 -0.6353
   31CHL1  H15B 2240   2.555   4.449   7.479 -1.0084 -0.3397 -1.0880
   31CHL1   C16 2241   2.450   4.341   7.639 -0.0590  0.6396 -0.0266
   31CHL1  H16A 2242   2.486   4.255   7.699 -2.4089  1.5809  2.7895
   31CHL1  H16B 2243   2.464   4.439   7.689  0.2362  1.6890 -2.1010
   31CHL1   C17 2244   2.298   4.304   7.604  0.0362 -0.3867  0.2809
   31CHL1   H17 2245   2.240   4.395   7.577 -0.7533 -1.6449 -2.4139
   31CHL1   C13 2246   2.310   4.230   7.468 -0.2671  0.1663 -0.1294
   31CHL1   C18 2247   2.374   4.097   7.493  0.0554  0.1400  0.7624
   31CHL1  H18A 2248   2.386   4.022   7.412 -0.3538  0.4140  0.4453
   31CHL1  H18B 2249   2.471   4.096   7.547  0.0355 -1.8175  0.7818
   31CHL1  H18C 2250   2.306   4.042   7.562 -1.2460  2.2580  1.2298
   31CHL1   C12 2251   2.193   4.225   7.370  0.3314 -0.5395  0.4308
   31CHL1  H12A 2252   2.116   4.165   7.423 -0.8304  1.3418  0.9256
   31CHL1  H12B 2253   2.148   4.326   7.367  2.6418  0.4778 -0.9445
   31CHL1   C11 2254   2.233   4.179   7.230 -0.0006 -0.3426  0.0786
   31CHL1  H11A 2255   2.272   4.075   7.238 -1.9066 -1.1083 -0.3416
   31CHL1  H11B 2256   2.138   4.177   7.174  1.9411 -0.4662 -3.3405
   31CHL1    C9 2257   2.339   4.266   7.180  1.0134  0.6322 -0.6793
   31CHL1    H9 2258   2.293   4.367   7.177  0.7650  0.5969  1.2150
   31CHL1   C10 2259   2.375   4.240   7.025  0.6392 -0.6869 -0.5306
   31CHL1   C19 2260   2.426   4.096   7.016  0.4040 -0.2878 -0.1468
   31CHL1  H19A 2261   2.515   4.090   7.083  0.0030  1.4498  0.5651
   31CHL1  H19B 2262   2.346   4.028   7.053 -0.0582 -0.3273 -1.2238
   31CHL1  H19C 2263   2.441   4.070   6.909  1.2861 -0.8259  0.1027
   31CHL1    C1 2264   2.249   4.263   6.936  0.0090 -0.3163 -0.2111
   31CHL1   H1A 2265   2.182   4.176   6.950  1.4680 -1.2561  1.1856
   31CHL1   H1B 2266   2.206   4.363   6.958 -1.3669 -1.1075  0.7302
   31CHL1    C2 2267   2.283   4.269   6.782  0.1269  0.0641  0.0525
   31CHL1   H2A 2268   2.194   4.303   6.725 -0.3239 -1.3886 -0.1439
   31CHL1   H2B 2269   2.314   4.171   6.740 -1.1352  0.2362 -1.3516
   31CHL1   C20 2270   2.219   4.245   7.727  0.6586 -0.3952  0.5509
   31CHL1   H20 2271   2.254   4.141   7.745 -1.0253 -0.8619  1.2028
   31CHL1   C21 2272   2.070   4.237   7.694  1.2216  0.2600 -0.1354
   31CHL1  H21A 2273   2.018   4.333   7.671  0.0929 -0.4459 -0.5565
   31CHL1  H21B 2274   2.006   4.203   7.779 -2.3792  2.0903 -1.9773
   31CHL1  H21C 2275   2.053   4.161   7.615 -3.9907 -0.2892  1.3089
   31CHL1   C22 2276   2.251   4.326   7.855 -0.2766  0.2570 -0.7941
   31CHL1  H22A 2277   2.355   4.299   7.882  0.0207  1.0680 -1.1158
   31CHL1  H22B 2278   2.242   4.434   7.833 -3.0870 -0.1417 -1.8092
   31CHL1   C23 2279   2.154   4.296   7.972  0.0388 -0.2078 -0.0060
   31CHL1  H23A 2280   2.175   4.380   8.041 -0.9930  0.0135  0.0450
   31CHL1  H23B 2281   2.053   4.327   7.939  0.4147  1.1538  0.0914
   31CHL1   C24 2282   2.171   4.156   8.029 -0.0280 -0.4431  0.0600
   31CHL1  H24A 2283   2.152   4.083   7.947  2.1298  0.7877 -1.5748
   31CHL1  H24B 2284   2.275   4.166   8.066 -0.0975 -0.7587  0.3324
   31CHL1   C25 2285   2.061   4.123   8.133  0.2802  0.4457  0.2085
   31CHL1   H25 2286   2.063   4.024   8.184  0.1326 -0.3055 -1.2387
   31CHL1   C26 2287   2.046   4.227   8.247  0.2280  0.2209  0.3444
   31CHL1  H26A 2288   1.990   4.194   8.337 -0.5898  1.4192  0.2918
   31CHL1  H26B 2289   2.151   4.247   8.276  0.6494  1.0438 -1.6564
   31CHL1  H26C 2290   2.023   4.326   8.201  1.5780  0.1040 -0.5980
   31CHL1   C27 2291   1.925   4.116   8.053 -0.1118 -0.7685  0.3225
   31CHL1  H27A 2292   1.886   4.215   8.022 -0.4820 -0.9492  0.2046
   31CHL1  H27B 2293   1.847   4.069   8.117  0.3393 -0.8085  0.8532
   31CHL1  H27C 2294   1.929   4.056   7.960 -1.5248  0.7117 -0.7082
   32CHL1    C3 2295   3.137   3.034   6.905 -0.2690  0.4846  0.8093
   32CHL1    H3 2296   3.068   3.121   6.899 -2.9946 -1.7883 -3.1296
   32CHL1    O3 2297   3.164   3.013   6.771  0.0864  0.1813 -0.4329
   32CHL1   H3' 2298   3.216   2.935   6.755 -1.5288 -1.4106  1.8834
   32CHL1    C4 2299   3.258   3.078   6.980  0.2431 -0.1554 -0.4701
   32CHL1   H4A 2300   3.333   2.996   6.966  0.7975  0.3027 -0.1908
   32CHL1   H4B 2301   3.291   3.166   6.921 -1.5848  1.0104  0.2123
   32CHL1    C5 2302   3.239   3.103   7.123 -0.5166  0.1474 -0.4806
   32CHL1    C6 2303   3.262   3.224   7.178 -0.4907 -0.1458  0.0203
   32CHL1    H6 2304   3.288   3.310   7.115  1.4861  0.8582  2.1241
   32CHL1    C7 2305   3.250   3.252   7.322 -0.2168 -0.8360  0.2492
   32CHL1   H7A 2306   3.346   3.296   7.354 -0.9266  1.2948 -0.4474
   32CHL1   H7B 2307   3.167   3.323   7.341  1.0451  1.2100 -1.6637
   32CHL1    C8 2308   3.224   3.126   7.404 -0.3456  0.4074  0.0301
   32CHL1    H8 2309   3.324   3.079   7.409 -0.1704  0.9224  2.0703
   32CHL1   C14 2310   3.177   3.156   7.548  0.0185 -0.3091  0.2295
   32CHL1   H14 2311   3.075   3.199   7.538 -0.1887 -0.0779  2.8886
   32CHL1   C15 2312   3.256   3.260   7.636  1.0451  0.5542 -1.0289
   32CHL1  H15A 2313   3.364   3.264   7.610  1.3010 -0.9101 -0.2578
   32CHL1  H15B 2314   3.201   3.356   7.622  1.5861  1.3527  1.8706
   32CHL1   C16 2315   3.211   3.226   7.784 -0.0541 -0.0441 -0.2665
   32CHL1  H16A 2316   3.303   3.203   7.842 -0.5008 -1.4539 -0.1013
   32CHL1  H16B 2317   3.168   3.312   7.839 -1.7461 -0.1415 -1.4231
   32CHL1   C17 2318   3.111   3.113   7.777 -0.3724 -0.5041  0.4445
   32CHL1   H17 2319   3.011   3.160   7.765 -0.5007 -0.5276  1.4027
   32CHL1   C13 2320   3.146   3.037   7.637 -0.0462 -1.0216 -0.2423
   32CHL1   C18 2321   3.276   2.953   7.651 -0.0514  0.1626  0.4504
   32CHL1  H18A 2322   3.293   2.895   7.558  0.0238 -2.3130  1.9372
   32CHL1  H18B 2323   3.368   3.009   7.679 -1.2813  2.0331  0.7849
   32CHL1  H18C 2324   3.263   2.878   7.732  0.0115  0.1319  0.4328
   32CHL1   C12 2325   3.028   2.970   7.565  0.5436  0.0775 -0.8179
   32CHL1  H12A 2326   2.997   2.884   7.628  0.0106  1.2755  0.5964
   32CHL1  H12B 2327   2.950   3.050   7.565 -1.8201 -2.1791 -1.4093
   32CHL1   C11 2328   3.063   2.916   7.430 -0.0660 -0.2045 -0.0470
   32CHL1  H11A 2329   3.133   2.831   7.447 -1.4287 -1.4065 -0.4380
   32CHL1  H11B 2330   2.969   2.881   7.384  0.8433  0.1163 -2.2652
   32CHL1    C9 2331   3.131   3.028   7.333  0.1167 -0.3065 -0.3014
   32CHL1    H9 2332   3.038   3.086   7.314  0.1131  0.5962  2.3535
   32CHL1   C10 2333   3.173   2.983   7.191  0.0049  0.0821 -0.3114
   32CHL1   C19 2334   3.284   2.876   7.211  0.0425 -0.1929 -0.2573
   32CHL1  H19A 2335   3.250   2.781   7.255  1.0209  0.6815  2.4585
   32CHL1  H19B 2336   3.316   2.852   7.107  1.1455  0.0723  0.0153
   32CHL1  H19C 2337   3.366   2.915   7.275 -0.0506  1.3874 -1.0757
   32CHL1    C1 2338   3.044   2.940   7.118 -0.2591 -1.1075  0.3575
   32CHL1   H1A 2339   3.015   2.844   7.167  0.6706 -1.9974 -0.7799
   32CHL1   H1B 2340   2.958   3.010   7.121  0.8678  0.3549 -0.8491
   32CHL1    C2 2341   3.075   2.906   6.965 -0.0479 -0.2036  0.4512
   32CHL1   H2A 2342   2.990   2.866   6.907 -0.0340 -1.9643  1.6032
   32CHL1   H2B 2343   3.161   2.836   6.958  1.2054  1.1250  1.9688
   32CHL1   C20 2344   3.104   3.026   7.902  0.1051 -0.2826  0.0651
   32CHL1   H20 2345   3.189   2.953   7.903  0.5073  0.1806  0.0359
   32CHL1   C21 2346   2.961   2.944   7.897 -0.4738 -0.8622 -0.2162
   32CHL1  H21A 2347   2.966   2.837   7.927  1.2286 -1.3826 -2.2649
   32CHL1  H21B 2348   2.918   2.948   7.795  0.3905 -2.3701 -0.6517
   32CHL1  H21C 2349   2.887   2.998   7.960 -1.4236 -0.5895 -1.5387
   32CHL1   C22 2350   3.093   3.102   8.043 -0.8004  0.4420 -0.1698
   32CHL1  H22A 2351   3.178   3.173   8.051 -1.9024  1.7500 -0.0213
   32CHL1  H22B 2352   3.005   3.169   8.047 -2.0896 -1.1419 -1.3197
   32CHL1   C23 2353   3.106   3.010   8.161  0.1987 -0.2914 -0.4466
   32CHL1  H23A 2354   3.033   2.927   8.151 -0.5841  0.1642  1.3821
   32CHL1  H23B 2355   3.204   2.957   8.160  0.1625 -0.4349  1.5770
   32CHL1   C24 2356   3.096   3.069   8.301  0.0963  0.0304 -0.4925
   32CHL1  H24A 2357   3.142   3.170   8.294 -0.9116  0.3919 -2.0400
   32CHL1  H24B 2358   2.991   3.094   8.327  0.0869  0.4633 -0.9438
   32CHL1   C25 2359   3.158   2.974   8.409  0.1283 -0.4846 -0.0883
   32CHL1   H25 2360   3.247   2.920   8.372  1.1342 -0.0083  1.5819
   32CHL1   C26 2361   3.215   3.056   8.527 -0.4316  0.3446  0.1971
   32CHL1  H26A 2362   3.257   2.988   8.604 -0.5046 -2.1469 -1.8906
   32CHL1  H26B 2363   3.302   3.121   8.502  0.4283 -1.6450 -2.2089
   32CHL1  H26C 2364   3.129   3.107   8.575  1.0261  1.6063  1.5142
   32CHL1   C27 2365   3.056   2.868   8.457  0.3963  0.5996  0.3580
   32CHL1  H27A 2366   3.094   2.801   8.536 -1.9335 -1.1106  0.0864
   32CHL1  H27B 2367   2.976   2.929   8.504 -0.3299 -1.4705  1.8440
   32CHL1  H27C 2368   3.027   2.797   8.376  0.9758  0.5424  0.1997
   33CHL1    C3 2369   4.380   3.159   6.929  0.9686  0.5176  0.2657
   33CHL1    H3 2370   4.472   3.111   6.969 -1.4851 -3.5859  1.2141
   33CHL1    O3 2371   4.387   3.120   6.790 -0.0124  0.1441  0.5355
   33CHL1   H3' 2372   4.363   3.027   6.788 -2.4809  0.7198  1.4902
   33CHL1    C4 2373   4.249   3.114   6.990  0.4640  0.2267 -0.1114
   33CHL1   H4A 2374   4.167   3.160   6.931  1.3355  1.2226 -0.5668
   33CHL1   H4B 2375   4.232   3.006   6.969  0.1007  0.4223 -0.8270
   33CHL1    C5 2376   4.237   3.151   7.135  0.8240  0.0085 -0.5061
   33CHL1    C6 2377   4.216   3.061   7.228  0.1139  0.1070  0.1985
   33CHL1    H6 2378   4.202   2.955   7.200  0.2885  0.5287 -1.5432
   33CHL1    C7 2379   4.196   3.098   7.379  0.1814  0.3505  1.3429
   33CHL1   H7A 2380   4.108   3.040   7.416  0.3808 -1.4002 -0.8257
   33CHL1   H7B 2381   4.284   3.055   7.431 -0.2618 -1.5636  0.5369
   33CHL1    C8 2382   4.194   3.250   7.400  0.0682 -0.1572 -0.3091
   33CHL1    H8 2383   4.092   3.286   7.374  0.1570 -0.9013 -1.7380
   33CHL1   C14 2384   4.217   3.274   7.542 -0.2787  0.8153 -0.1995
   33CHL1   H14 2385   4.324   3.246   7.549 -1.5691 -4.3247  0.4184
   33CHL1   C15 2386   4.143   3.184   7.644 -0.2523  0.0221  0.5960
   33CHL1  H15A 2387   4.036   3.171   7.616 -0.6490  0.6177  1.7900
   33CHL1  H15B 2388   4.178   3.079   7.647  0.1779  0.1741  1.0189
   33CHL1   C16 2389   4.151   3.260   7.773 -0.0893  0.3926 -0.1572
   33CHL1  H16A 2390   4.051   3.288   7.813 -0.1094 -2.3529  1.8561
   33CHL1  H16B 2391   4.206   3.208   7.854  0.1852  1.7505  0.5512
   33CHL1   C17 2392   4.221   3.394   7.747 -0.2001 -1.0845 -0.2216
   33CHL1   H17 2393   4.329   3.377   7.767 -0.4256 -0.0174  2.0502
   33CHL1   C13 2394   4.211   3.419   7.596 -0.5450 -0.7569  0.6966
   33CHL1   C18 2395   4.074   3.492   7.554 -0.0400 -0.7523  0.2198
   33CHL1  H18A 2396   4.061   3.590   7.606 -0.0720 -1.1058  0.8853
   33CHL1  H18B 2397   4.059   3.511   7.446  0.5106 -1.8714 -0.0594
   33CHL1  H18C 2398   3.994   3.431   7.601 -1.2347  1.8470  1.6625
   33CHL1   C12 2399   4.323   3.492   7.523  0.0547 -0.5864 -0.1096
   33CHL1  H12A 2400   4.322   3.602   7.542 -3.7421 -0.8762  2.0338
   33CHL1  H12B 2401   4.421   3.450   7.554 -0.3513 -1.8021 -0.4470
   33CHL1   C11 2402   4.306   3.481   7.369 -0.1736 -0.3428  0.6629
   33CHL1  H11A 2403   4.224   3.547   7.334  1.9545  1.4525 -1.1318
   33CHL1  H11B 2404   4.401   3.512   7.320 -2.2013  1.6436 -2.1249
   33CHL1    C9 2405   4.286   3.331   7.315 -0.2477  0.4700  0.3063
   33CHL1    H9 2406   4.390   3.297   7.335 -0.2132  1.3373  1.6268
   33CHL1   C10 2407   4.264   3.307   7.159 -0.1843 -0.2373 -0.2158
   33CHL1   C19 2408   4.142   3.388   7.110  0.1122  0.3109 -0.2832
   33CHL1  H19A 2409   4.163   3.495   7.129  2.6084 -0.0134 -0.9950
   33CHL1  H19B 2410   4.126   3.367   7.002  3.7052  2.6888 -1.3709
   33CHL1  H19C 2411   4.046   3.354   7.153  1.7642 -2.4799  1.4004
   33CHL1    C1 2412   4.396   3.349   7.090  0.7820 -0.2004 -0.1768
   33CHL1   H1A 2413   4.396   3.459   7.108 -0.1079 -0.3108  0.5897
   33CHL1   H1B 2414   4.483   3.305   7.143  1.0894 -1.7083 -1.8708
   33CHL1    C2 2415   4.389   3.311   6.938  0.0248 -0.7391 -0.1634
   33CHL1   H2A 2416   4.484   3.349   6.895  0.5868 -1.6676  0.2398
   33CHL1   H2B 2417   4.301   3.361   6.892 -0.6742 -3.1403 -1.5460
   33CHL1   C20 2418   4.179   3.502   7.846 -0.7117  0.2610 -0.2307
   33CHL1   H20 2419   4.069   3.511   7.834 -0.8217 -0.3332  0.2520
   33CHL1   C21 2420   4.251   3.638   7.816  0.0883  0.1185  0.0305
   33CHL1  H21A 2421   4.219   3.673   7.715 -0.7080  0.3573  0.3572
   33CHL1  H21B 2422   4.361   3.631   7.806  0.3163  1.2179  1.5155
   33CHL1  H21C 2423   4.227   3.713   7.895  0.9449 -1.6027  1.9609
   33CHL1   C22 2424   4.193   3.469   8.001  0.5350 -0.2821 -0.8656
   33CHL1  H22A 2425   4.178   3.360   8.016 -0.5217 -0.0261 -0.0389
   33CHL1  H22B 2426   4.295   3.488   8.041  0.5468 -4.2266  1.2745
   33CHL1   C23 2427   4.093   3.547   8.083  0.6883  0.2979 -0.1519
   33CHL1  H23A 2428   4.124   3.653   8.092 -0.4021  0.8693 -2.6463
   33CHL1  H23B 2429   3.992   3.540   8.035  0.3219 -0.9104  0.7640
   33CHL1   C24 2430   4.081   3.499   8.233  0.3585 -0.1939 -0.3870
   33CHL1  H24A 2431   4.063   3.390   8.235  0.4540 -0.2920 -2.9459
   33CHL1  H24B 2432   4.182   3.506   8.277  0.4024 -0.4307 -0.4497
   33CHL1   C25 2433   3.973   3.566   8.321 -1.2196 -0.6724 -0.2082
   33CHL1   H25 2434   3.873   3.547   8.277 -2.5357 -0.0083  2.3773
   33CHL1   C26 2435   3.982   3.494   8.455 -0.5362  0.2012  1.1000
   33CHL1  H26A 2436   3.965   3.384   8.451  2.0652 -0.1914 -0.2594
   33CHL1  H26B 2437   4.083   3.514   8.496  0.2050  1.1415 -1.0997
   33CHL1  H26C 2438   3.910   3.538   8.528 -1.2720 -1.5979  1.4763
   33CHL1   C27 2439   3.989   3.721   8.337  0.1602 -0.1300 -0.9926
   33CHL1  H27A 2440   4.097   3.741   8.355 -0.1122  0.2564  0.2899
   33CHL1  H27B 2441   3.944   3.764   8.246 -0.9539  1.1512  0.1411
   33CHL1  H27C 2442   3.922   3.750   8.420  1.8293  0.8298  0.0472
   34CHL1    C3 2443   5.263   2.135   7.083  0.1426  0.1106  1.3281
   34CHL1    H3 2444   5.154   2.132   7.103 -0.9354  1.4065 -3.6757
   34CHL1    O3 2445   5.282   2.144   6.940 -0.5768 -0.2176 -0.0765
   34CHL1   H3' 2446   5.364   2.098   6.923 -0.1693  0.4218  0.1783
   34CHL1    C4 2447   5.325   2.252   7.153  0.0318 -0.7445 -0.5557
   34CHL1   H4A 2448   5.431   2.263   7.120 -0.1454 -2.9051 -1.9599
   34CHL1   H4B 2449   5.272   2.340   7.112 -0.8442 -2.5554 -3.3754
   34CHL1    C5 2450   5.314   2.243   7.305 -0.2974 -0.2883  0.1787
   34CHL1    C6 2451   5.249   2.339   7.368  0.0137  0.1812 -0.7557
   34CHL1    H6 2452   5.208   2.427   7.318 -1.3329  0.3394  0.5759
   34CHL1    C7 2453   5.237   2.336   7.524 -0.3882  0.6443  0.4610
   34CHL1   H7A 2454   5.252   2.441   7.555  0.7733 -0.0018  2.1529
   34CHL1   H7B 2455   5.132   2.314   7.550  0.0673 -1.2130  0.8227
   34CHL1    C8 2456   5.334   2.234   7.589  0.0988  0.3667  1.3960
   34CHL1    H8 2457   5.434   2.282   7.592  1.0487 -1.5278  0.3165
   34CHL1   C14 2458   5.297   2.222   7.730 -0.4008  0.5165 -0.1964
   34CHL1   H14 2459   5.194   2.182   7.729  0.1764 -1.0580  0.2562
   34CHL1   C15 2460   5.272   2.347   7.814 -0.7642 -0.0030 -0.6976
   34CHL1  H15A 2461   5.344   2.424   7.780  2.0240 -1.6935  1.1628
   34CHL1  H15B 2462   5.164   2.373   7.807 -0.5854  0.3409 -2.2524
   34CHL1   C16 2463   5.294   2.302   7.954  0.5883  0.1468 -0.3731
   34CHL1  H16A 2464   5.376   2.356   8.007  0.4109  3.4896 -3.3256
   34CHL1  H16B 2465   5.201   2.313   8.014  0.4684  0.5697 -0.6343
   34CHL1   C17 2466   5.334   2.148   7.950  0.0447  0.8111 -0.2198
   34CHL1   H17 2467   5.239   2.091   7.962 -0.8099  2.1661 -0.4254
   34CHL1   C13 2468   5.383   2.124   7.808 -0.0774  0.4175 -0.1848
   34CHL1   C18 2469   5.529   2.177   7.813  0.0541  0.0655  0.0853
   34CHL1  H18A 2470   5.563   2.194   7.708  1.7676 -1.5516  0.3521
   34CHL1  H18B 2471   5.541   2.277   7.861 -1.5667  0.3442 -0.0837
   34CHL1  H18C 2472   5.599   2.101   7.854 -0.6740 -0.1987  0.8353
   34CHL1   C12 2473   5.374   1.987   7.751  0.5745  0.0321  0.2088
   34CHL1  H12A 2474   5.433   1.908   7.803  0.9129  0.4110  0.3983
   34CHL1  H12B 2475   5.266   1.960   7.758 -0.0359  2.0885 -1.0063
   34CHL1   C11 2476   5.404   1.984   7.598  0.2566  0.4895 -0.1613
   34CHL1  H11A 2477   5.513   1.998   7.588  0.3971 -1.3698 -1.5571
   34CHL1  H11B 2478   5.406   1.879   7.562 -0.1621  0.1815  0.7146
   34CHL1    C9 2479   5.340   2.097   7.517 -0.1285  0.2526  0.0235
   34CHL1    H9 2480   5.233   2.068   7.532  0.2228 -1.9446 -1.4588
   34CHL1   C10 2481   5.374   2.112   7.366 -0.5852 -0.5019 -1.1123
   34CHL1   C19 2482   5.528   2.123   7.360  0.2850  0.0614  0.4927
   34CHL1  H19A 2483   5.585   2.034   7.396  0.3596  0.2970  0.9649
   34CHL1  H19B 2484   5.562   2.138   7.255  1.0706 -2.1000  0.4081
   34CHL1  H19C 2485   5.571   2.204   7.422  0.2349 -0.6713  1.4923
   34CHL1    C1 2486   5.328   1.990   7.281 -0.4248 -0.1314 -0.1867
   34CHL1   H1A 2487   5.377   1.894   7.306  1.0916  1.2564  2.3690
   34CHL1   H1B 2488   5.224   1.986   7.320 -0.3729  3.5951  0.5452
   34CHL1    C2 2489   5.331   2.003   7.121  0.5937 -0.3535  0.3561
   34CHL1   H2A 2490   5.279   1.918   7.074  0.8558 -1.4214  1.9595
   34CHL1   H2B 2491   5.438   1.993   7.093  1.1276  0.9472  1.7996
   34CHL1   C20 2492   5.416   2.106   8.069 -0.1231 -0.4661  0.0250
   34CHL1   H20 2493   5.516   2.154   8.068  0.4963 -1.6472  1.6575
   34CHL1   C21 2494   5.460   1.957   8.055  0.0616 -0.1773  0.2058
   34CHL1  H21A 2495   5.388   1.888   8.006  0.2729 -1.7159  2.0019
   34CHL1  H21B 2496   5.491   1.919   8.155  0.1377  1.0122  0.6480
   34CHL1  H21C 2497   5.545   1.958   7.983 -0.3000 -0.7678 -0.2352
   34CHL1   C22 2498   5.355   2.139   8.214  0.1038 -0.6757  0.2399
   34CHL1  H22A 2499   5.304   2.238   8.208  0.1770 -0.5375  1.6767
   34CHL1  H22B 2500   5.271   2.071   8.241 -0.6303  0.6344  1.3512
   34CHL1   C23 2501   5.452   2.131   8.334 -0.0222  0.5287 -0.7100
   34CHL1  H23A 2502   5.511   2.039   8.314 -0.8450 -0.0539 -0.5013
   34CHL1  H23B 2503   5.525   2.214   8.339  1.1057 -0.4867  0.1489
   34CHL1   C24 2504   5.388   2.140   8.471 -0.0943 -0.9174  0.3318
   34CHL1  H24A 2505   5.297   2.203   8.473 -0.7472 -1.8536  0.7321
   34CHL1  H24B 2506   5.358   2.037   8.502 -1.3519 -0.9468 -0.9424
   34CHL1   C25 2507   5.485   2.182   8.588 -0.6783 -0.1883  0.1446
   34CHL1   H25 2508   5.530   2.281   8.568 -0.6685 -0.5179 -1.5700
   34CHL1   C26 2509   5.408   2.192   8.721 -0.0095  0.1671 -0.2479
   34CHL1  H26A 2510   5.336   2.108   8.738 -0.8265  0.6562 -1.2537
   34CHL1  H26B 2511   5.474   2.200   8.810 -0.4361  0.9087  0.0021
   34CHL1  H26C 2512   5.351   2.287   8.718 -1.1833 -0.5905 -3.8254
   34CHL1   C27 2513   5.598   2.076   8.608  0.7341 -0.2942  0.3261
   34CHL1  H27A 2514   5.622   2.032   8.508 -1.2352 -1.7199  0.4587
   34CHL1  H27B 2515   5.695   2.106   8.653  0.2567 -0.3488  1.3849
   34CHL1  H27C 2516   5.558   1.982   8.652  0.3370 -1.7234 -2.9118
   35CHL1    C3 2517   1.462   2.637   7.264  0.0688 -0.0773 -0.8948
   35CHL1    H3 2518   1.389   2.560   7.298  0.3990 -0.7186 -1.6204
   35CHL1    O3 2519   1.457   2.652   7.124 -0.3924 -0.2006  0.0171
   35CHL1   H3' 2520   1.550   2.649   7.100 -0.9672  0.3416 -2.4570
   35CHL1    C4 2521   1.415   2.772   7.322  0.5505  0.1842 -0.1412
   35CHL1   H4A 2522   1.484   2.855   7.295  0.0526  0.7823  0.4147
   35CHL1   H4B 2523   1.318   2.800   7.275  0.9713 -2.3705 -2.6310
   35CHL1    C5 2524   1.411   2.766   7.478  0.4052  0.3386  0.1165
   35CHL1    C6 2525   1.299   2.798   7.545  0.2069  0.4750  0.7556
   35CHL1    H6 2526   1.210   2.818   7.483  1.5225  0.6326 -1.1273
   35CHL1    C7 2527   1.288   2.794   7.697  0.6273  0.6324  0.2071
   35CHL1   H7A 2528   1.229   2.881   7.732  0.5141  0.6634 -0.0595
   35CHL1   H7B 2529   1.210   2.721   7.727  0.7491  0.0914 -0.7646
   35CHL1    C8 2530   1.430   2.771   7.768  0.7416  0.5694  0.4891
   35CHL1    H8 2531   1.483   2.869   7.768  1.6115  0.1455 -2.3008
   35CHL1   C14 2532   1.409   2.732   7.908  0.4421  0.5501 -0.1462
   35CHL1   H14 2533   1.372   2.627   7.906 -0.5773  0.9115 -1.0137
   35CHL1   C15 2534   1.320   2.826   7.992  0.4664  0.3453 -0.5554
   35CHL1  H15A 2535   1.325   2.931   7.956 -1.8458  0.5915 -0.2014
   35CHL1  H15B 2536   1.215   2.800   7.968  0.1246  1.9306 -0.8127
   35CHL1   C16 2537   1.355   2.784   8.132 -0.2758 -0.6353  0.4375
   35CHL1  H16A 2538   1.387   2.874   8.187 -1.6706 -0.5735  1.1669
   35CHL1  H16B 2539   1.272   2.739   8.190  2.2738 -3.5771  1.9185
   35CHL1   C17 2540   1.474   2.680   8.126 -0.3792  0.2216  0.0085
   35CHL1   H17 2541   1.436   2.575   8.122  0.1583 -0.0089  0.9140
   35CHL1   C13 2542   1.536   2.713   7.983  0.2156  0.3142 -0.6005
   35CHL1   C18 2543   1.621   2.850   7.991 -1.0992 -0.0462 -0.3900
   35CHL1  H18A 2544   1.643   2.900   7.895 -0.7822  0.7612  0.1025
   35CHL1  H18B 2545   1.580   2.927   8.059  1.8220  2.6515 -1.6055
   35CHL1  H18C 2546   1.712   2.825   8.049 -1.2983 -0.1822 -0.1295
   35CHL1   C12 2547   1.622   2.602   7.913 -0.6076  0.2516  0.7935
   35CHL1  H12A 2548   1.716   2.584   7.970  0.5896 -0.3229 -1.2871
   35CHL1  H12B 2549   1.563   2.509   7.901  0.9238 -0.5390 -0.8427
   35CHL1   C11 2550   1.646   2.648   7.766  0.1241  0.4545  0.7367
   35CHL1  H11A 2551   1.713   2.736   7.778 -1.3413  1.6245  0.4761
   35CHL1  H11B 2552   1.712   2.568   7.726 -1.3979 -0.7408  0.5986
   35CHL1    C9 2553   1.517   2.677   7.691  0.3601  0.3552 -0.0515
   35CHL1    H9 2554   1.457   2.584   7.699  1.8221 -0.4383  2.1736
   35CHL1   C10 2555   1.534   2.705   7.538 -0.4829  0.0311 -0.0704
   35CHL1   C19 2556   1.649   2.814   7.522  0.3397 -0.0735 -0.3193
   35CHL1  H19A 2557   1.746   2.766   7.549 -1.2185 -2.4574  1.2117
   35CHL1  H19B 2558   1.654   2.851   7.417  0.8549 -0.9987 -0.6283
   35CHL1  H19C 2559   1.637   2.902   7.588 -1.7963 -1.6240  1.4214
   35CHL1    C1 2560   1.586   2.581   7.467 -0.4195  0.2912  0.5306
   35CHL1   H1A 2561   1.687   2.558   7.507 -0.6770  0.1125  1.0789
   35CHL1   H1B 2562   1.512   2.501   7.488 -1.7178  1.6119  1.0970
   35CHL1    C2 2563   1.601   2.594   7.314  1.0276 -0.2215 -0.3615
   35CHL1   H2A 2564   1.620   2.497   7.264  2.3217 -0.7914  1.2051
   35CHL1   H2B 2565   1.684   2.664   7.289  0.1625  1.4935  1.4730
   35CHL1   C20 2566   1.568   2.696   8.252 -0.0830  0.0418  0.0155
   35CHL1   H20 2567   1.588   2.804   8.264  1.7108 -0.0973 -1.4867
   35CHL1   C21 2568   1.716   2.637   8.239 -0.9822  0.0714 -0.5376
   35CHL1  H21A 2569   1.767   2.654   8.337 -0.7496 -1.8773 -0.3050
   35CHL1  H21B 2570   1.776   2.688   8.161 -0.8993  0.4864 -0.2048
   35CHL1  H21C 2571   1.693   2.530   8.221 -1.1836 -0.1271  0.8480
   35CHL1   C22 2572   1.492   2.621   8.374  0.4955 -0.9020  0.0046
   35CHL1  H22A 2573   1.406   2.687   8.400  1.2637  0.4021 -0.6998
   35CHL1  H22B 2574   1.469   2.518   8.340  0.7903 -1.3613  1.1919
   35CHL1   C23 2575   1.568   2.610   8.505  0.8660  0.3337  0.2350
   35CHL1  H23A 2576   1.499   2.570   8.583 -0.2070 -0.8661 -1.2999
   35CHL1  H23B 2577   1.648   2.534   8.495 -0.4954 -0.8244 -2.7313
   35CHL1   C24 2578   1.638   2.744   8.550  0.3858  1.2719 -0.3563
   35CHL1  H24A 2579   1.705   2.794   8.476 -0.7927 -0.2935 -2.5486
   35CHL1  H24B 2580   1.551   2.809   8.572 -0.4075 -0.0565  0.5261
   35CHL1   C25 2581   1.739   2.730   8.676  0.2343  0.5479 -0.4540
   35CHL1   H25 2582   1.675   2.682   8.753 -1.8333 -0.4516 -2.7431
   35CHL1   C26 2583   1.854   2.635   8.635  0.2560  0.2604 -0.2014
   35CHL1  H26A 2584   1.892   2.668   8.536 -0.7586 -0.3906 -0.8219
   35CHL1  H26B 2585   1.925   2.639   8.720 -2.1448 -1.5883  1.9807
   35CHL1  H26C 2586   1.809   2.533   8.630 -0.1462  0.3852  0.8002
   35CHL1   C27 2587   1.787   2.873   8.708 -0.3492  0.1985  0.3000
   35CHL1  H27A 2588   1.833   2.884   8.809  2.6675 -1.4301 -0.8369
   35CHL1  H27B 2589   1.710   2.953   8.698  1.0889  1.5236 -0.5068
   35CHL1  H27C 2590   1.876   2.895   8.645  0.5505  1.6387  2.0318
   36CHL1    C3 2591   2.080   2.227   7.130  0.1355  1.3768  0.8082
   36CHL1    H3 2592   2.188   2.218   7.152 -0.0216 -0.5119  0.9009
   36CHL1    O3 2593   2.065   2.231   6.984  0.3407 -0.1867  0.6060
   36CHL1   H3' 2594   2.107   2.312   6.952  0.4679  0.2743  1.8963
   36CHL1    C4 2595   2.002   2.112   7.197  0.1016 -0.1935  0.7738
   36CHL1   H4A 2596   1.897   2.116   7.163 -0.1039 -0.9972  1.2973
   36CHL1   H4B 2597   2.048   2.020   7.154  2.5758  2.4617 -2.5625
   36CHL1    C5 2598   2.009   2.128   7.351  0.4432  0.0683 -0.3419
   36CHL1    C6 2599   2.052   2.026   7.428  0.0368  0.1274 -0.2613
   36CHL1    H6 2600   2.080   1.926   7.391 -0.6419 -0.0589 -0.2686
   36CHL1    C7 2601   2.056   2.032   7.579 -0.2214  0.0799  0.8124
   36CHL1   H7A 2602   1.989   1.952   7.618  0.3213 -1.8236 -2.0246
   36CHL1   H7B 2603   2.158   2.005   7.615 -0.2053 -2.2505 -0.8968
   36CHL1    C8 2604   2.012   2.166   7.651 -0.0380  0.1622 -0.6834
   36CHL1    H8 2605   1.901   2.165   7.665  0.0482 -0.6654  0.0223
   36CHL1   C14 2606   2.070   2.191   7.786  0.6241  0.0281 -0.0264
   36CHL1   H14 2607   2.180   2.194   7.766  0.4610  0.5373 -0.8855
   36CHL1   C15 2608   2.047   2.083   7.892 -0.1069 -0.0162  0.0904
   36CHL1  H15A 2609   1.937   2.068   7.886  0.0885 -0.9801 -1.2965
   36CHL1  H15B 2610   2.098   1.986   7.880 -1.4078 -0.8796  1.3318
   36CHL1   C16 2611   2.093   2.153   8.023 -0.1688 -0.3777 -0.6223
   36CHL1  H16A 2612   2.003   2.144   8.087 -0.4854 -1.2783 -1.1903
   36CHL1  H16B 2613   2.187   2.110   8.064  0.8070  2.3436  0.1246
   36CHL1   C17 2614   2.109   2.305   7.990  0.3361  0.5175  0.0951
   36CHL1   H17 2615   2.218   2.312   7.969  0.7555 -0.6073  1.7966
   36CHL1   C13 2616   2.037   2.319   7.857  0.1260  0.0538 -0.3291
   36CHL1   C18 2617   1.882   2.340   7.878  0.0086  0.3695 -0.4177
   36CHL1  H18A 2618   1.852   2.257   7.946 -1.1348 -0.9110 -2.4066
   36CHL1  H18B 2619   1.850   2.437   7.922 -0.4194 -1.0755  2.5903
   36CHL1  H18C 2620   1.826   2.336   7.782  0.7177  0.7337 -0.8464
   36CHL1   C12 2621   2.094   2.421   7.759 -0.5439 -0.3759 -0.6168
   36CHL1  H12A 2622   2.074   2.522   7.801  0.4395 -0.2597 -0.4337
   36CHL1  H12B 2623   2.204   2.407   7.762 -0.2900  1.7649  1.4930
   36CHL1   C11 2624   2.034   2.418   7.618  0.8267 -0.1972  0.7612
   36CHL1  H11A 2625   1.927   2.446   7.622  0.7172 -0.5803  0.5891
   36CHL1  H11B 2626   2.077   2.495   7.550  1.0181 -1.8204 -1.0248
   36CHL1    C9 2627   2.044   2.281   7.555  0.7744  0.1106  0.6753
   36CHL1    H9 2628   2.151   2.271   7.528  0.4437 -1.4951 -0.1464
   36CHL1   C10 2629   1.973   2.262   7.413 -0.6937  0.2665  0.8323
   36CHL1   C19 2630   1.827   2.279   7.434  0.1911  0.1285 -0.0259
   36CHL1  H19A 2631   1.789   2.249   7.533 -3.2431  0.9143 -1.0588
   36CHL1  H19B 2632   1.802   2.386   7.418 -0.5573 -0.1630 -0.7991
   36CHL1  H19C 2633   1.766   2.228   7.356 -0.5897  0.9887  0.0199
   36CHL1    C1 2634   2.037   2.376   7.328  0.2375 -0.0643  0.8870
   36CHL1   H1A 2635   1.994   2.476   7.350 -0.0213  0.5293 -2.0591
   36CHL1   H1B 2636   2.145   2.375   7.354  0.9540  1.4775 -1.8702
   36CHL1    C2 2637   2.025   2.356   7.174  0.3450 -0.1813 -0.1673
   36CHL1   H2A 2638   2.073   2.432   7.108 -1.4176  0.8456 -0.2803
   36CHL1   H2B 2639   1.917   2.363   7.152  0.4969  0.5307 -0.7262
   36CHL1   C20 2640   2.076   2.396   8.112 -0.1601  0.7005 -0.7735
   36CHL1   H20 2641   1.965   2.397   8.120 -0.0923  2.4755  0.2342
   36CHL1   C21 2642   2.133   2.536   8.084 -0.5041 -0.5275 -0.0703
   36CHL1  H21A 2643   2.114   2.609   8.166 -0.6596 -0.9966  0.3134
   36CHL1  H21B 2644   2.095   2.575   7.987 -2.8968 -0.0965  1.0124
   36CHL1  H21C 2645   2.243   2.523   8.072 -0.4134  1.4669 -1.6909
   36CHL1   C22 2646   2.130   2.352   8.250 -0.4050  0.1909 -0.2056
   36CHL1  H22A 2647   2.138   2.242   8.263  2.7326  0.2836 -0.9851
   36CHL1  H22B 2648   2.233   2.392   8.259 -1.0267  1.7400  0.3645
   36CHL1   C23 2649   2.036   2.409   8.359 -0.6449  0.1761  0.3758
   36CHL1  H23A 2650   2.049   2.519   8.358  4.2183 -0.2895 -1.0379
   36CHL1  H23B 2651   1.931   2.388   8.329 -1.2322  0.5641  2.1051
   36CHL1   C24 2652   2.074   2.365   8.503  0.0086  0.1345  0.8132
   36CHL1  H24A 2653   1.994   2.410   8.567  0.2720 -0.4515  1.5565
   36CHL1  H24B 2654   2.061   2.255   8.503 -1.0662  0.2523  0.9241
   36CHL1   C25 2655   2.207   2.414   8.554  0.4314 -0.4469  0.4017
   36CHL1   H25 2656   2.284   2.340   8.522 -0.1885 -1.9105  2.1691
   36CHL1   C26 2657   2.253   2.552   8.493  0.2442 -0.4889  0.5601
   36CHL1  H26A 2658   2.318   2.601   8.567  0.4023  0.9484 -0.5210
   36CHL1  H26B 2659   2.307   2.529   8.398 -0.2727  1.4209 -0.2211
   36CHL1  H26C 2660   2.165   2.618   8.480 -0.2061 -1.1998 -0.1361
   36CHL1   C27 2661   2.198   2.417   8.711  0.0771  0.6697  0.3115
   36CHL1  H27A 2662   2.297   2.446   8.750  0.4891  0.5399 -0.6280
   36CHL1  H27B 2663   2.126   2.496   8.744 -2.3771 -0.4974 -2.0209
   36CHL1  H27C 2664   2.166   2.320   8.754 -1.0255  1.2724  0.8705
   37CHL1    C3 2665   5.940   4.382   6.912  0.1203 -0.5006  0.2162
   37CHL1    H3 2666   6.030   4.447   6.902 -0.4222 -0.0506 -1.9230
   37CHL1    O3 2667   5.925   4.316   6.787 -0.1379  0.4705  0.2895
   37CHL1   H3' 2668   5.877   4.235   6.805 -2.1460  1.1351 -1.7405
   37CHL1    C4 2669   5.954   4.284   7.020  0.0652 -0.1255  0.4390
   37CHL1   H4A 2670   5.870   4.212   7.028  1.3870 -2.1000 -2.7492
   37CHL1   H4B 2671   6.051   4.237   6.996 -0.9068  0.1749 -4.6231
   37CHL1    C5 2672   5.955   4.351   7.155  0.1384 -0.1454  0.3928
   37CHL1    C6 2673   6.058   4.333   7.234  0.1168 -0.6222 -0.3295
   37CHL1    H6 2674   6.136   4.261   7.205  0.2621 -0.6585  0.1402
   37CHL1    C7 2675   6.057   4.384   7.376  0.4913  0.3079  0.0829
   37CHL1   H7A 2676   6.089   4.306   7.449 -2.1188 -0.0840  0.8687
   37CHL1   H7B 2677   6.136   4.462   7.376  0.3136  0.5128  1.7816
   37CHL1    C8 2678   5.926   4.441   7.425  0.0278  0.5849  0.0926
   37CHL1    H8 2679   5.849   4.366   7.455  0.5568 -0.9055 -2.1583
   37CHL1   C14 2680   5.944   4.523   7.552 -0.6144  0.9774  0.4928
   37CHL1   H14 2681   6.018   4.601   7.526 -0.5891  0.0791 -2.3499
   37CHL1   C15 2682   6.004   4.446   7.674 -0.6665 -1.4394 -0.0795
   37CHL1  H15A 2683   5.949   4.354   7.705  0.6850 -2.1099  0.3806
   37CHL1  H15B 2684   6.113   4.427   7.659 -0.4645 -0.4227  0.0720
   37CHL1   C16 2685   5.957   4.540   7.792 -0.3576 -0.4400 -0.2186
   37CHL1  H16A 2686   5.909   4.487   7.877 -0.8273 -0.5954 -0.5788
   37CHL1  H16B 2687   6.041   4.601   7.833 -1.5981  0.5435  0.9233
   37CHL1   C17 2688   5.859   4.649   7.732 -1.2355 -1.0070  0.1050
   37CHL1   H17 2689   5.913   4.740   7.697 -1.6724 -0.8706 -0.2225
   37CHL1   C13 2690   5.814   4.585   7.596 -0.0850 -0.1869  0.3375
   37CHL1   C18 2691   5.703   4.479   7.626  0.0514 -0.3487 -0.0017
   37CHL1  H18A 2692   5.736   4.403   7.700  0.8711  0.0797  0.0799
   37CHL1  H18B 2693   5.610   4.520   7.670  0.1544 -1.1501  0.9849
   37CHL1  H18C 2694   5.676   4.421   7.535  0.2887 -0.7650  0.1908
   37CHL1   C12 2695   5.781   4.687   7.489  0.2469 -0.3557  1.1858
   37CHL1  H12A 2696   5.689   4.738   7.525 -0.7842 -1.8348  0.7158
   37CHL1  H12B 2697   5.868   4.755   7.481 -0.5961  0.5433 -0.6246
   37CHL1   C11 2698   5.756   4.624   7.354 -0.2381  0.2941 -0.0008
   37CHL1  H11A 2699   5.660   4.571   7.371 -0.7930  1.3461  0.1914
   37CHL1  H11B 2700   5.737   4.709   7.285  1.4317  0.1632 -0.6394
   37CHL1    C9 2701   5.868   4.531   7.308 -0.5905 -0.0352 -0.3887
   37CHL1    H9 2702   5.946   4.607   7.289  1.7142 -1.7678  1.8560
   37CHL1   C10 2703   5.839   4.444   7.177  0.0865  0.4811  0.4016
   37CHL1   C19 2704   5.706   4.370   7.203 -0.3941 -0.6074 -0.0277
   37CHL1  H19A 2705   5.711   4.341   7.310  2.9172  0.9758  0.3013
   37CHL1  H19B 2706   5.618   4.436   7.186  0.9027  1.2296  0.1793
   37CHL1  H19C 2707   5.692   4.281   7.138  1.6190  0.2020 -1.6025
   37CHL1    C1 2708   5.810   4.541   7.055  0.6085 -0.0954 -0.2185
   37CHL1   H1A 2709   5.716   4.600   7.065  0.3577 -0.4344 -0.5366
   37CHL1   H1B 2710   5.894   4.613   7.057  1.0800 -0.6821  1.4953
   37CHL1    C2 2711   5.807   4.464   6.928  0.3527  0.7792  0.3713
   37CHL1   H2A 2712   5.782   4.530   6.843 -1.0106 -0.0284  0.1353
   37CHL1   H2B 2713   5.717   4.400   6.924  1.5321 -0.9603  1.1241
   37CHL1   C20 2714   5.758   4.690   7.847 -0.1346  0.2834  0.4425
   37CHL1   H20 2715   5.715   4.600   7.895  2.6537  0.1419  2.8330
   37CHL1   C21 2716   5.638   4.772   7.796 -0.3724 -0.1327  0.2149
   37CHL1  H21A 2717   5.565   4.713   7.737 -0.4924  0.6889 -0.4684
   37CHL1  H21B 2718   5.679   4.856   7.736 -0.7257 -0.5456 -0.6155
   37CHL1  H21C 2719   5.587   4.817   7.884  2.3755  3.6198 -0.0108
   37CHL1   C22 2720   5.837   4.772   7.958 -0.1370  0.4739  0.6871
   37CHL1  H22A 2721   5.940   4.730   7.966  0.0005  0.1009 -2.2573
   37CHL1  H22B 2722   5.842   4.876   7.917  0.7921  0.2161  0.1191
   37CHL1   C23 2723   5.774   4.780   8.097  0.4130  0.1993 -0.1193
   37CHL1  H23A 2724   5.674   4.829   8.090  0.9992  1.5377  0.6104
   37CHL1  H23B 2725   5.762   4.678   8.140 -1.0127  0.3425 -0.1589
   37CHL1   C24 2726   5.854   4.859   8.199  0.3941 -0.0263  0.5874
   37CHL1  H24A 2727   5.960   4.825   8.196 -0.0596 -1.7011  2.6764
   37CHL1  H24B 2728   5.862   4.967   8.174 -0.5761 -0.2195 -0.5774
   37CHL1   C25 2729   5.821   4.835   8.356  0.3245  0.5729 -0.3186
   37CHL1   H25 2730   5.822   4.728   8.386 -0.9283  1.1922  2.0400
   37CHL1   C26 2731   5.916   4.913   8.439 -0.1130  0.3017  0.4587
   37CHL1  H26A 2732   5.898   4.894   8.547  0.0915 -1.4771  0.1944
   37CHL1  H26B 2733   6.018   4.890   8.401 -0.9812 -0.8202 -1.2594
   37CHL1  H26C 2734   5.886   5.020   8.433 -0.2029  0.2819  0.5521
   37CHL1   C27 2735   5.671   4.879   8.372 -0.5052  0.0644 -0.1746
   37CHL1  H27A 2736   5.639   4.872   8.478 -0.9634 -0.1365 -0.3242
   37CHL1  H27B 2737   5.650   4.978   8.327  0.4517 -0.4782 -1.8923
   37CHL1  H27C 2738   5.601   4.809   8.321 -1.4370  0.6048  0.3681
   38CHL1    C3 2739   2.016   4.860   6.775 -0.2930 -0.1266  0.1319
   38CHL1    H3 2740   1.959   4.955   6.782 -2.1137 -0.9758 -2.1067
   38CHL1    O3 2741   2.028   4.843   6.633  0.5211 -0.1402 -0.4836
   38CHL1   H3' 2742   2.081   4.763   6.628 -0.1150 -0.6186  0.2524
   38CHL1    C4 2743   2.156   4.888   6.821 -0.6547  0.3806 -0.2240
   38CHL1   H4A 2744   2.236   4.818   6.789 -0.3191  0.5673  0.2060
   38CHL1   H4B 2745   2.192   4.984   6.778  0.8528  0.7070  1.7166
   38CHL1    C5 2746   2.167   4.888   6.973  0.2014  0.6941 -0.1128
   38CHL1    C6 2747   2.210   4.993   7.036 -0.4345  0.0804 -0.1342
   38CHL1    H6 2748   2.253   5.076   6.978  2.1527 -0.5770  0.7611
   38CHL1    C7 2749   2.229   5.002   7.185  0.0336  0.4839 -0.0758
   38CHL1   H7A 2750   2.309   5.078   7.198  0.5303  0.7648 -3.9964
   38CHL1   H7B 2751   2.140   5.060   7.216  0.5093  0.0568  2.1290
   38CHL1    C8 2752   2.232   4.865   7.257 -0.1623 -0.2817 -0.0596
   38CHL1    H8 2753   2.327   4.809   7.249 -0.8665 -1.6024  0.6572
   38CHL1   C14 2754   2.196   4.886   7.401 -0.0457 -0.6455 -0.2191
   38CHL1   H14 2755   2.092   4.927   7.403 -0.5539 -1.9493  1.3441
   38CHL1   C15 2756   2.285   4.987   7.480  0.1089  0.4219 -0.6209
   38CHL1  H15A 2757   2.390   4.951   7.472 -0.2937 -1.4590  1.7511
   38CHL1  H15B 2758   2.261   5.088   7.442 -0.6180  0.0105 -1.2631
   38CHL1   C16 2759   2.235   4.969   7.624 -0.5874 -1.1010  0.2400
   38CHL1  H16A 2760   2.333   4.960   7.676  0.6917 -1.0851 -2.0772
   38CHL1  H16B 2761   2.176   5.059   7.653  1.7420  0.5381  0.0776
   38CHL1   C17 2762   2.150   4.837   7.631 -0.0293 -0.0079 -0.2191
   38CHL1   H17 2763   2.042   4.865   7.634  0.1084  0.3771  1.0820
   38CHL1   C13 2764   2.185   4.764   7.499  0.1316  0.9445  0.8002
   38CHL1   C18 2765   2.329   4.696   7.510 -0.3790 -0.2418  0.2830
   38CHL1  H18A 2766   2.402   4.744   7.578 -1.8794 -2.2740  3.4401
   38CHL1  H18B 2767   2.321   4.597   7.559  0.6813 -0.8443 -0.7516
   38CHL1  H18C 2768   2.379   4.673   7.414  0.2515 -0.9037  0.7675
   38CHL1   C12 2769   2.076   4.667   7.433  0.3790 -0.9045  0.4335
   38CHL1  H12A 2770   2.078   4.565   7.478 -1.0620  0.0704  2.8014
   38CHL1  H12B 2771   1.980   4.719   7.453  0.8086  0.7448 -1.5700
   38CHL1   C11 2772   2.097   4.658   7.280 -0.1020 -0.8072 -0.2910
   38CHL1  H11A 2773   2.195   4.606   7.279  0.0816 -0.5049  0.9134
   38CHL1  H11B 2774   2.028   4.580   7.243 -0.3396 -0.6079 -0.2708
   38CHL1    C9 2775   2.113   4.784   7.200  0.5931 -0.3866  0.3053
   38CHL1    H9 2776   2.031   4.857   7.218 -0.9581 -1.5735 -1.7111
   38CHL1   C10 2777   2.111   4.764   7.046 -0.5274  0.2777 -0.1254
   38CHL1   C19 2778   2.207   4.649   7.001  0.1112 -0.0642 -0.0108
   38CHL1  H19A 2779   2.177   4.549   7.038  1.5123 -1.2785 -2.0349
   38CHL1  H19B 2780   2.202   4.634   6.891  0.3181 -0.2764  0.0079
   38CHL1  H19C 2781   2.315   4.653   7.026  0.5485 -2.5623 -1.3596
   38CHL1    C1 2782   1.968   4.734   7.000 -0.3127 -0.2720 -0.1202
   38CHL1   H1A 2783   1.964   4.627   7.028  0.7825 -0.8505 -2.1302
   38CHL1   H1B 2784   1.896   4.803   7.051  0.1123 -0.9365  1.4252
   38CHL1    C2 2785   1.957   4.733   6.844 -0.6624 -0.3672  0.0777
   38CHL1   H2A 2786   1.852   4.719   6.811 -0.8874  2.1089 -0.3270
   38CHL1   H2B 2787   2.001   4.644   6.794 -0.4887 -1.2481  1.7592
   38CHL1   C20 2788   2.168   4.756   7.759 -0.7366  0.5342 -0.2861
   38CHL1   H20 2789   2.269   4.708   7.764 -1.3983 -0.8591 -0.0344
   38CHL1   C21 2790   2.067   4.641   7.770 -0.2791 -0.1040  0.2124
   38CHL1  H21A 2791   2.101   4.567   7.695  1.8227  0.9894  0.0230
   38CHL1  H21B 2792   1.963   4.674   7.751 -2.0303 -4.6902  1.3321
   38CHL1  H21C 2793   2.065   4.595   7.871 -0.9117 -2.5675 -0.9100
   38CHL1   C22 2794   2.142   4.853   7.875 -0.0511 -0.0005  0.4633
   38CHL1  H22A 2795   2.196   4.948   7.857 -0.6039  0.3441  0.6226
   38CHL1  H22B 2796   2.035   4.877   7.860  0.2075  0.3760 -0.7828
   38CHL1   C23 2797   2.168   4.784   8.009 -0.1670 -0.2447  0.1233
   38CHL1  H23A 2798   2.100   4.699   8.029  1.3109 -2.0246 -2.1609
   38CHL1  H23B 2799   2.274   4.754   8.022 -0.7956 -2.7920 -0.2400
   38CHL1   C24 2800   2.131   4.891   8.114 -0.2328 -0.3804  1.0319
   38CHL1  H24A 2801   2.206   4.971   8.097 -0.4536 -0.2889  0.4883
   38CHL1  H24B 2802   2.032   4.934   8.092 -0.7448 -1.9538  0.1662
   38CHL1   C25 2803   2.114   4.841   8.261 -0.1256 -0.4329  0.3589
   38CHL1   H25 2804   2.047   4.753   8.254 -1.3540  0.6279 -1.6508
   38CHL1   C26 2805   2.249   4.792   8.320  0.2319  0.5297 -0.8128
   38CHL1  H26A 2806   2.298   4.720   8.250 -1.8070 -1.8651  0.1537
   38CHL1  H26B 2807   2.323   4.870   8.346  1.0588 -0.3705 -0.4234
   38CHL1  H26C 2808   2.223   4.735   8.411  3.0347 -0.5875 -0.6313
   38CHL1   C27 2809   2.046   4.933   8.359  0.3864 -0.1418 -0.0512
   38CHL1  H27A 2810   2.122   5.010   8.385  0.2133  0.3809 -1.0559
   38CHL1  H27B 2811   1.955   4.984   8.321 -0.0073  0.0829  1.1792
   38CHL1  H27C 2812   2.037   4.874   8.453  2.5639  2.0441  1.5744
   39CHL1    C3 2813   1.800   3.770   6.885 -0.5256  0.0178  0.1781
   39CHL1    H3 2814   1.724   3.688   6.882 -1.1705  0.3986  3.7972
   39CHL1    O3 2815   1.830   3.804   6.751  0.3277 -0.2547 -0.1836
   39CHL1   H3' 2816   1.911   3.853   6.764  1.3813 -2.2626  1.0178
   39CHL1    C4 2817   1.754   3.895   6.971  1.1253 -0.2241 -1.4572
   39CHL1   H4A 2818   1.830   3.972   6.946  0.7484  1.3894  2.1557
   39CHL1   H4B 2819   1.659   3.933   6.926  1.1206  3.0448  1.1231
   39CHL1    C5 2820   1.736   3.856   7.118  0.0973 -0.0039 -0.1121
   39CHL1    C6 2821   1.616   3.849   7.176 -0.0151 -0.1649 -0.7521
   39CHL1    H6 2822   1.531   3.874   7.111 -1.0855  1.6056  1.2896
   39CHL1    C7 2823   1.588   3.806   7.318  0.2837  0.2878  0.3824
   39CHL1   H7A 2824   1.509   3.865   7.368  0.6634  2.3448 -1.3887
   39CHL1   H7B 2825   1.562   3.698   7.326  0.5457  0.1665 -0.4078
   39CHL1    C8 2826   1.716   3.823   7.402 -0.0783  0.9521 -0.6348
   39CHL1    H8 2827   1.729   3.933   7.403 -1.7516  1.1693  1.9937
   39CHL1   C14 2828   1.706   3.767   7.551 -0.6158 -0.2407  0.7159
   39CHL1   H14 2829   1.695   3.657   7.540  1.6310 -0.3839 -0.3732
   39CHL1   C15 2830   1.581   3.809   7.633  0.7764 -0.0387  0.9644
   39CHL1  H15A 2831   1.569   3.919   7.629 -0.1197 -0.1075  1.5333
   39CHL1  H15B 2832   1.484   3.763   7.603  0.1843  1.4682  0.4856
   39CHL1   C16 2833   1.616   3.762   7.776  0.4468 -0.0301 -0.6162
   39CHL1  H16A 2834   1.603   3.846   7.849  1.2530 -0.2591 -0.2035
   39CHL1  H16B 2835   1.568   3.671   7.817  1.3862 -1.0446 -1.7465
   39CHL1   C17 2836   1.769   3.723   7.769  0.7148  0.0299  0.2799
   39CHL1   H17 2837   1.767   3.615   7.747 -0.2587  0.3669 -1.3176
   39CHL1   C13 2838   1.828   3.789   7.648 -0.4019 -0.1634 -0.5618
   39CHL1   C18 2839   1.858   3.936   7.672 -0.4727 -0.5630 -0.1310
   39CHL1  H18A 2840   1.944   3.941   7.743 -0.2684  1.7804 -0.4821
   39CHL1  H18B 2841   1.891   3.989   7.580  0.7113 -0.1789  0.4949
   39CHL1  H18C 2842   1.781   3.997   7.724 -0.4561 -0.0841 -0.6623
   39CHL1   C12 2843   1.945   3.720   7.575 -0.5905 -0.2113  0.3282
   39CHL1  H12A 2844   2.036   3.731   7.638 -0.1136  2.0861 -0.7466
   39CHL1  H12B 2845   1.934   3.609   7.575 -2.6701 -0.0310  0.7304
   39CHL1   C11 2846   1.972   3.766   7.430  0.6370 -0.9001  0.7951
   39CHL1  H11A 2847   1.998   3.873   7.444 -0.2444 -0.2248 -2.2994
   39CHL1  H11B 2848   2.058   3.715   7.381  1.7351 -0.0066  1.7866
   39CHL1    C9 2849   1.843   3.763   7.335  0.2032 -0.4270 -0.4711
   39CHL1    H9 2850   1.830   3.653   7.324  2.8772 -0.6408 -1.6831
   39CHL1   C10 2851   1.863   3.810   7.187  0.4899  0.6132  0.2363
   39CHL1   C19 2852   1.975   3.924   7.190  0.4796  0.7325  0.3425
   39CHL1  H19A 2853   1.996   3.953   7.085 -0.1860 -1.9993 -0.5948
   39CHL1  H19B 2854   1.957   4.017   7.248 -0.5822  0.3984  0.5493
   39CHL1  H19C 2855   2.061   3.862   7.224 -1.0843 -2.2415 -0.9401
   39CHL1    C1 2856   1.915   3.686   7.103 -0.1884  0.6043 -0.6770
   39CHL1   H1A 2857   2.014   3.665   7.148 -0.0126 -1.2003 -1.8631
   39CHL1   H1B 2858   1.838   3.606   7.112  0.1600  0.3481  0.0635
   39CHL1    C2 2859   1.929   3.708   6.946 -0.0928 -0.2149 -0.2394
   39CHL1   H2A 2860   1.952   3.619   6.884 -0.0974  0.4228 -1.1593
   39CHL1   H2B 2861   2.004   3.789   6.943  2.1056 -2.1604  0.8223
   39CHL1   C20 2862   1.833   3.740   7.907 -0.4825 -0.1809  0.8812
   39CHL1   H20 2863   1.824   3.848   7.933 -0.9585 -0.0326  0.0967
   39CHL1   C21 2864   1.984   3.694   7.891  1.3019 -0.8262 -0.3280
   39CHL1  H21A 2865   2.037   3.770   7.831 -0.9714  0.7138 -0.4607
   39CHL1  H21B 2866   1.982   3.596   7.840  1.3328 -0.8060 -0.3681
   39CHL1  H21C 2867   2.034   3.687   7.990  0.2289 -0.8448  0.2240
   39CHL1   C22 2868   1.769   3.644   8.012  0.2511  0.1130 -0.5464
   39CHL1  H22A 2869   1.664   3.678   8.028  0.4959  1.6737 -2.0743
   39CHL1  H22B 2870   1.759   3.541   7.972  4.0845  0.1590 -1.8018
   39CHL1   C23 2871   1.821   3.654   8.157 -0.1040 -0.5050 -0.2172
   39CHL1  H23A 2872   1.931   3.641   8.163  0.0612  0.8087 -0.1569
   39CHL1  H23B 2873   1.806   3.761   8.185 -2.4371 -0.4751 -1.4573
   39CHL1   C24 2874   1.747   3.562   8.251  0.4373  0.8702  0.7182
   39CHL1  H24A 2875   1.638   3.571   8.232  0.1568 -0.8269  1.3949
   39CHL1  H24B 2876   1.767   3.457   8.222 -0.7341  1.0922 -0.9184
   39CHL1   C25 2877   1.773   3.578   8.408 -0.1130 -0.0655 -0.1330
   39CHL1   H25 2878   1.743   3.683   8.428  1.4799  0.6181 -1.2632
   39CHL1   C26 2879   1.676   3.485   8.482  0.0388  0.1698  1.0416
   39CHL1  H26A 2880   1.577   3.534   8.469  0.6243  0.8598 -0.9558
   39CHL1  H26B 2881   1.688   3.381   8.444 -1.1041  0.6288 -0.6137
   39CHL1  H26C 2882   1.695   3.476   8.591  0.6784 -1.7494  0.7999
   39CHL1   C27 2883   1.922   3.576   8.446 -0.6658 -0.0581  0.6296
   39CHL1  H27A 2884   1.941   3.580   8.555  0.8805  2.1931  0.3181
   39CHL1  H27B 2885   1.979   3.491   8.403  1.9044 -0.2089  4.1543
   39CHL1  H27C 2886   1.979   3.661   8.401  0.2346 -0.8081  0.3265
   40CHL1    C3 2887   4.337   3.721   6.953 -0.9703 -0.2399 -0.3970
   40CHL1    H3 2888   4.329   3.622   7.002 -1.1882  0.1714  0.4241
   40CHL1    O3 2889   4.352   3.701   6.811  0.0832 -0.7463 -0.4860
   40CHL1   H3' 2890   4.420   3.766   6.792 -0.8389  0.9530  1.7780
   40CHL1    C4 2891   4.203   3.797   6.989 -0.7158  0.3902 -0.2343
   40CHL1   H4A 2892   4.206   3.880   6.916  0.6877  0.5010 -0.0681
   40CHL1   H4B 2893   4.114   3.737   6.961 -1.3330  0.7821  0.8680
   40CHL1    C5 2894   4.194   3.840   7.136 -0.3891 -0.2984  0.0001
   40CHL1    C6 2895   4.098   3.800   7.220 -0.6880  0.0418  0.2352
   40CHL1    H6 2896   4.007   3.755   7.177 -0.1950 -1.2051  0.4772
   40CHL1    C7 2897   4.081   3.838   7.363 -0.7294 -0.5185  0.1546
   40CHL1   H7A 2898   3.980   3.878   7.387  0.1432  0.3296  2.5498
   40CHL1   H7B 2899   4.096   3.749   7.428  0.1633 -0.9633 -0.6429
   40CHL1    C8 2900   4.172   3.960   7.398 -0.1603  0.6461 -0.5199
   40CHL1    H8 2901   4.131   4.054   7.355  0.0257  0.6649 -0.6569
   40CHL1   C14 2902   4.189   3.971   7.546 -0.0136 -0.4435  0.2281
   40CHL1   H14 2903   4.220   3.872   7.585 -2.3435 -1.2955 -0.0007
   40CHL1   C15 2904   4.064   3.992   7.631 -0.2572 -0.3972 -0.4078
   40CHL1  H15A 2905   4.002   4.054   7.562  0.1163 -0.2595 -0.6193
   40CHL1  H15B 2906   4.026   3.888   7.645  1.9234 -1.2763 -0.8623
   40CHL1   C16 2907   4.112   4.038   7.772  0.8318 -0.4301 -0.8890
   40CHL1  H16A 2908   4.052   4.129   7.794  1.5804 -0.2843  0.6042
   40CHL1  H16B 2909   4.090   3.973   7.860 -0.5454 -0.6616 -1.3855
   40CHL1   C17 2910   4.263   4.064   7.750  1.0681  0.0039 -0.1616
   40CHL1   H17 2911   4.336   3.984   7.776 -0.0821 -0.3000  2.1810
   40CHL1   C13 2912   4.274   4.084   7.594 -1.1991 -0.4237 -1.1680
   40CHL1   C18 2913   4.212   4.222   7.559 -0.3955  0.4862  0.0256
   40CHL1  H18A 2914   4.266   4.306   7.607 -0.3401  1.6810 -2.0833
   40CHL1  H18B 2915   4.227   4.239   7.450 -1.2218 -0.8629 -0.3146
   40CHL1  H18C 2916   4.105   4.237   7.584 -0.9218 -0.0885 -1.7602
   40CHL1   C12 2917   4.413   4.063   7.532  0.0045 -0.0671  0.2545
   40CHL1  H12A 2918   4.469   4.158   7.546 -0.5006  0.4116 -0.9351
   40CHL1  H12B 2919   4.473   3.981   7.577 -1.1850 -0.0311  1.9556
   40CHL1   C11 2920   4.412   4.044   7.379 -0.1686 -0.3494 -0.1858
   40CHL1  H11A 2921   4.390   4.142   7.331  0.7768 -0.3878 -0.7114
   40CHL1  H11B 2922   4.513   4.020   7.339 -0.4456  2.1904 -2.5968
   40CHL1    C9 2923   4.312   3.937   7.337  0.8178 -0.3632 -0.3788
   40CHL1    H9 2924   4.347   3.842   7.384  0.2688 -0.0981  0.5848
   40CHL1   C10 2925   4.315   3.915   7.181 -0.0125  0.1715 -0.6947
   40CHL1   C19 2926   4.309   4.057   7.109 -0.6165  0.1059  0.1596
   40CHL1  H19A 2927   4.221   4.116   7.144 -1.4955 -0.4234 -1.1280
   40CHL1  H19B 2928   4.396   4.118   7.138  0.5198 -1.0112 -0.8528
   40CHL1  H19C 2929   4.304   4.047   6.998  0.3274 -2.2118  0.3075
   40CHL1    C1 2930   4.449   3.849   7.135 -0.3115 -0.6530 -0.5443
   40CHL1   H1A 2931   4.525   3.928   7.155  0.0201 -1.4734  1.5654
   40CHL1   H1B 2932   4.458   3.766   7.208  0.0858 -0.2644 -0.1421
   40CHL1    C2 2933   4.460   3.803   6.990  0.6207 -0.0332 -0.8670
   40CHL1   H2A 2934   4.551   3.740   6.975 -0.7061 -1.4704 -3.1362
   40CHL1   H2B 2935   4.483   3.892   6.928  0.1727 -0.2613 -1.3647
   40CHL1   C20 2936   4.299   4.175   7.854  0.6913  0.1905  0.2697
   40CHL1   H20 2937   4.228   4.257   7.830 -2.9826 -2.4143  1.7385
   40CHL1   C21 2938   4.445   4.213   7.817 -0.5733  0.3152  0.2017
   40CHL1  H21A 2939   4.502   4.119   7.807  2.4823  2.0633  0.5051
   40CHL1  H21B 2940   4.496   4.286   7.884 -0.7392  0.1753  0.4801
   40CHL1  H21C 2941   4.431   4.255   7.715  0.8617  2.2450  0.7719
   40CHL1   C22 2942   4.295   4.139   8.000  0.6912  0.2811  0.2229
   40CHL1  H22A 2943   4.337   4.226   8.055  0.0269  1.1520 -0.6419
   40CHL1  H22B 2944   4.192   4.136   8.041 -0.1861  0.0144 -1.9575
   40CHL1   C23 2945   4.373   4.010   8.033 -0.0203 -0.8099  0.0182
   40CHL1  H23A 2946   4.323   3.926   7.979  1.6984 -1.9677  0.2023
   40CHL1  H23B 2947   4.477   4.029   8.000  0.6007 -2.1345  1.1918
   40CHL1   C24 2948   4.356   3.973   8.181 -0.0342 -0.2898 -1.6608
   40CHL1  H24A 2949   4.389   4.054   8.249 -0.1982  0.2247 -2.1880
   40CHL1  H24B 2950   4.247   3.962   8.200  0.1144  1.4827  0.6006
   40CHL1   C25 2951   4.439   3.855   8.237 -0.0765  0.6593  0.3290
   40CHL1   H25 2952   4.543   3.890   8.257  0.2354  0.1184 -0.3364
   40CHL1   C26 2953   4.372   3.811   8.373  1.1453  0.5370 -0.0980
   40CHL1  H26A 2954   4.310   3.719   8.379  2.9867 -0.6991  0.5680
   40CHL1  H26B 2955   4.443   3.787   8.456  1.2088  0.9743 -0.0251
   40CHL1  H26C 2956   4.309   3.898   8.398  1.1663  1.2656 -2.4760
   40CHL1   C27 2957   4.440   3.735   8.137 -0.8428  0.0136 -0.2860
   40CHL1  H27A 2958   4.332   3.721   8.117 -0.4274 -3.1521 -0.4702
   40CHL1  H27B 2959   4.490   3.763   8.042 -0.4261  0.8280  0.1611
   40CHL1  H27C 2960   4.494   3.648   8.182  1.8076  1.0412 -1.3486
   41CHL1    C3 2961   5.422   3.459   6.870  0.3485  0.0203 -0.6082
   41CHL1    H3 2962   5.342   3.389   6.901 -0.0200  0.5621 -0.3285
   41CHL1    O3 2963   5.436   3.452   6.734 -0.4596 -0.1053 -0.6204
   41CHL1   H3' 2964   5.484   3.370   6.726 -2.8567 -1.6750  0.4623
   41CHL1    C4 2965   5.385   3.606   6.901  0.4567 -0.3027  1.2272
   41CHL1   H4A 2966   5.473   3.661   6.860  0.7017 -0.6694  1.2574
   41CHL1   H4B 2967   5.292   3.637   6.849 -0.3652 -1.1839  2.1837
   41CHL1    C5 2968   5.365   3.638   7.047 -0.2017  0.9290  0.0396
   41CHL1    C6 2969   5.254   3.698   7.088 -0.4339 -0.2758  0.7976
   41CHL1    H6 2970   5.188   3.741   7.011  0.9944 -0.3496 -0.4994
   41CHL1    C7 2971   5.218   3.721   7.228 -0.0958 -0.0558  0.2506
   41CHL1   H7A 2972   5.167   3.819   7.242  0.3105  0.2611 -0.4419
   41CHL1   H7B 2973   5.129   3.655   7.236 -0.8844  0.7571 -1.3452
   41CHL1    C8 2974   5.322   3.670   7.325  0.5184  0.0486  0.1103
   41CHL1    H8 2975   5.396   3.752   7.338  0.1038  0.0547  2.6254
   41CHL1   C14 2976   5.262   3.654   7.464  0.4242 -0.8610 -0.1069
   41CHL1   H14 2977   5.178   3.589   7.431 -1.5776  0.5563  1.9970
   41CHL1   C15 2978   5.180   3.767   7.520  0.6703 -0.3931  0.6714
   41CHL1  H15A 2979   5.242   3.857   7.541 -2.5175  1.6377  1.6428
   41CHL1  H15B 2980   5.091   3.793   7.459  0.0570  1.3752  2.2862
   41CHL1   C16 2981   5.147   3.707   7.664  0.9421  0.0415 -0.2526
   41CHL1  H16A 2982   5.145   3.785   7.744 -0.8415 -0.9630  0.6937
   41CHL1  H16B 2983   5.042   3.675   7.653 -0.1429  3.2055  0.2443
   41CHL1   C17 2984   5.234   3.582   7.689 -0.8247  0.3661 -0.8527
   41CHL1   H17 2985   5.163   3.501   7.662 -1.1531 -0.0768  1.2473
   41CHL1   C13 2986   5.343   3.593   7.581  0.6589  0.7343 -0.2638
   41CHL1   C18 2987   5.437   3.705   7.630 -0.3766 -0.0025 -0.3309
   41CHL1  H18A 2988   5.488   3.763   7.550  0.4329  0.2004  0.3376
   41CHL1  H18B 2989   5.386   3.775   7.700  2.2077  1.6618 -0.0673
   41CHL1  H18C 2990   5.521   3.663   7.688  0.1248  0.7729 -0.4964
   41CHL1   C12 2991   5.412   3.472   7.525  0.3793  0.4124 -0.1223
   41CHL1  H12A 2992   5.491   3.441   7.596  0.8234  0.9176 -0.3927
   41CHL1  H12B 2993   5.340   3.388   7.538  0.3319  0.5476  0.5083
   41CHL1   C11 2994   5.482   3.484   7.395 -0.3075 -0.5661 -0.6993
   41CHL1  H11A 2995   5.563   3.555   7.420 -2.6606  2.0518 -0.3154
   41CHL1  H11B 2996   5.538   3.392   7.367 -1.8327 -1.0665 -2.2299
   41CHL1    C9 2997   5.398   3.541   7.282  0.1382  0.1655 -0.3137
   41CHL1    H9 2998   5.313   3.471   7.268 -1.6309  2.0368  0.6940
   41CHL1   C10 2999   5.464   3.564   7.142  1.3336 -0.1753 -0.1061
   41CHL1   C19 3000   5.591   3.651   7.158 -0.2258 -0.7182 -0.3240
   41CHL1  H19A 3001   5.570   3.755   7.190  0.8244 -0.8128  0.7164
   41CHL1  H19B 3002   5.666   3.608   7.227 -1.5647 -1.3707  0.7480
   41CHL1  H19C 3003   5.641   3.667   7.060 -1.6198  2.9758 -0.4926
   41CHL1    C1 3004   5.513   3.429   7.086 -1.2132  0.1642  0.2590
   41CHL1   H1A 3005   5.609   3.410   7.139 -1.4784 -0.2914  0.5780
   41CHL1   H1B 3006   5.446   3.345   7.114 -1.7716  0.4170 -0.3168
   41CHL1    C2 3007   5.548   3.413   6.934  0.0583 -0.4783 -0.1194
   41CHL1   H2A 3008   5.570   3.309   6.900 -2.3318 -0.5840 -1.4462
   41CHL1   H2B 3009   5.637   3.474   6.905 -2.7136  2.1073 -3.6984
   41CHL1   C20 3010   5.288   3.567   7.834 -0.4312  0.4194  0.2397
   41CHL1   H20 3011   5.358   3.650   7.859  1.0683 -1.1760  1.3792
   41CHL1   C21 3012   5.392   3.443   7.844  0.1154  0.1456  0.6232
   41CHL1  H21A 3013   5.427   3.437   7.949 -3.6404  0.1398  1.9323
   41CHL1  H21B 3014   5.487   3.465   7.790  0.3856 -1.2406  0.4921
   41CHL1  H21C 3015   5.347   3.347   7.810 -0.3926  0.7409 -0.4060
   41CHL1   C22 3016   5.180   3.542   7.934  0.2820 -0.0636 -0.1324
   41CHL1  H22A 3017   5.092   3.606   7.911 -0.3557 -0.3380  1.4805
   41CHL1  H22B 3018   5.152   3.435   7.927 -0.7623  0.0341  2.1752
   41CHL1   C23 3019   5.214   3.573   8.084 -0.3660 -0.0202  0.3835
   41CHL1  H23A 3020   5.308   3.517   8.104  1.1316  1.4772 -2.0857
   41CHL1  H23B 3021   5.239   3.681   8.085  1.0012 -0.3151 -0.4767
   41CHL1   C24 3022   5.112   3.537   8.191 -0.1287 -0.2729  0.1764
   41CHL1  H24A 3023   5.028   3.610   8.184  1.3883  1.5733  0.6038
   41CHL1  H24B 3024   5.069   3.438   8.165 -1.4286  0.3515 -0.1075
   41CHL1   C25 3025   5.169   3.539   8.338  0.7443  0.3192  0.4853
   41CHL1   H25 3026   5.245   3.459   8.345 -0.6003 -0.9605  0.6195
   41CHL1   C26 3027   5.240   3.669   8.365 -0.6656  0.6567 -0.1018
   41CHL1  H26A 3028   5.171   3.755   8.377 -1.5108 -0.1936  1.2527
   41CHL1  H26B 3029   5.279   3.656   8.468 -0.9338 -0.4452 -0.1362
   41CHL1  H26C 3030   5.325   3.681   8.295 -2.4869 -1.2345 -2.7531
   41CHL1   C27 3031   5.061   3.504   8.450  0.8199 -0.0389  0.3828
   41CHL1  H27A 3032   4.971   3.566   8.436  0.5483 -0.1979  1.3896
   41CHL1  H27B 3033   5.024   3.401   8.432 -1.2496  0.9780 -1.2904
   41CHL1  H27C 3034   5.104   3.522   8.551  1.2746  2.7785 -0.2635
   42CHL1    C3 3035   6.335   0.655   7.020  0.4480  0.2807  0.1668
   42CHL1    H3 3036   6.350   0.765   7.011  0.1554  0.3892  0.9914
   42CHL1    O3 3037   6.377   0.593   6.895  1.0404 -0.4826 -0.1857
   42CHL1   H3' 3038   6.351   0.503   6.915  1.9868 -0.5841  0.5969
   42CHL1    C4 3039   6.426   0.599   7.134  0.1530 -0.3588 -0.6481
   42CHL1   H4A 3040   6.428   0.488   7.134  0.9274 -0.4303  3.3936
   42CHL1   H4B 3041   6.527   0.642   7.117 -0.5613  1.4249 -0.4577
   42CHL1    C5 3042   6.372   0.651   7.267 -0.2210  0.1923 -0.3299
   42CHL1    C6 3043   6.453   0.721   7.350 -0.2574  0.7549 -0.2888
   42CHL1    H6 3044   6.562   0.727   7.334  0.1622 -0.3354  2.0128
   42CHL1    C7 3045   6.400   0.768   7.485 -0.2667  1.0130 -0.8636
   42CHL1   H7A 3046   6.477   0.760   7.565 -0.8915 -0.4487 -0.3822
   42CHL1   H7B 3047   6.371   0.875   7.475  1.3898  1.2631 -3.4372
   42CHL1    C8 3048   6.274   0.693   7.534  0.1406  0.0834  0.7535
   42CHL1    H8 3049   6.301   0.587   7.556  0.9706 -0.2231 -1.5650
   42CHL1   C14 3050   6.221   0.762   7.665 -0.0544  0.2644 -0.0608
   42CHL1   H14 3051   6.204   0.865   7.630 -0.3065  0.3047  0.1804
   42CHL1   C15 3052   6.315   0.771   7.786  0.1246 -0.4216 -0.1514
   42CHL1  H15A 3053   6.355   0.671   7.816 -1.3920 -0.2517  2.6106
   42CHL1  H15B 3054   6.397   0.843   7.770 -0.2524  0.0230 -0.0810
   42CHL1   C16 3055   6.216   0.814   7.891  0.3697 -0.3361 -0.0948
   42CHL1  H16A 3056   6.239   0.758   7.984  0.1069 -0.1690  0.0731
   42CHL1  H16B 3057   6.233   0.920   7.920 -2.3012  0.4916 -1.3763
   42CHL1   C17 3058   6.070   0.800   7.835 -0.2412 -0.1227 -0.3733
   42CHL1   H17 3059   6.050   0.899   7.789  1.7867  0.4060 -0.1483
   42CHL1   C13 3060   6.083   0.711   7.708  0.1098  0.3536 -0.7407
   42CHL1   C18 3061   6.094   0.559   7.759 -0.0732 -0.3990 -0.0764
   42CHL1  H18A 3062   6.162   0.505   7.689 -0.5995  0.2368 -1.1039
   42CHL1  H18B 3063   6.148   0.559   7.856 -1.4435  0.2704  0.6962
   42CHL1  H18C 3064   5.992   0.518   7.772  0.3246 -1.0854  0.9292
   42CHL1   C12 3065   5.979   0.727   7.601  0.3971 -0.2317 -0.7424
   42CHL1  H12A 3066   5.887   0.669   7.622  1.2654 -1.5058 -0.3936
   42CHL1  H12B 3067   5.956   0.835   7.585  0.4452 -0.2773 -1.1145
   42CHL1   C11 3068   6.030   0.665   7.469 -1.1926 -0.9938 -0.4990
   42CHL1  H11A 3069   6.014   0.555   7.479 -0.5041 -1.0075  0.5470
   42CHL1  H11B 3070   5.959   0.697   7.390 -1.9554 -1.5779 -0.0668
   42CHL1    C9 3071   6.174   0.707   7.426  1.1015  0.1353 -0.7312
   42CHL1    H9 3072   6.157   0.814   7.399  0.2062 -0.2003 -1.5370
   42CHL1   C10 3073   6.221   0.632   7.295 -0.0203  0.2692 -0.4696
   42CHL1   C19 3074   6.195   0.476   7.309 -0.6127  0.6291 -0.2152
   42CHL1  H19A 3075   6.087   0.455   7.318 -0.0601 -2.2605  0.0064
   42CHL1  H19B 3076   6.242   0.413   7.230  0.0017  0.6955  0.0927
   42CHL1  H19C 3077   6.243   0.437   7.402 -2.6057  0.9775  0.9870
   42CHL1    C1 3078   6.145   0.679   7.178  0.6156  0.0558 -0.1930
   42CHL1   H1A 3079   6.043   0.648   7.210  0.9195  0.3488  1.1146
   42CHL1   H1B 3080   6.157   0.790   7.174  1.9946 -0.1578 -2.7890
   42CHL1    C2 3081   6.186   0.618   7.043 -0.5211  0.3060 -0.1921
   42CHL1   H2A 3082   6.127   0.645   6.953 -1.7718 -0.4805  0.3928
   42CHL1   H2B 3083   6.183   0.507   7.039 -0.4890  0.3654 -2.6760
   42CHL1   C20 3084   5.970   0.762   7.949  0.5396  0.5882 -0.5211
   42CHL1   H20 3085   5.994   0.661   7.990 -0.6833  0.3022 -0.4913
   42CHL1   C21 3086   5.830   0.762   7.882 -0.0711 -0.1507 -0.1227
   42CHL1  H21A 3087   5.753   0.741   7.960  1.1265 -3.7227  0.2119
   42CHL1  H21B 3088   5.815   0.678   7.811  0.0708  0.7850 -1.2607
   42CHL1  H21C 3089   5.803   0.857   7.834  0.7062 -1.0980 -2.4912
   42CHL1   C22 3090   5.969   0.869   8.051 -0.2085  0.0634 -0.1136
   42CHL1  H22A 3091   6.067   0.912   8.082 -1.1845  0.9497  1.8806
   42CHL1  H22B 3092   5.915   0.955   8.005  2.5373  2.1810  0.4736
   42CHL1   C23 3093   5.917   0.817   8.188  0.3325 -0.4322  0.6316
   42CHL1  H23A 3094   5.810   0.793   8.169  0.8823 -2.0278 -0.4685
   42CHL1  H23B 3095   5.969   0.722   8.212  1.2057 -0.5290 -1.4633
   42CHL1   C24 3096   5.937   0.917   8.304  0.9615  0.9254  0.4476
   42CHL1  H24A 3097   6.044   0.922   8.334  1.1228  1.7813 -0.2680
   42CHL1  H24B 3098   5.903   1.017   8.270 -2.1051  0.5772  2.2524
   42CHL1   C25 3099   5.862   0.878   8.438 -0.2477 -0.2073  0.0641
   42CHL1   H25 3100   5.897   0.955   8.510 -2.4658 -0.3090  1.2665
   42CHL1   C26 3101   5.707   0.890   8.440  0.4172 -0.7843  0.3601
   42CHL1  H26A 3102   5.688   0.997   8.419  0.0441 -0.2626  3.1538
   42CHL1  H26B 3103   5.650   0.828   8.367  0.3873 -0.6106  0.2351
   42CHL1  H26C 3104   5.656   0.864   8.535 -0.0438  1.9844  0.8919
   42CHL1   C27 3105   5.916   0.751   8.499  0.2450 -0.0861 -0.3020
   42CHL1  H27A 3106   5.890   0.732   8.605 -1.0895  1.6804 -0.3093
   42CHL1  H27B 3107   6.026   0.733   8.491  0.3332  0.5289 -0.5168
   42CHL1  H27C 3108   5.874   0.667   8.440  0.3102 -1.5390  1.6513
   43CHL1    C3 3109   6.539   4.757   6.888  0.1061 -0.0630 -0.3302
   43CHL1    H3 3110   6.616   4.830   6.919 -1.3242  0.9964  0.8221
   43CHL1    O3 3111   6.522   4.750   6.746 -0.5494  0.4368 -0.3003
   43CHL1   H3' 3112   6.520   4.841   6.717 -1.6150 -0.4737 -3.2855
   43CHL1    C4 3113   6.571   4.615   6.941 -0.3865  0.5492  0.1180
   43CHL1   H4A 3114   6.493   4.547   6.900 -0.8641 -0.3767  2.5111
   43CHL1   H4B 3115   6.670   4.590   6.895 -0.5239  1.4765 -0.7014
   43CHL1    C5 3116   6.567   4.598   7.090  0.1847 -0.8182 -0.4671
   43CHL1    C6 3117   6.667   4.532   7.153  0.1895 -0.0809  0.3970
   43CHL1    H6 3118   6.743   4.502   7.080  0.3279 -2.3694  1.4414
   43CHL1    C7 3119   6.691   4.527   7.305  0.2528  0.5927 -0.1346
   43CHL1   H7A 3120   6.701   4.418   7.320 -0.7218  0.8862  2.9024
   43CHL1   H7B 3121   6.782   4.573   7.347  0.6278 -0.3742  0.1243
   43CHL1    C8 3122   6.562   4.571   7.381  0.0272 -0.8711  0.3046
   43CHL1    H8 3123   6.501   4.477   7.376 -2.0214  0.4655 -0.4168
   43CHL1   C14 3124   6.598   4.595   7.529  0.2386 -0.7052  0.7063
   43CHL1   H14 3125   6.657   4.689   7.530  3.0680 -2.4176 -0.3460
   43CHL1   C15 3126   6.689   4.506   7.610 -0.2651 -0.1768 -0.7269
   43CHL1  H15A 3127   6.650   4.402   7.604 -2.8528  0.6444  1.0988
   43CHL1  H15B 3128   6.796   4.515   7.582  0.2751 -0.8599  1.0087
   43CHL1   C16 3129   6.666   4.551   7.757 -0.7546 -0.7661  0.5414
   43CHL1  H16A 3130   6.645   4.463   7.822 -1.4841 -2.5210 -1.9731
   43CHL1  H16B 3131   6.755   4.602   7.799 -1.1821 -0.0832  0.6261
   43CHL1   C17 3132   6.554   4.652   7.745 -0.4240  0.7381 -0.2734
   43CHL1   H17 3133   6.600   4.753   7.735  1.1332  0.1827  1.0484
   43CHL1   C13 3134   6.480   4.623   7.607 -0.3335 -0.3139 -0.3826
   43CHL1   C18 3135   6.388   4.502   7.611  0.2461  0.3742 -0.3305
   43CHL1  H18A 3136   6.442   4.409   7.637  0.2066  0.3511 -0.3309
   43CHL1  H18B 3137   6.297   4.510   7.674  0.7436 -1.3948  0.6418
   43CHL1  H18C 3138   6.350   4.499   7.507  0.0688 -0.3746 -0.2448
   43CHL1   C12 3139   6.406   4.748   7.557  0.4167  0.1723 -0.4138
   43CHL1  H12A 3140   6.315   4.762   7.618  0.0876  0.3280 -0.9414
   43CHL1  H12B 3141   6.469   4.840   7.569  0.7219 -0.2085  1.0133
   43CHL1   C11 3142   6.368   4.740   7.403  0.3310 -0.3547 -0.2496
   43CHL1  H11A 3143   6.287   4.665   7.395 -2.5982  2.6764 -0.0148
   43CHL1  H11B 3144   6.335   4.840   7.367  0.2879 -0.6448 -1.0422
   43CHL1    C9 3145   6.489   4.697   7.314  0.2621 -0.2256  0.1394
   43CHL1    H9 3146   6.559   4.783   7.320 -2.6993  2.2107  1.1422
   43CHL1   C10 3147   6.458   4.674   7.167 -0.7085  0.2002  0.4529
   43CHL1   C19 3148   6.325   4.583   7.145  0.6469  0.4364 -0.3940
   43CHL1  H19A 3149   6.346   4.480   7.179 -0.6982  0.6947  1.3451
   43CHL1  H19B 3150   6.239   4.619   7.207  0.5419  0.4783 -0.5662
   43CHL1  H19C 3151   6.295   4.581   7.038 -1.5100  0.3820  0.1782
   43CHL1    C1 3152   6.426   4.812   7.101  0.0755 -0.5010 -0.1474
   43CHL1   H1A 3153   6.337   4.857   7.150  0.1029 -0.4683 -0.1273
   43CHL1   H1B 3154   6.496   4.894   7.126  0.2692 -0.0233 -2.1789
   43CHL1    C2 3155   6.408   4.807   6.952 -0.5736 -0.2738  1.4260
   43CHL1   H2A 3156   6.380   4.911   6.925 -2.1018 -0.8943  0.5868
   43CHL1   H2B 3157   6.326   4.744   6.912 -1.0539  2.2956 -1.8258
   43CHL1   C20 3158   6.474   4.657   7.879  0.0549 -0.4127  0.3789
   43CHL1   H20 3159   6.382   4.706   7.841 -0.3864 -0.2868  1.5952
   43CHL1   C21 3160   6.549   4.751   7.976  0.2466 -0.0623  0.5373
   43CHL1  H21A 3161   6.522   4.858   7.967 -0.1779 -0.0049  2.3341
   43CHL1  H21B 3162   6.659   4.743   7.960  0.3741 -2.0531  2.1902
   43CHL1  H21C 3163   6.516   4.712   8.074 -4.6191  0.9526 -0.5714
   43CHL1   C22 3164   6.426   4.524   7.938  0.2931 -0.5575 -0.1857
   43CHL1  H22A 3165   6.394   4.450   7.862 -2.3609  0.1246  0.2103
   43CHL1  H22B 3166   6.514   4.483   7.993 -1.3745 -1.7870  1.6274
   43CHL1   C23 3167   6.302   4.546   8.027 -0.0377  0.7271  0.1377
   43CHL1  H23A 3168   6.337   4.609   8.111 -0.2924 -0.9073  1.4863
   43CHL1  H23B 3169   6.223   4.596   7.967  1.4605  0.5248 -2.0649
   43CHL1   C24 3170   6.243   4.414   8.080 -0.3992 -0.2233 -0.4043
   43CHL1  H24A 3171   6.223   4.342   7.998  0.7166 -1.1508  0.1267
   43CHL1  H24B 3172   6.310   4.378   8.160  0.6740  1.3346 -0.5784
   43CHL1   C25 3173   6.099   4.423   8.150  0.2688 -0.0104  1.1452
   43CHL1   H25 3174   6.026   4.458   8.073  2.3040 -1.2429 -1.4244
   43CHL1   C26 3175   6.057   4.284   8.196 -0.1087 -0.6113 -0.6451
   43CHL1  H26A 3176   6.140   4.228   8.245 -0.4037 -0.8715 -0.4434
   43CHL1  H26B 3177   5.972   4.281   8.268  1.3789  1.6274  1.2911
   43CHL1  H26C 3178   6.007   4.226   8.115 -1.0695 -0.6874 -0.0106
   43CHL1   C27 3179   6.089   4.523   8.266  0.3509 -0.2069 -0.3313
   43CHL1  H27A 3180   5.998   4.511   8.329 -0.1201 -1.2332 -1.1840
   43CHL1  H27B 3181   6.176   4.504   8.332  1.7633  0.8769 -1.8439
   43CHL1  H27C 3182   6.098   4.623   8.218 -1.4406  0.8964  1.5173
   44CHL1    C3 3183   6.219   2.947   6.814  0.2964 -0.4901 -0.0133
   44CHL1    H3 3184   6.118   2.981   6.846 -0.4246  0.5007 -3.1175
   44CHL1    O3 3185   6.230   2.943   6.675  0.0301  0.0188  0.0011
   44CHL1   H3' 3186   6.317   2.968   6.643  1.0739 -2.2967  0.9121
   44CHL1    C4 3187   6.326   3.044   6.869 -0.1637 -1.0173 -0.1888
   44CHL1   H4A 3188   6.426   3.010   6.835 -0.1701  1.6451 -3.0884
   44CHL1   H4B 3189   6.330   3.140   6.813 -0.9845 -0.1951  1.1352
   44CHL1    C5 3190   6.313   3.054   7.021  0.2022 -0.8102  1.0993
   44CHL1    C6 3191   6.294   3.176   7.082 -0.1059 -0.3100 -0.1753
   44CHL1    H6 3192   6.313   3.265   7.020  1.5005 -0.6354 -0.1700
   44CHL1    C7 3193   6.274   3.198   7.227 -0.1503 -0.3070 -0.4578
   44CHL1   H7A 3194   6.323   3.292   7.259  1.1290  0.1073 -3.4958
   44CHL1   H7B 3195   6.165   3.207   7.249 -0.2120 -0.9577 -0.4909
   44CHL1    C8 3196   6.330   3.086   7.306  0.3173 -1.1103  0.0561
   44CHL1    H8 3197   6.441   3.096   7.299  0.0419  1.5749 -1.2157
   44CHL1   C14 3198   6.281   3.103   7.456  0.7708 -0.2950  0.2484
   44CHL1   H14 3199   6.171   3.092   7.464  0.9336  0.2820  3.7695
   44CHL1   C15 3200   6.318   3.229   7.529  0.4119 -0.4647 -0.3536
   44CHL1  H15A 3201   6.425   3.248   7.504  0.6915  0.4776  1.4205
   44CHL1  H15B 3202   6.262   3.319   7.497 -0.3242 -1.1320 -0.9398
   44CHL1   C16 3203   6.307   3.189   7.680  0.4427  0.5005 -0.3030
   44CHL1  H16A 3204   6.401   3.215   7.735 -0.2432  0.8550  0.7187
   44CHL1  H16B 3205   6.219   3.242   7.722 -0.8513 -0.1893 -2.1028
   44CHL1   C17 3206   6.281   3.035   7.685 -0.4009 -0.1743  0.0670
   44CHL1   H17 3207   6.171   3.018   7.684 -0.5838  0.8631 -2.8265
   44CHL1   C13 3208   6.335   2.986   7.541 -0.4154  0.2572 -0.4093
   44CHL1   C18 3209   6.491   2.987   7.534  0.2411 -0.1475 -0.4046
   44CHL1  H18A 3210   6.526   2.904   7.600 -1.4530 -1.7284 -1.4728
   44CHL1  H18B 3211   6.529   2.980   7.430  0.6759  1.1824 -0.3497
   44CHL1  H18C 3212   6.537   3.071   7.590  1.2785 -0.2662 -1.0636
   44CHL1   C12 3213   6.277   2.857   7.491 -0.0680  0.4705  0.6472
   44CHL1  H12A 3214   6.324   2.767   7.535  0.2789  0.2736 -0.1235
   44CHL1  H12B 3215   6.167   2.850   7.504 -0.3867 -2.3733 -2.7411
   44CHL1   C11 3216   6.297   2.828   7.343 -0.3945 -0.7524 -0.1218
   44CHL1  H11A 3217   6.405   2.804   7.337 -0.5069 -1.0183 -1.3367
   44CHL1  H11B 3218   6.232   2.748   7.301 -0.8177 -0.2990 -0.3392
   44CHL1    C9 3219   6.277   2.954   7.247 -0.1979 -0.2433 -0.9099
   44CHL1    H9 3220   6.168   2.977   7.249 -0.0111  0.8055 -2.1763
   44CHL1   C10 3221   6.311   2.928   7.096  0.0212 -0.0405  0.3774
   44CHL1   C19 3222   6.453   2.868   7.078  0.3247  0.5037 -0.7042
   44CHL1  H19A 3223   6.450   2.757   7.081 -0.8881  0.5330 -0.5506
   44CHL1  H19B 3224   6.497   2.888   6.977  0.1038  0.1013 -0.8832
   44CHL1  H19C 3225   6.509   2.910   7.164  1.2937  2.8932 -2.4543
   44CHL1    C1 3226   6.222   2.816   7.030  0.3508  0.3055 -0.9831
   44CHL1   H1A 3227   6.235   2.717   7.078 -2.0780  0.5367  0.2472
   44CHL1   H1B 3228   6.118   2.852   7.051 -0.4130 -1.9935 -0.7071
   44CHL1    C2 3229   6.242   2.804   6.879 -0.9672 -0.2969  0.0646
   44CHL1   H2A 3230   6.173   2.732   6.831  2.3259 -2.2712 -1.8877
   44CHL1   H2B 3231   6.346   2.769   6.860 -0.1979  1.0092  1.7340
   44CHL1   C20 3232   6.330   2.970   7.815  0.0241  0.4529  0.3684
   44CHL1   H20 3233   6.435   3.003   7.826  0.4667  0.3393 -3.0292
   44CHL1   C21 3234   6.316   2.817   7.826  0.0624 -0.1471 -0.3268
   44CHL1  H21A 3235   6.209   2.789   7.827 -0.4859  1.8714  0.6108
   44CHL1  H21B 3236   6.368   2.773   7.914  0.4449 -2.1708 -1.5245
   44CHL1  H21C 3237   6.369   2.767   7.743 -2.0215  0.2842 -1.9462
   44CHL1   C22 3238   6.257   3.028   7.935  0.9610 -0.1109 -0.2465
   44CHL1  H22A 3239   6.245   3.138   7.947  0.8900 -0.2779  1.3537
   44CHL1  H22B 3240   6.153   2.987   7.935  1.5128 -1.5432  0.3983
   44CHL1   C23 3241   6.316   2.980   8.073 -0.0069  0.2513 -0.7953
   44CHL1  H23A 3242   6.291   2.878   8.111 -0.3329  0.0982 -1.4221
   44CHL1  H23B 3243   6.427   2.987   8.068  0.1139 -0.0798  0.9085
   44CHL1   C24 3244   6.258   3.064   8.184 -0.0699 -0.3572  0.5911
   44CHL1  H24A 3245   6.270   3.172   8.162  3.2366 -1.2763 -2.6058
   44CHL1  H24B 3246   6.148   3.050   8.192  0.0363 -1.2174  0.5756
   44CHL1   C25 3247   6.313   3.031   8.328 -0.8275 -0.2823 -0.2999
   44CHL1   H25 3248   6.297   2.924   8.354 -0.1209 -0.4799 -0.6678
   44CHL1   C26 3249   6.462   3.063   8.343  0.9282  0.8045 -0.3457
   44CHL1  H26A 3250   6.522   2.977   8.306 -2.0284 -0.5417 -2.2257
   44CHL1  H26B 3251   6.476   3.164   8.298 -2.1283  1.1717 -0.5503
   44CHL1  H26C 3252   6.495   3.061   8.449 -0.5280  2.3525  0.1417
   44CHL1   C27 3253   6.245   3.121   8.431 -0.3040  0.3159  0.4303
   44CHL1  H27A 3254   6.137   3.097   8.445 -0.2644 -0.2637 -0.2530
   44CHL1  H27B 3255   6.291   3.124   8.532 -0.5593 -1.4570  0.6173
   44CHL1  H27C 3256   6.251   3.225   8.392  0.7441  0.4436  0.9277
   45CHL1    C3 3257   0.800   1.076   7.093  0.6784  0.0797 -0.1320
   45CHL1    H3 3258   0.851   0.985   7.131 -0.0866 -0.6194 -0.7576
   45CHL1    O3 3259   0.782   1.031   6.960  0.0431  0.6932  0.0543
   45CHL1   H3' 3260   0.778   1.110   6.905 -1.3175 -1.0409 -2.4392
   45CHL1    C4 3261   0.670   1.086   7.170  0.0532 -0.0484  0.1902
   45CHL1   H4A 3262   0.607   1.161   7.119 -2.7377 -1.2537  1.7481
   45CHL1   H4B 3263   0.618   0.988   7.158  2.4258 -1.2104 -0.9721
   45CHL1    C5 3264   0.693   1.114   7.313 -0.8162 -0.2091 -0.3150
   45CHL1    C6 3265   0.634   1.037   7.406  0.0174 -1.4875  0.1879
   45CHL1    H6 3266   0.562   0.960   7.376 -2.6414  0.5082  1.1808
   45CHL1    C7 3267   0.655   1.063   7.554  0.3134 -0.2853  0.1348
   45CHL1   H7A 3268   0.565   1.039   7.615 -0.4438 -0.0797 -0.8791
   45CHL1   H7B 3269   0.731   0.992   7.594  0.8553  1.1355  1.6461
   45CHL1    C8 3270   0.711   1.197   7.592 -0.1880 -0.6268  0.4597
   45CHL1    H8 3271   0.642   1.282   7.570 -1.5969 -1.3903  1.8258
   45CHL1   C14 3272   0.758   1.200   7.744  0.1388  0.2565  0.0110
   45CHL1   H14 3273   0.840   1.129   7.765  0.2006  0.6949  1.3095
   45CHL1   C15 3274   0.641   1.165   7.842  0.1455 -0.2094  0.4236
   45CHL1  H15A 3275   0.543   1.200   7.805  0.1516  0.6183  1.1741
   45CHL1  H15B 3276   0.637   1.054   7.851  3.4320 -0.4528 -0.1887
   45CHL1   C16 3277   0.693   1.232   7.970  1.0495  0.1499  0.1384
   45CHL1  H16A 3278   0.617   1.306   8.004 -0.9275 -2.3350  1.2323
   45CHL1  H16B 3279   0.708   1.154   8.048  3.1162  1.0159  0.6376
   45CHL1   C17 3280   0.814   1.320   7.937 -0.0210 -0.0175 -0.9064
   45CHL1   H17 3281   0.903   1.256   7.959 -0.4052  0.2588  1.5794
   45CHL1   C13 3282   0.807   1.338   7.787  0.4816 -0.4177 -0.1166
   45CHL1   C18 3283   0.691   1.440   7.768  0.3120  0.3287  0.3107
   45CHL1  H18A 3284   0.678   1.467   7.661  0.4499  0.0031  0.2124
   45CHL1  H18B 3285   0.591   1.410   7.807  1.1779 -1.1842  1.4141
   45CHL1  H18C 3286   0.716   1.541   7.808  0.3566  1.1869 -1.8051
   45CHL1   C12 3287   0.931   1.358   7.707  0.7602 -0.3577  0.0043
   45CHL1  H12A 3288   0.987   1.450   7.734 -2.0107  0.6977  2.5071
   45CHL1  H12B 3289   0.999   1.275   7.737  1.8816  0.9278  1.0937
   45CHL1   C11 3290   0.905   1.353   7.556  0.1324  0.1842 -0.2537
   45CHL1  H11A 3291   0.835   1.437   7.538 -0.2241 -0.1138 -0.2485
   45CHL1  H11B 3292   0.995   1.363   7.490 -1.3281 -2.2205 -2.7484
   45CHL1    C9 3293   0.829   1.229   7.503  0.6814  1.0127  0.0052
   45CHL1    H9 3294   0.896   1.142   7.515 -1.1971 -0.4298  0.3907
   45CHL1   C10 3295   0.796   1.222   7.353  0.3697 -0.0764  0.2799
   45CHL1   C19 3296   0.729   1.361   7.322  0.1365 -0.6915  0.0359
   45CHL1  H19A 3297   0.678   1.358   7.224 -2.0817  0.7580  1.0997
   45CHL1  H19B 3298   0.652   1.390   7.397  0.0152  0.9765 -0.7075
   45CHL1  H19C 3299   0.816   1.430   7.317  2.0307 -2.9594  0.7946
   45CHL1    C1 3300   0.921   1.197   7.271  0.9052 -0.7673  0.4877
   45CHL1   H1A 3301   1.005   1.267   7.289 -0.8977  0.9106  2.7561
   45CHL1   H1B 3302   0.964   1.098   7.296  1.2879 -0.5228  0.8090
   45CHL1    C2 3303   0.891   1.195   7.116  0.4170 -0.0371 -1.0263
   45CHL1   H2A 3304   0.987   1.186   7.062  0.6486 -2.1853 -0.3160
   45CHL1   H2B 3305   0.841   1.292   7.097  2.0009  1.6731  2.9701
   45CHL1   C20 3306   0.833   1.437   8.031  0.3871 -0.0532 -0.2002
   45CHL1   H20 3307   0.755   1.515   8.015  1.3393  1.0754  0.5492
   45CHL1   C21 3308   0.956   1.510   7.977  0.3363 -0.4724 -1.0793
   45CHL1  H21A 3309   0.981   1.601   8.035  0.1308 -2.2186  1.8782
   45CHL1  H21B 3310   0.916   1.549   7.881 -1.5139 -2.8760 -1.3355
   45CHL1  H21C 3311   1.049   1.452   7.962  1.8535  1.8146 -0.7009
   45CHL1   C22 3312   0.856   1.395   8.174 -0.2052  0.5813  0.1720
   45CHL1  H22A 3313   0.768   1.337   8.211 -0.7502  0.3290 -1.4635
   45CHL1  H22B 3314   0.946   1.329   8.180 -0.1137  0.7583  0.7310
   45CHL1   C23 3315   0.875   1.513   8.272 -0.1357  0.4433 -0.0884
   45CHL1  H23A 3316   0.978   1.549   8.250 -0.1120  1.8131  2.1548
   45CHL1  H23B 3317   0.801   1.592   8.247 -0.3633  0.1185 -0.4408
   45CHL1   C24 3318   0.886   1.479   8.424  0.5785  0.4644 -0.0218
   45CHL1  H24A 3319   0.790   1.453   8.473  0.9880  0.9307  1.0677
   45CHL1  H24B 3320   0.959   1.395   8.432 -0.5229 -0.4009  1.2623
   45CHL1   C25 3321   0.929   1.605   8.508  0.0827  0.6001 -0.8532
   45CHL1   H25 3322   1.031   1.642   8.484  0.4606  0.3802  0.3726
   45CHL1   C26 3323   0.827   1.721   8.496  0.0128  0.0034 -0.5552
   45CHL1  H26A 3324   0.741   1.712   8.565  0.3017  0.9126 -0.0689
   45CHL1  H26B 3325   0.882   1.815   8.519  1.3586 -1.3133  1.6965
   45CHL1  H26C 3326   0.791   1.731   8.391 -1.8296 -0.0090  0.0537
   45CHL1   C27 3327   0.938   1.567   8.661 -0.0383  0.3399  0.7437
   45CHL1  H27A 3328   0.847   1.510   8.690 -1.1232  1.2362 -0.7887
   45CHL1  H27B 3329   1.019   1.501   8.697 -0.8324 -0.9691  0.1380
   45CHL1  H27C 3330   0.934   1.661   8.721 -0.1905 -0.0268  1.3059
   46CHL1    C3 3331   0.619   2.416   6.998  0.3467 -0.6216 -0.6448
   46CHL1    H3 3332   0.727   2.436   7.016  0.3350 -1.6893  0.6529
   46CHL1    O3 3333   0.597   2.390   6.859 -0.3572 -0.2893 -0.5520
   46CHL1   H3' 3334   0.502   2.391   6.847 -0.3827  0.4485 -0.2870
   46CHL1    C4 3335   0.563   2.296   7.081 -0.0009 -0.3425  0.2646
   46CHL1   H4A 3336   0.461   2.275   7.041 -0.7822  1.9806  0.9469
   46CHL1   H4B 3337   0.620   2.205   7.053  2.6322  1.0821  0.8805
   46CHL1    C5 3338   0.563   2.313   7.226  0.5610 -0.3347 -0.3590
   46CHL1    C6 3339   0.629   2.228   7.308 -0.0097 -0.1551  0.0706
   46CHL1    H6 3340   0.670   2.136   7.264 -1.3020 -0.1904 -1.0933
   46CHL1    C7 3341   0.638   2.240   7.450  0.1535  0.2896  0.3194
   46CHL1   H7A 3342   0.626   2.143   7.503  0.9245  0.4171  0.7395
   46CHL1   H7B 3343   0.738   2.278   7.480  0.1706 -0.9222  1.9084
   46CHL1    C8 3344   0.541   2.340   7.517  0.1851  0.4642 -0.4634
   46CHL1    H8 3345   0.441   2.295   7.527 -0.2185  1.5117  0.3667
   46CHL1   C14 3346   0.586   2.378   7.656 -0.4152  0.2202 -0.3018
   46CHL1   H14 3347   0.672   2.446   7.638 -2.3055  1.7159 -4.3818
   46CHL1   C15 3348   0.627   2.263   7.747 -0.1926  0.5683 -0.8479
   46CHL1  H15A 3349   0.549   2.184   7.748  0.1329  0.2289  2.0743
   46CHL1  H15B 3350   0.720   2.210   7.719 -0.1701 -0.2294  0.6661
   46CHL1   C16 3351   0.639   2.328   7.885 -0.2223  0.3299  0.1205
   46CHL1  H16A 3352   0.569   2.273   7.951 -1.1386  1.8501  0.4272
   46CHL1  H16B 3353   0.737   2.350   7.933  0.0016 -0.4435  0.0197
   46CHL1   C17 3354   0.569   2.470   7.874 -0.4911 -0.4675  0.1671
   46CHL1   H17 3355   0.653   2.541   7.858  1.0844 -2.6434 -1.5815
   46CHL1   C13 3356   0.487   2.468   7.737 -0.1661 -0.2688 -0.2042
   46CHL1   C18 3357   0.355   2.394   7.756 -0.7704  0.4444  0.0750
   46CHL1  H18A 3358   0.282   2.402   7.672 -2.4085  1.0360  1.5463
   46CHL1  H18B 3359   0.377   2.287   7.778  0.2296  0.5683 -0.2772
   46CHL1  H18C 3360   0.303   2.439   7.843 -2.0817 -1.2773  0.2252
   46CHL1   C12 3361   0.466   2.597   7.663 -0.1547 -0.1889 -0.0405
   46CHL1  H12A 3362   0.376   2.650   7.701  0.4834  0.2005  0.9449
   46CHL1  H12B 3363   0.552   2.666   7.677  1.0627 -1.9201  1.2577
   46CHL1   C11 3364   0.451   2.576   7.506  0.4115  0.5337 -0.6085
   46CHL1  H11A 3365   0.347   2.557   7.472  0.3015  0.8316 -0.4404
   46CHL1  H11B 3366   0.478   2.670   7.454 -0.8649  1.6532  0.7070
   46CHL1    C9 3367   0.534   2.470   7.427  0.1902 -0.6006  0.1671
   46CHL1    H9 3368   0.639   2.505   7.426 -1.0506  3.3621 -3.9594
   46CHL1   C10 3369   0.501   2.439   7.282  0.3622  0.5758  1.0000
   46CHL1   C19 3370   0.350   2.416   7.265 -0.2791  0.3675 -0.4093
   46CHL1  H19A 3371   0.327   2.373   7.165 -2.6428 -1.7389  0.9740
   46CHL1  H19B 3372   0.315   2.344   7.342  2.7549 -1.1879 -0.3927
   46CHL1  H19C 3373   0.296   2.513   7.267  0.0040  0.5210  1.8530
   46CHL1    C1 3374   0.546   2.558   7.194  0.7595  0.1893 -1.4268
   46CHL1   H1A 3375   0.505   2.655   7.229 -0.9051 -1.2544  0.7945
   46CHL1   H1B 3376   0.653   2.577   7.220 -0.4608  2.2387  2.5651
   46CHL1    C2 3377   0.544   2.544   7.040  0.0745  0.2508 -0.0017
   46CHL1   H2A 3378   0.589   2.628   6.982  1.8106 -1.2802 -0.9343
   46CHL1   H2B 3379   0.441   2.535   7.001 -0.6254  0.4123  1.7747
   46CHL1   C20 3380   0.502   2.525   7.998  0.2634  0.6107  0.4882
   46CHL1   H20 3381   0.407   2.473   8.023 -0.4052 -0.1827 -3.3897
   46CHL1   C21 3382   0.468   2.671   7.964  0.2898  0.6251  0.0364
   46CHL1  H21A 3383   0.387   2.671   7.888 -0.4049 -2.0471  0.7509
   46CHL1  H21B 3384   0.558   2.723   7.924  1.0750 -0.6797  0.0859
   46CHL1  H21C 3385   0.424   2.730   8.047 -0.2311  0.6573 -0.2615
   46CHL1   C22 3386   0.591   2.511   8.119  0.1042 -1.4114  0.7221
   46CHL1  H22A 3387   0.608   2.405   8.148 -3.9345 -2.1785  0.5818
   46CHL1  H22B 3388   0.689   2.561   8.107 -0.4491 -0.5964 -0.4742
   46CHL1   C23 3389   0.536   2.571   8.249 -0.3473  0.0616 -0.0227
   46CHL1  H23A 3390   0.525   2.679   8.230 -0.4789  0.0126 -0.2181
   46CHL1  H23B 3391   0.443   2.516   8.275 -0.0984 -0.4350 -0.1795
   46CHL1   C24 3392   0.640   2.547   8.363  0.2426  0.1822  0.2788
   46CHL1  H24A 3393   0.663   2.438   8.364 -0.7378 -0.0310  0.7692
   46CHL1  H24B 3394   0.726   2.604   8.322 -0.5145  3.1376  2.5952
   46CHL1   C25 3395   0.598   2.597   8.507 -0.3639  0.5684 -0.1791
   46CHL1   H25 3396   0.551   2.693   8.479 -2.1505 -0.6949 -1.6310
   46CHL1   C26 3397   0.507   2.500   8.577 -0.5664 -0.1761 -0.1329
   46CHL1  H26A 3398   0.418   2.483   8.512  0.6634 -2.0910 -1.3832
   46CHL1  H26B 3399   0.540   2.397   8.604 -1.4170  0.4204  3.4061
   46CHL1  H26C 3400   0.466   2.550   8.668  0.4639 -0.7256  0.6390
   46CHL1   C27 3401   0.713   2.617   8.608  0.7521  0.4701 -0.6779
   46CHL1  H27A 3402   0.799   2.670   8.561  0.1266  2.0541 -0.0705
   46CHL1  H27B 3403   0.675   2.678   8.693 -0.2655 -1.5267  0.3312
   46CHL1  H27C 3404   0.761   2.528   8.654 -0.4497 -0.8753 -1.9631
   47CHL1    C3 3405   6.571   2.212   6.644 -0.1508 -0.1437  0.1263
   47CHL1    H3 3406   6.470   2.166   6.653 -0.1837 -1.2303 -4.7109
   47CHL1    O3 3407   6.601   2.214   6.511 -0.3208 -0.0252  0.3651
   47CHL1   H3' 3408   6.694   2.222   6.491 -0.7833  1.7973 -1.3037
   47CHL1    C4 3409   6.574   2.349   6.696 -0.5454 -0.2851  0.0225
   47CHL1   H4A 3410   6.677   2.386   6.680 -1.2156  1.2744 -0.8502
   47CHL1   H4B 3411   6.506   2.411   6.634  0.5457  0.5869 -0.3200
   47CHL1    C5 3412   6.536   2.362   6.842  0.2486  0.5142 -0.4969
   47CHL1    C6 3413   6.425   2.425   6.888  0.0057 -0.7449 -0.0339
   47CHL1    H6 3414   6.366   2.484   6.815  2.3848  1.7722 -0.0023
   47CHL1    C7 3415   6.382   2.425   7.035 -0.3847 -0.1124  0.4704
   47CHL1   H7A 3416   6.368   2.533   7.060 -0.9323 -0.3504  1.2009
   47CHL1   H7B 3417   6.284   2.378   7.055  1.1688 -3.2860  0.9884
   47CHL1    C8 3418   6.486   2.367   7.129  0.3553 -0.3430  0.0036
   47CHL1    H8 3419   6.570   2.438   7.144  0.0431  0.3355 -1.3782
   47CHL1   C14 3420   6.421   2.344   7.266  0.0448  0.2984  0.6807
   47CHL1   H14 3421   6.345   2.269   7.234  0.8542 -0.2193 -0.0821
   47CHL1   C15 3422   6.343   2.454   7.342 -0.5345 -0.9733 -0.3011
   47CHL1  H15A 3423   6.399   2.550   7.340 -0.8092 -0.8233 -1.5608
   47CHL1  H15B 3424   6.243   2.471   7.295 -1.1430  2.3622  1.9952
   47CHL1   C16 3425   6.336   2.399   7.490  0.2754 -0.2805 -0.1253
   47CHL1  H16A 3426   6.396   2.462   7.559  1.2869 -1.2419 -0.1043
   47CHL1  H16B 3427   6.232   2.397   7.527  0.0310  2.0418 -0.6373
   47CHL1   C17 3428   6.412   2.260   7.491  0.3589 -0.1120 -0.2231
   47CHL1   H17 3429   6.332   2.188   7.464  0.4592 -0.7289  1.0859
   47CHL1   C13 3430   6.506   2.269   7.369 -0.1813 -0.1582  0.0505
   47CHL1   C18 3431   6.625   2.354   7.410 -0.1671  0.3280 -0.2382
   47CHL1  H18A 3432   6.683   2.308   7.494 -1.9382 -1.3711  0.0913
   47CHL1  H18B 3433   6.702   2.374   7.333  0.8150  2.1293  1.1679
   47CHL1  H18C 3434   6.582   2.454   7.435 -1.9825 -0.3950 -0.4100
   47CHL1   C12 3435   6.554   2.129   7.315 -0.2398  0.6117 -0.5060
   47CHL1  H12A 3436   6.633   2.084   7.379  1.4765  2.1625 -1.5134
   47CHL1  H12B 3437   6.466   2.061   7.321  0.9648 -0.7890  2.0824
   47CHL1   C11 3438   6.617   2.141   7.174  0.3894  0.7805 -0.2716
   47CHL1  H11A 3439   6.712   2.195   7.195 -0.1223  1.5007  0.2270
   47CHL1  H11B 3440   6.634   2.042   7.127 -1.5238  1.9560 -3.5924
   47CHL1    C9 3441   6.538   2.234   7.068 -0.0350 -0.1931  0.0000
   47CHL1    H9 3442   6.445   2.177   7.045  1.8669 -2.9974 -0.9821
   47CHL1   C10 3443   6.606   2.250   6.930 -0.0482 -0.3553  0.1151
   47CHL1   C19 3444   6.745   2.314   6.953  0.1326  0.1092  0.3733
   47CHL1  H19A 3445   6.800   2.257   7.031  2.3379  0.9035 -0.5680
   47CHL1  H19B 3446   6.807   2.310   6.861 -2.9263 -1.0121 -1.7381
   47CHL1  H19C 3447   6.730   2.420   6.981  0.3521 -0.2215  1.7528
   47CHL1    C1 3448   6.638   2.110   6.870  0.5542 -0.6757  0.5692
   47CHL1   H1A 3449   6.711   2.048   6.925 -2.0993 -1.3441  3.4651
   47CHL1   H1B 3450   6.538   2.064   6.878  0.4093 -0.6060 -0.7008
   47CHL1    C2 3451   6.679   2.127   6.725 -0.9938  1.1526  0.4897
   47CHL1   H2A 3452   6.667   2.031   6.670  0.1704  0.9079  0.6666
   47CHL1   H2B 3453   6.785   2.156   6.713 -0.3908 -0.7935  1.0750
   47CHL1   C20 3454   6.469   2.219   7.627  0.2879 -0.4823  0.3783
   47CHL1   H20 3455   6.568   2.267   7.643  0.8779  0.1498 -4.4370
   47CHL1   C21 3456   6.485   2.065   7.632  0.0163 -0.2562 -0.1599
   47CHL1  H21A 3457   6.558   2.035   7.554 -1.8514 -2.6053 -1.0334
   47CHL1  H21B 3458   6.399   1.996   7.622  1.6197 -2.0948 -1.6374
   47CHL1  H21C 3459   6.531   2.043   7.731 -2.1420 -2.3834  0.4019
   47CHL1   C22 3460   6.385   2.270   7.747 -0.4362  0.0650 -0.1249
   47CHL1  H22A 3461   6.368   2.380   7.739  2.4829  0.4876 -1.1596
   47CHL1  H22B 3462   6.287   2.218   7.748  1.4526 -3.7163 -3.0952
   47CHL1   C23 3463   6.460   2.258   7.884  0.2063  0.1387 -0.6591
   47CHL1  H23A 3464   6.458   2.154   7.921 -3.8938 -0.2003 -1.6544
   47CHL1  H23B 3465   6.563   2.299   7.868  0.5601  0.1725  1.4946
   47CHL1   C24 3466   6.387   2.359   7.983  0.4519  0.4094 -0.9123
   47CHL1  H24A 3467   6.394   2.464   7.948  1.7659  0.7565  0.3726
   47CHL1  H24B 3468   6.279   2.332   7.982  1.0531 -2.1467 -1.1008
   47CHL1   C25 3469   6.430   2.365   8.132 -0.8985 -0.2578  0.8321
   47CHL1   H25 3470   6.539   2.346   8.118 -1.3715 -2.3505 -0.2069
   47CHL1   C26 3471   6.404   2.500   8.203 -1.2838 -0.1087 -0.5353
   47CHL1  H26A 3472   6.439   2.494   8.308 -0.8355  0.1972 -0.6622
   47CHL1  H26B 3473   6.451   2.587   8.152  0.7241 -0.6090  0.4057
   47CHL1  H26C 3474   6.295   2.510   8.218 -1.2054  0.4193 -0.3254
   47CHL1   C27 3475   6.372   2.256   8.217 -0.0455 -0.3938  0.1145
   47CHL1  H27A 3476   6.262   2.248   8.207 -0.1879  0.2717  1.0577
   47CHL1  H27B 3477   6.413   2.156   8.195 -4.4517 -2.1349 -0.6884
   47CHL1  H27C 3478   6.388   2.280   8.324  2.2064 -1.9257  0.1626
   48CHL1    C3 3479   3.364   5.007   6.410 -0.4388  0.2915 -0.0675
   48CHL1    H3 3480   3.375   4.897   6.422  3.9588  0.4794 -1.6572
   48CHL1    O3 3481   3.375   5.032   6.270 -0.0714  0.7565 -0.2298
   48CHL1   H3' 3482   3.395   5.125   6.260 -0.5732  0.6564 -2.3564
   48CHL1    C4 3483   3.228   5.046   6.464 -0.2621  0.0713 -0.2375
   48CHL1   H4A 3484   3.206   5.155   6.453  0.4966  0.5106  2.2768
   48CHL1   H4B 3485   3.152   4.992   6.403 -2.3860  0.0677  2.3272
   48CHL1    C5 3486   3.233   5.011   6.612  0.3285 -0.2146  0.4036
   48CHL1    C6 3487   3.144   4.929   6.661 -0.4382  0.0941 -0.0715
   48CHL1    H6 3488   3.082   4.860   6.602  0.5844 -0.8103 -0.1097
   48CHL1    C7 3489   3.109   4.907   6.805 -0.4796 -0.2382 -0.1107
   48CHL1   H7A 3490   3.000   4.921   6.822 -0.4994 -0.5915  0.0567
   48CHL1   H7B 3491   3.146   4.803   6.822  0.1802  0.2009  1.1652
   48CHL1    C8 3492   3.179   5.006   6.894 -0.2569 -0.4220 -0.4025
   48CHL1    H8 3493   3.117   5.098   6.892  0.1725 -0.0921  1.0651
   48CHL1   C14 3494   3.192   4.947   7.031  0.0073  0.3717 -0.0008
   48CHL1   H14 3495   3.263   4.862   7.020  0.4956  0.9558 -1.6069
   48CHL1   C15 3496   3.066   4.878   7.098 -0.6025  0.5099  0.1875
   48CHL1  H15A 3497   2.986   4.954   7.087  1.2095  2.6323  1.3214
   48CHL1  H15B 3498   3.026   4.788   7.047 -0.2365  0.6068 -0.2817
   48CHL1   C16 3499   3.110   4.864   7.248  0.5245 -0.2373  0.1965
   48CHL1  H16A 3500   3.041   4.929   7.306  0.4762 -1.9837  2.1633
   48CHL1  H16B 3501   3.095   4.756   7.270  0.7340 -0.2829  0.1152
   48CHL1   C17 3502   3.250   4.935   7.265 -0.2052  0.2384 -0.5911
   48CHL1   H17 3503   3.335   4.869   7.238  2.3453  3.0653  0.1789
   48CHL1   C13 3504   3.256   5.032   7.141 -0.1059  0.8296  0.1353
   48CHL1   C18 3505   3.170   5.162   7.162 -0.7996  0.2596  0.3665
   48CHL1  H18A 3506   3.212   5.232   7.237  0.8367 -1.7849  1.4173
   48CHL1  H18B 3507   3.171   5.209   7.061 -0.3707 -0.9461 -0.2048
   48CHL1  H18C 3508   3.064   5.135   7.184 -0.3557 -0.0678  2.2146
   48CHL1   C12 3509   3.399   5.068   7.094 -0.0881 -0.2976 -0.3931
   48CHL1  H12A 3510   3.439   5.142   7.166  0.4120 -0.3926 -0.5780
   48CHL1  H12B 3511   3.463   4.978   7.102  0.4802  0.0151 -1.4069
   48CHL1   C11 3512   3.399   5.121   6.954  0.2785  0.0532  0.4539
   48CHL1  H11A 3513   3.345   5.216   6.976  2.8459  1.8545 -0.7277
   48CHL1  H11B 3514   3.507   5.138   6.932 -0.2686  1.5384 -1.2048
   48CHL1    C9 3515   3.326   5.034   6.845  0.2720  0.6683 -0.6519
   48CHL1    H9 3516   3.375   4.935   6.839 -1.3112 -0.3212  1.9973
   48CHL1   C10 3517   3.327   5.086   6.704  0.1639  0.2156  0.6932
   48CHL1   C19 3518   3.299   5.240   6.702 -0.2650  0.4592  0.6116
   48CHL1  H19A 3519   3.366   5.301   6.766  0.9693 -0.6603  0.4051
   48CHL1  H19B 3520   3.315   5.279   6.599 -2.3957  0.5150  0.2751
   48CHL1  H19C 3521   3.193   5.260   6.729 -0.3616 -1.8688  2.1338
   48CHL1    C1 3522   3.472   5.060   6.643 -0.0950 -0.7569 -0.8945
   48CHL1   H1A 3523   3.550   5.129   6.682  0.6151 -1.1627 -1.5799
   48CHL1   H1B 3524   3.505   4.955   6.655  1.5377 -0.2365 -0.7717
   48CHL1    C2 3525   3.476   5.075   6.484 -0.0634 -0.2455  0.3117
   48CHL1   H2A 3526   3.567   5.015   6.461  0.6060  0.9233 -0.1279
   48CHL1   H2B 3527   3.498   5.179   6.453  2.0096 -0.6513  0.3120
   48CHL1   C20 3528   3.275   4.995   7.405 -0.8493  0.2033 -0.7372
   48CHL1   H20 3529   3.200   5.075   7.429 -2.0416 -1.3064  0.6671
   48CHL1   C21 3530   3.408   5.064   7.435 -0.1675  0.0481  0.4568
   48CHL1  H21A 3531   3.489   5.013   7.379 -0.2144 -0.4315  0.8221
   48CHL1  H21B 3532   3.438   5.056   7.542  0.5321  0.1719  0.2743
   48CHL1  H21C 3533   3.417   5.173   7.415  1.9388 -0.2490 -0.3706
   48CHL1   C22 3534   3.248   4.882   7.511  0.6681 -0.6087  0.3530
   48CHL1  H22A 3535   3.246   4.932   7.611  0.6235  1.1914 -0.5155
   48CHL1  H22B 3536   3.146   4.850   7.482  0.3519  0.9748 -0.3649
   48CHL1   C23 3537   3.343   4.762   7.519 -0.2131 -0.3363 -0.4399
   48CHL1  H23A 3538   3.346   4.728   7.413  2.3432  1.5242 -1.0107
   48CHL1  H23B 3539   3.449   4.787   7.542  0.7902 -2.2979 -2.6293
   48CHL1   C24 3540   3.289   4.645   7.610 -0.1463 -0.8749 -0.1016
   48CHL1  H24A 3541   3.188   4.620   7.571 -0.1925  0.6594 -0.9880
   48CHL1  H24B 3542   3.330   4.546   7.580  0.3149 -0.5984 -0.3758
   48CHL1   C25 3543   3.296   4.678   7.761 -0.0877  0.1634  0.3570
   48CHL1   H25 3544   3.287   4.789   7.770 -0.9588 -0.1026  3.0532
   48CHL1   C26 3545   3.171   4.623   7.836 -0.3058  0.1568  0.1649
   48CHL1  H26A 3546   3.171   4.512   7.836  1.4934  0.1455  0.2694
   48CHL1  H26B 3547   3.153   4.658   7.940 -0.7478  1.9823 -0.5012
   48CHL1  H26C 3548   3.084   4.657   7.774 -1.5835 -2.4068  0.4907
   48CHL1   C27 3549   3.423   4.634   7.828  0.5768 -0.1630 -0.2075
   48CHL1  H27A 3550   3.426   4.669   7.934 -0.4877 -0.0514 -0.2099
   48CHL1  H27B 3551   3.437   4.524   7.827  0.9744 -0.1325  0.9383
   48CHL1  H27C 3552   3.514   4.681   7.784  0.3300 -0.0812 -0.6319
   49CHL1    C3 3553   2.498   6.248   6.778  0.6338 -0.3354  0.5781
   49CHL1    H3 3554   2.391   6.246   6.808  0.4707  4.4947  0.7307
   49CHL1    O3 3555   2.504   6.224   6.640 -0.8225  0.3283  0.2039
   49CHL1   H3' 3556   2.490   6.129   6.633 -1.7193  0.3624  1.4385
   49CHL1    C4 3557   2.564   6.392   6.803 -0.3398  0.6754  0.1884
   49CHL1   H4A 3558   2.670   6.382   6.769 -0.5502  0.8558 -0.5212
   49CHL1   H4B 3559   2.509   6.461   6.737  1.5635  1.6331 -0.4374
   49CHL1    C5 3560   2.568   6.440   6.945  0.2793 -0.6842  0.4790
   49CHL1    C6 3561   2.518   6.560   6.978  0.4059 -0.0757 -0.0138
   49CHL1    H6 3562   2.476   6.626   6.901  0.4904 -0.6515 -0.5524
   49CHL1    C7 3563   2.531   6.614   7.123  0.1515  0.3603 -0.4718
   49CHL1   H7A 3564   2.564   6.720   7.112 -0.2582  0.5340 -0.0604
   49CHL1   H7B 3565   2.432   6.603   7.172  0.6166 -3.3303 -0.2855
   49CHL1    C8 3566   2.637   6.535   7.203  0.3960 -0.7640  0.0015
   49CHL1    H8 3567   2.737   6.574   7.174  0.6754  1.0505  3.2346
   49CHL1   C14 3568   2.630   6.573   7.346 -0.0327 -0.3940 -0.1933
   49CHL1   H14 3569   2.529   6.550   7.386  0.4356 -0.7406  0.8094
   49CHL1   C15 3570   2.642   6.728   7.368  0.0702 -0.0605  0.5532
   49CHL1  H15A 3571   2.727   6.762   7.305 -0.1129 -1.6270 -0.5524
   49CHL1  H15B 3572   2.543   6.776   7.351  0.5242  0.1999 -1.4344
   49CHL1   C16 3573   2.691   6.731   7.517  0.3358  0.1937  0.6932
   49CHL1  H16A 3574   2.785   6.790   7.526 -0.6066  1.7972 -0.0184
   49CHL1  H16B 3575   2.632   6.795   7.586  1.0847 -1.6118  3.1100
   49CHL1   C17 3576   2.708   6.585   7.564 -0.0649  0.5497 -0.4850
   49CHL1   H17 3577   2.604   6.558   7.593 -0.2927  1.0986 -0.7899
   49CHL1   C13 3578   2.733   6.503   7.438  0.2098  1.3702  0.4295
   49CHL1   C18 3579   2.882   6.530   7.405  0.4638  0.3719  0.7041
   49CHL1  H18A 3580   2.910   6.637   7.422 -0.7223  0.7398  0.3737
   49CHL1  H18B 3581   2.950   6.484   7.480  1.8889 -0.0795 -0.8232
   49CHL1  H18C 3582   2.917   6.508   7.301 -0.3986  1.1701  0.2358
   49CHL1   C12 3583   2.699   6.357   7.433  0.3423 -0.3714 -0.1139
   49CHL1  H12A 3584   2.776   6.300   7.489 -0.2407 -2.0402 -0.9533
   49CHL1  H12B 3585   2.607   6.328   7.489  0.4009  0.0277  0.1864
   49CHL1   C11 3586   2.701   6.294   7.294 -0.3254 -0.1704  0.4725
   49CHL1  H11A 3587   2.809   6.289   7.266 -0.4203 -2.3716  0.4152
   49CHL1  H11B 3588   2.653   6.194   7.294 -0.0088 -0.3513 -1.5527
   49CHL1    C9 3589   2.629   6.390   7.184 -0.1464 -0.4574  0.1612
   49CHL1    H9 3590   2.523   6.367   7.208 -0.1822 -0.4631 -0.0038
   49CHL1   C10 3591   2.643   6.332   7.039 -0.7153 -0.4339  0.5459
   49CHL1   C19 3592   2.796   6.337   7.002 -0.4711 -0.3593 -0.1905
   49CHL1  H19A 3593   2.848   6.434   7.022  0.6806 -1.5796  2.9788
   49CHL1  H19B 3594   2.849   6.270   7.072 -1.2925 -1.3737 -0.5230
   49CHL1  H19C 3595   2.825   6.292   6.905 -1.9560 -0.0349 -0.8061
   49CHL1    C1 3596   2.579   6.194   7.022 -0.0184 -0.1586  0.2686
   49CHL1   H1A 3597   2.634   6.118   7.082  0.1021 -1.4111 -1.3950
   49CHL1   H1B 3598   2.476   6.190   7.063 -0.5328  0.3753 -0.9535
   49CHL1    C2 3599   2.581   6.144   6.871 -0.4360 -0.7198 -0.0295
   49CHL1   H2A 3600   2.538   6.042   6.857 -2.0637 -0.5289  3.1247
   49CHL1   H2B 3601   2.684   6.150   6.831 -0.4646  2.4456  0.2239
   49CHL1   C20 3602   2.803   6.569   7.692 -0.1050 -0.5122  0.0769
   49CHL1   H20 3603   2.904   6.597   7.655  0.8174 -0.4119  2.5781
   49CHL1   C21 3604   2.814   6.430   7.738 -0.2773  0.1014  0.3948
   49CHL1  H21A 3605   2.878   6.423   7.829  0.5798  1.6196 -0.0691
   49CHL1  H21B 3606   2.867   6.370   7.661  0.3746  1.8724 -0.5611
   49CHL1  H21C 3607   2.714   6.391   7.764  0.1237 -1.2367 -0.0529
   49CHL1   C22 3608   2.769   6.665   7.804  0.1426  0.0412  0.9529
   49CHL1  H22A 3609   2.769   6.770   7.767  2.8142 -0.8836 -1.8886
   49CHL1  H22B 3610   2.668   6.640   7.842  1.3038 -0.7782  3.6306
   49CHL1   C23 3611   2.866   6.667   7.921 -0.3282 -0.4984 -0.8115
   49CHL1  H23A 3612   2.849   6.574   7.978  0.7890  1.8058  3.5137
   49CHL1  H23B 3613   2.970   6.667   7.881  0.0169 -1.8580  0.0671
   49CHL1   C24 3614   2.838   6.786   8.014 -0.0380 -0.4055 -0.5516
   49CHL1  H24A 3615   2.881   6.881   7.976 -1.4472  1.0330  1.3878
   49CHL1  H24B 3616   2.730   6.789   8.037 -0.4747 -1.7436 -2.3753
   49CHL1   C25 3617   2.908   6.772   8.153  0.4182  0.1999  0.1053
   49CHL1   H25 3618   2.998   6.717   8.118 -0.5266 -0.5812 -1.1472
   49CHL1   C26 3619   2.941   6.907   8.223  0.0050 -0.6375 -0.3859
   49CHL1  H26A 3620   3.018   6.967   8.171 -1.0033 -0.3972 -1.6200
   49CHL1  H26B 3621   2.851   6.970   8.233  1.1388  0.7023  1.5705
   49CHL1  H26C 3622   2.974   6.873   8.324 -3.1676  0.9700  1.2525
   49CHL1   C27 3623   2.827   6.686   8.250 -0.5334 -0.0781  0.3415
   49CHL1  H27A 3624   2.877   6.662   8.346  0.9900 -0.4184 -0.5242
   49CHL1  H27B 3625   2.729   6.737   8.264  1.0957  3.0427  0.7580
   49CHL1  H27C 3626   2.799   6.590   8.201  2.5248 -1.3985  1.0888
   50CHL1    C3 3627   2.711   0.957   6.711  0.2220 -0.3991  0.2370
   50CHL1    H3 3628   2.642   0.940   6.796 -2.0507 -0.4324 -1.5594
   50CHL1    O3 3629   2.651   0.986   6.594  0.1346 -0.0310  0.3118
   50CHL1   H3' 3630   2.572   1.036   6.615  0.8265  2.2660 -2.2162
   50CHL1    C4 3631   2.800   1.074   6.750  0.7061 -0.0237 -0.5949
   50CHL1   H4A 3632   2.876   1.096   6.673  2.0651  1.0034  0.9860
   50CHL1   H4B 3633   2.737   1.166   6.762  1.3482  0.1713  1.6386
   50CHL1    C5 3634   2.870   1.043   6.886 -0.6116 -0.6652 -0.2890
   50CHL1    C6 3635   2.853   1.132   6.987  0.1208 -0.4246  0.3969
   50CHL1    H6 3636   2.789   1.220   6.968  1.6432  0.6021 -0.0162
   50CHL1    C7 3637   2.916   1.119   7.122  0.4990  0.3797  0.0519
   50CHL1   H7A 3638   2.948   1.218   7.160  0.1153  0.4971  0.0719
   50CHL1   H7B 3639   2.836   1.075   7.185  0.9999 -0.9871 -0.2541
   50CHL1    C8 3640   3.038   1.025   7.118  0.2075 -0.3263 -0.2667
   50CHL1    H8 3641   3.118   1.082   7.067 -0.8149 -0.4157 -2.0042
   50CHL1   C14 3642   3.079   0.995   7.261 -0.0775  0.6111  0.7932
   50CHL1   H14 3643   2.989   0.946   7.305 -0.1054 -1.6440 -1.6558
   50CHL1   C15 3644   3.111   1.110   7.348 -0.2570 -0.0055 -0.1613
   50CHL1  H15A 3645   3.184   1.186   7.315 -1.9985  1.4874 -0.6783
   50CHL1  H15B 3646   3.019   1.167   7.374  0.2104  1.1426 -1.0011
   50CHL1   C16 3647   3.171   1.035   7.470  0.5552 -1.5561  0.3316
   50CHL1  H16A 3648   3.262   1.089   7.503 -2.0956  3.5563 -0.3173
   50CHL1  H16B 3649   3.097   1.045   7.553 -1.5642 -0.0244 -1.6926
   50CHL1   C17 3650   3.208   0.884   7.434 -0.2297  0.0808  0.0385
   50CHL1   H17 3651   3.120   0.823   7.463 -0.7440 -0.6748 -2.9941
   50CHL1   C13 3652   3.185   0.893   7.277 -0.4008 -0.2126 -1.1722
   50CHL1   C18 3653   3.312   0.937   7.214 -0.4011  0.3573  0.3282
   50CHL1  H18A 3654   3.298   0.949   7.105  3.9335  1.6409 -0.1627
   50CHL1  H18B 3655   3.351   1.032   7.256  0.0723  1.1841 -1.9253
   50CHL1  H18C 3656   3.389   0.862   7.241  0.0525  0.6175 -0.2427
   50CHL1   C12 3657   3.143   0.760   7.209 -0.4483 -1.1611 -0.1325
   50CHL1  H12A 3658   3.228   0.689   7.209 -2.3123 -3.4984  2.4810
   50CHL1  H12B 3659   3.059   0.723   7.272  0.3378 -0.9640  1.0373
   50CHL1   C11 3660   3.114   0.787   7.060  0.2097 -0.0345  0.4295
   50CHL1  H11A 3661   3.201   0.809   6.994 -1.0159  1.4878 -0.7226
   50CHL1  H11B 3662   3.068   0.693   7.022 -1.9697  0.2212  2.3563
   50CHL1    C9 3663   3.006   0.896   7.042  0.9045  0.3082  0.2449
   50CHL1    H9 3664   2.915   0.862   7.096  1.3332  0.1580  0.8803
   50CHL1   C10 3665   2.953   0.916   6.892  1.3878  0.3238 -0.2336
   50CHL1   C19 3666   3.075   0.925   6.796 -0.7461  0.4427  0.3982
   50CHL1  H19A 3667   3.045   0.953   6.693 -0.8396  0.9078  0.5528
   50CHL1  H19B 3668   3.150   0.995   6.838  2.5328 -1.1840 -2.4077
   50CHL1  H19C 3669   3.123   0.824   6.797 -1.8549 -0.0849  0.9289
   50CHL1    C1 3670   2.869   0.800   6.836 -0.2460  0.5314  0.5034
   50CHL1   H1A 3671   2.941   0.717   6.821 -1.4577 -0.4921  0.2406
   50CHL1   H1B 3672   2.787   0.776   6.907 -0.0698 -0.6358  0.3147
   50CHL1    C2 3673   2.800   0.830   6.694  0.0425  0.3935 -0.1212
   50CHL1   H2A 3674   2.738   0.741   6.670  1.7200 -0.8331 -0.0574
   50CHL1   H2B 3675   2.881   0.847   6.620  0.7837 -1.3849  0.2569
   50CHL1   C20 3676   3.329   0.832   7.506  0.2361 -0.4790 -0.1813
   50CHL1   H20 3677   3.420   0.896   7.494 -1.8526  3.2396  2.9583
   50CHL1   C21 3678   3.347   0.685   7.457 -0.2805  0.6492  0.0337
   50CHL1  H21A 3679   3.408   0.624   7.527 -1.9054 -0.7338  0.2844
   50CHL1  H21B 3680   3.404   0.688   7.361 -1.3701  0.6095 -0.6233
   50CHL1  H21C 3681   3.248   0.638   7.438  0.3248 -0.0842 -1.4361
   50CHL1   C22 3682   3.312   0.838   7.662  0.2098  0.3678 -0.3578
   50CHL1  H22A 3683   3.319   0.949   7.675  0.4938  0.2223  0.8664
   50CHL1  H22B 3684   3.216   0.789   7.688 -1.9869  4.4619 -0.3152
   50CHL1   C23 3685   3.419   0.769   7.746  0.2308 -0.0903 -0.0962
   50CHL1  H23A 3686   3.398   0.662   7.766  2.3820 -0.4436  0.4446
   50CHL1  H23B 3687   3.525   0.764   7.711  1.1958 -1.8936  2.8439
   50CHL1   C24 3688   3.455   0.848   7.877  0.6022 -0.0481  0.1129
   50CHL1  H24A 3689   3.484   0.950   7.843 -0.7445  0.3981  0.2385
   50CHL1  H24B 3690   3.363   0.851   7.940  1.5531 -0.4886  1.5451
   50CHL1   C25 3691   3.564   0.783   7.964  0.6290 -0.3607 -0.2639
   50CHL1   H25 3692   3.530   0.678   7.980 -0.6461  0.0353 -0.3446
   50CHL1   C26 3693   3.697   0.781   7.902 -0.5175  0.1788 -0.2599
   50CHL1  H26A 3694   3.767   0.721   7.964 -1.0707 -0.1056  0.0876
   50CHL1  H26B 3695   3.707   0.737   7.800  0.7595 -0.5712  0.1711
   50CHL1  H26C 3696   3.742   0.882   7.914 -2.1085  0.6290  2.1945
   50CHL1   C27 3697   3.566   0.857   8.096 -0.0330 -0.5420  0.1572
   50CHL1  H27A 3698   3.469   0.850   8.149 -1.0527  1.0346 -1.4402
   50CHL1  H27B 3699   3.646   0.825   8.165  0.7455 -0.5499 -0.7407
   50CHL1  H27C 3700   3.565   0.965   8.072 -1.7180 -0.8850 -1.4550
   51CHL1    C3 3701   2.887   6.595   6.677  0.5148 -0.3659 -0.1316
   51CHL1    H3 3702   2.897   6.503   6.739  1.3642  0.7693  1.4629
   51CHL1    O3 3703   2.790   6.565   6.572 -0.2029 -0.8104  0.2751
   51CHL1   H3' 3704   2.810   6.636   6.510 -1.3653  1.6057  2.5824
   51CHL1    C4 3705   2.825   6.711   6.763  0.0038  0.7136  0.0889
   51CHL1   H4A 3706   2.794   6.794   6.695 -1.7704 -0.1129 -0.1490
   51CHL1   H4B 3707   2.727   6.675   6.803 -0.0784  0.3558 -0.4393
   51CHL1    C5 3708   2.920   6.757   6.864  0.7980  0.3347 -0.1626
   51CHL1    C6 3709   2.882   6.749   6.989  0.8986 -0.3767  0.1401
   51CHL1    H6 3710   2.783   6.706   7.013  1.0756 -0.5779  0.5190
   51CHL1    C7 3711   2.966   6.787   7.108 -0.1282 -0.7489 -0.4167
   51CHL1   H7A 3712   2.904   6.861   7.162 -0.2821 -1.2464  0.0921
   51CHL1   H7B 3713   2.998   6.703   7.173  2.8336 -1.1920 -2.3290
   51CHL1    C8 3714   3.094   6.863   7.060 -0.5335 -0.0560 -0.1495
   51CHL1    H8 3715   3.061   6.964   7.028 -0.9172  0.1282  0.8067
   51CHL1   C14 3716   3.193   6.870   7.172 -0.3265  0.0753 -0.0587
   51CHL1   H14 3717   3.207   6.766   7.207 -1.8470 -0.9845 -2.4704
   51CHL1   C15 3718   3.152   6.951   7.296  0.5539 -0.0897  0.1617
   51CHL1  H15A 3719   3.107   7.047   7.261 -2.0023 -0.3545  2.5847
   51CHL1  H15B 3720   3.081   6.891   7.357 -0.7539 -0.2517 -1.4696
   51CHL1   C16 3721   3.283   6.993   7.358  0.9769  0.0082 -0.1800
   51CHL1  H16A 3722   3.284   7.103   7.366 -2.8394  0.0325  0.7006
   51CHL1  H16B 3723   3.275   6.953   7.461  0.6431 -2.0909 -0.9829
   51CHL1   C17 3724   3.402   6.948   7.268  0.0618 -0.2725 -0.2097
   51CHL1   H17 3725   3.441   6.848   7.297 -0.1380  0.0213  1.1067
   51CHL1   C13 3726   3.326   6.927   7.130 -0.2646 -0.7049  0.9488
   51CHL1   C18 3727   3.312   7.075   7.060 -0.4883  0.5672  0.6640
   51CHL1  H18A 3728   3.262   7.069   6.961  1.1641  1.1862 -0.2254
   51CHL1  H18B 3729   3.250   7.136   7.130 -0.6807  1.2700 -0.1080
   51CHL1  H18C 3730   3.411   7.123   7.053  0.1475 -0.7134  0.7470
   51CHL1   C12 3731   3.396   6.835   7.040  0.3400 -0.2677 -0.6151
   51CHL1  H12A 3732   3.489   6.879   6.998  1.0452  0.7297  1.9092
   51CHL1  H12B 3733   3.404   6.742   7.100 -0.0628  1.0924  1.6046
   51CHL1   C11 3734   3.305   6.817   6.916 -0.2084  0.0708 -0.4291
   51CHL1  H11A 3735   3.316   6.912   6.859  0.5858  0.0091 -0.3863
   51CHL1  H11B 3736   3.361   6.736   6.864  1.2626  1.5046 -1.1297
   51CHL1    C9 3737   3.158   6.783   6.951  0.8541 -0.0473 -0.1034
   51CHL1    H9 3738   3.158   6.679   6.990  0.7730  0.0124  0.0566
   51CHL1   C10 3739   3.064   6.779   6.827  0.9124 -0.6901 -0.0711
   51CHL1   C19 3740   3.060   6.920   6.752  0.5450  0.2640 -0.1286
   51CHL1  H19A 3741   3.012   6.999   6.813  0.0843 -0.8042  0.9121
   51CHL1  H19B 3742   3.162   6.956   6.725  0.2402  0.5941 -0.8439
   51CHL1  H19C 3743   2.996   6.920   6.662  1.1027 -1.2778 -0.5388
   51CHL1    C1 3744   3.116   6.666   6.730 -0.5753  0.3508 -0.2377
   51CHL1   H1A 3745   3.211   6.702   6.684  1.0601 -1.7105  1.3801
   51CHL1   H1B 3746   3.133   6.568   6.780 -2.0023  0.8804  1.2993
   51CHL1    C2 3747   3.019   6.641   6.614  0.5263 -0.2068  0.1542
   51CHL1   H2A 3748   3.051   6.548   6.563  2.0977  1.6189 -2.2903
   51CHL1   H2B 3749   3.005   6.729   6.549  1.0536 -1.1486 -1.2480
   51CHL1   C20 3750   3.512   7.051   7.277  0.1508  0.2718  0.2373
   51CHL1   H20 3751   3.484   7.151   7.237 -1.5950 -1.1145 -2.1905
   51CHL1   C21 3752   3.639   6.987   7.213 -0.0905  0.5830 -0.6043
   51CHL1  H21A 3753   3.641   6.879   7.241 -1.1450  0.2098 -1.8429
   51CHL1  H21B 3754   3.735   7.035   7.240  0.4397 -0.4803 -0.5391
   51CHL1  H21C 3755   3.633   6.992   7.102  0.2669 -0.9477 -0.7105
   51CHL1   C22 3756   3.550   7.094   7.426 -0.1184 -0.2831  0.2354
   51CHL1  H22A 3757   3.633   7.166   7.419  0.1117 -0.6352 -0.8498
   51CHL1  H22B 3758   3.463   7.145   7.472 -2.1819 -1.6219 -2.0007
   51CHL1   C23 3759   3.583   6.984   7.525  0.0705 -0.6803 -1.3662
   51CHL1  H23A 3760   3.506   6.904   7.520  0.4153 -1.1655  0.7230
   51CHL1  H23B 3761   3.676   6.929   7.495  2.2376 -0.1572  3.7999
   51CHL1   C24 3762   3.607   7.041   7.671 -0.0366  0.5918 -0.6196
   51CHL1  H24A 3763   3.517   7.104   7.689  0.6817  0.9445  1.9153
   51CHL1  H24B 3764   3.616   6.962   7.749 -1.0867 -0.2939 -1.3861
   51CHL1   C25 3765   3.740   7.121   7.702  0.4525  0.0075 -0.3599
   51CHL1   H25 3766   3.754   7.193   7.618 -0.9344  0.1576 -0.4693
   51CHL1   C26 3767   3.732   7.189   7.845  0.1736 -0.2360  0.4254
   51CHL1  H26A 3768   3.647   7.260   7.852 -1.1645 -1.5922 -1.2707
   51CHL1  H26B 3769   3.709   7.107   7.916 -2.0585  0.2090  0.2639
   51CHL1  H26C 3770   3.829   7.228   7.883  0.9994  0.2151 -2.0444
   51CHL1   C27 3771   3.860   7.023   7.714  0.1731  0.4980 -0.0549
   51CHL1  H27A 3772   3.876   6.974   7.615  2.0039  2.2287 -0.6593
   51CHL1  H27B 3773   3.950   7.073   7.756 -0.2224  1.7460 -0.6536
   51CHL1  H27C 3774   3.835   6.942   7.786  0.1761  0.2535 -0.3280
   52CHL1    C3 3775   4.995   0.999   7.001  0.2285  0.0815 -0.2834
   52CHL1    H3 3776   4.912   0.926   6.984 -0.2028  0.6553 -0.6364
   52CHL1    O3 3777   5.045   1.049   6.878  0.1124  0.3893 -0.0627
   52CHL1   H3' 3778   5.003   1.134   6.864 -2.1999 -0.2091  2.7118
   52CHL1    C4 3779   4.945   1.119   7.082  0.3859  0.7740  0.0298
   52CHL1   H4A 3780   5.030   1.189   7.099 -1.4546  3.2355 -0.5389
   52CHL1   H4B 3781   4.877   1.171   7.012  1.8820  1.1399 -1.1785
   52CHL1    C5 3782   4.899   1.089   7.222 -0.0915 -1.2666 -0.3748
   52CHL1    C6 3783   4.784   1.135   7.266  0.5342  0.0886  0.1355
   52CHL1    H6 3784   4.726   1.202   7.202 -1.7288  0.9781  2.9904
   52CHL1    C7 3785   4.735   1.116   7.406  0.8834  0.5493 -0.5840
   52CHL1   H7A 3786   4.702   1.217   7.439  0.4357  0.8998 -2.0701
   52CHL1   H7B 3787   4.647   1.048   7.418 -0.0482  1.8068 -0.2201
   52CHL1    C8 3788   4.842   1.064   7.507  0.4305 -0.3266 -0.9495
   52CHL1    H8 3789   4.899   1.158   7.527 -1.1931  0.7929 -1.4072
   52CHL1   C14 3790   4.773   1.020   7.631  0.0694  0.1246 -0.9207
   52CHL1   H14 3791   4.704   0.939   7.599 -1.0780  1.4421 -1.8144
   52CHL1   C15 3792   4.687   1.112   7.707 -0.5701  0.0400  0.3979
   52CHL1  H15A 3793   4.719   1.218   7.704  0.7308 -0.3474  0.1748
   52CHL1  H15B 3794   4.587   1.129   7.662  0.6358  0.2731 -2.2937
   52CHL1   C16 3795   4.691   1.060   7.854 -0.2265  0.1762 -0.1026
   52CHL1  H16A 3796   4.740   1.125   7.929 -1.7148 -0.5236  1.4974
   52CHL1  H16B 3797   4.583   1.039   7.870 -0.1358  0.1469  0.4539
   52CHL1   C17 3798   4.780   0.929   7.845  0.3817 -0.4160 -0.3483
   52CHL1   H17 3799   4.721   0.841   7.811  0.1186  0.5301 -2.3658
   52CHL1   C13 3800   4.874   0.962   7.729  0.8536  0.0428 -0.3012
   52CHL1   C18 3801   4.982   1.062   7.785  0.3146  0.5058 -0.3329
   52CHL1  H18A 3802   5.053   1.081   7.701  3.2424  2.9660  2.5757
   52CHL1  H18B 3803   4.948   1.163   7.816  0.5712  1.1614 -2.1196
   52CHL1  H18C 3804   5.050   1.016   7.860 -0.7658  0.7985  0.8254
   52CHL1   C12 3805   4.939   0.836   7.661  0.2168 -0.0198 -0.0044
   52CHL1  H12A 3806   5.016   0.784   7.722 -2.1804 -0.3630  2.8592
   52CHL1  H12B 3807   4.867   0.755   7.638 -1.0431  0.6297  1.5495
   52CHL1   C11 3808   5.014   0.875   7.532 -0.0572  0.5605 -0.8454
   52CHL1  H11A 3809   5.102   0.933   7.567  0.0791  1.5496 -2.7896
   52CHL1  H11B 3810   5.055   0.782   7.485 -0.6428 -0.8914  1.4249
   52CHL1    C9 3811   4.925   0.950   7.435  0.7980  0.5983  0.0413
   52CHL1    H9 3812   4.846   0.877   7.407  1.2878 -1.1115  2.9057
   52CHL1   C10 3813   4.993   1.000   7.310 -1.2335  0.4729  1.0057
   52CHL1   C19 3814   5.115   1.085   7.346 -0.3034 -1.1885 -0.3398
   52CHL1  H19A 3815   5.194   1.017   7.385  0.1291 -1.2866 -1.3750
   52CHL1  H19B 3816   5.156   1.146   7.263 -0.4524  1.9688  1.7993
   52CHL1  H19C 3817   5.098   1.165   7.422  0.4760  0.3236 -1.7347
   52CHL1    C1 3818   5.040   0.881   7.221 -0.5269  0.4687  0.9554
   52CHL1   H1A 3819   5.121   0.828   7.275 -0.7128  2.0376  2.8621
   52CHL1   H1B 3820   4.951   0.816   7.206 -1.5993  2.0648  0.2212
   52CHL1    C2 3821   5.100   0.923   7.082 -0.0388  0.5178  0.2205
   52CHL1   H2A 3822   5.126   0.828   7.030 -1.0803 -0.1086  0.8392
   52CHL1   H2B 3823   5.188   0.990   7.096  1.1138 -0.7918 -0.5153
   52CHL1   C20 3824   4.832   0.894   7.989  0.6886 -0.0185  0.5847
   52CHL1   H20 3825   4.912   0.968   8.012  0.6905  0.9318 -2.2727
   52CHL1   C21 3826   4.890   0.751   7.980 -0.1583  0.2390 -0.1500
   52CHL1  H21A 3827   4.820   0.676   7.938 -1.1719 -0.7455  3.0957
   52CHL1  H21B 3828   4.919   0.710   8.079  0.2000 -0.5228 -0.5661
   52CHL1  H21C 3829   4.977   0.737   7.913  0.5471  0.9327  0.6000
   52CHL1   C22 3830   4.728   0.905   8.100 -0.7616  0.3801  0.2140
   52CHL1  H22A 3831   4.776   0.865   8.192  1.3263  0.3673 -0.8481
   52CHL1  H22B 3832   4.698   1.009   8.126  1.1068  0.6087  1.5799
   52CHL1   C23 3833   4.592   0.835   8.082 -0.0833 -0.2134 -0.7769
   52CHL1  H23A 3834   4.532   0.880   8.001  0.4759 -1.0354 -1.6528
   52CHL1  H23B 3835   4.595   0.727   8.055 -0.3626 -0.1362 -1.1172
   52CHL1   C24 3836   4.506   0.849   8.207 -0.4759  0.6996 -0.1592
   52CHL1  H24A 3837   4.491   0.954   8.237  0.5407 -0.4250  4.5941
   52CHL1  H24B 3838   4.403   0.811   8.188 -1.0077  1.6252  0.8844
   52CHL1   C25 3839   4.550   0.762   8.323 -0.7798 -0.2844  0.5031
   52CHL1   H25 3840   4.655   0.784   8.353 -0.6883  0.9071 -0.6645
   52CHL1   C26 3841   4.476   0.793   8.455  0.6044 -0.0295  0.4712
   52CHL1  H26A 3842   4.502   0.722   8.536 -1.3734 -1.1656  0.1603
   52CHL1  H26B 3843   4.498   0.896   8.491  0.2794  0.1650  0.1229
   52CHL1  H26C 3844   4.367   0.776   8.439  0.4272  0.9284  0.6560
   52CHL1   C27 3845   4.543   0.614   8.293  0.3979  0.1919 -0.7599
   52CHL1  H27A 3846   4.439   0.579   8.273  1.1571 -1.1573 -2.4294
   52CHL1  H27B 3847   4.603   0.588   8.203  1.4644  0.8055 -0.2327
   52CHL1  H27C 3848   4.573   0.546   8.375 -0.8339  1.0896  0.4582
   53CHL1    C3 3849   0.557   3.888   7.036  0.6677  0.0455  0.4596
   53CHL1    H3 3850   0.506   3.982   7.007  0.3680  0.2433  1.6010
   53CHL1    O3 3851   0.536   3.797   6.927 -0.3872  0.3301 -0.1966
   53CHL1   H3' 3852   0.545   3.855   6.851  0.7407  1.0335  0.4583
   53CHL1    C4 3853   0.710   3.906   7.061  0.2633  0.3606  1.1475
   53CHL1   H4A 3854   0.754   3.806   7.080  3.5058  1.5037  0.0760
   53CHL1   H4B 3855   0.761   3.937   6.967 -1.8668 -1.4594 -0.6463
   53CHL1    C5 3856   0.728   4.009   7.169  0.3453  0.1954 -0.4432
   53CHL1    C6 3857   0.810   4.113   7.157  0.5624  0.3332  0.3143
   53CHL1    H6 3858   0.853   4.131   7.057  1.2623 -2.2616  0.1200
   53CHL1    C7 3859   0.846   4.208   7.262 -0.7475  0.2108 -0.3010
   53CHL1   H7A 3860   0.954   4.231   7.251 -0.4644 -0.8790  0.1827
   53CHL1   H7B 3861   0.780   4.294   7.238 -0.6738  0.0584 -1.0488
   53CHL1    C8 3862   0.806   4.165   7.407 -0.9343 -0.3516  0.4426
   53CHL1    H8 3863   0.873   4.090   7.455 -2.3557 -1.4922  0.6927
   53CHL1   C14 3864   0.800   4.290   7.502  0.4127  0.4222  0.4034
   53CHL1   H14 3865   0.710   4.347   7.472 -0.5610 -1.3817 -0.1245
   53CHL1   C15 3866   0.916   4.386   7.509 -0.9823  0.2603  0.8578
   53CHL1  H15A 3867   1.012   4.333   7.527 -1.4782 -0.6758  0.7659
   53CHL1  H15B 3868   0.929   4.454   7.422  1.1562 -2.8333 -1.3582
   53CHL1   C16 3869   0.883   4.467   7.638 -0.1730  0.1103  0.0624
   53CHL1  H16A 3870   0.970   4.459   7.707 -0.6404 -1.9618  0.4379
   53CHL1  H16B 3871   0.872   4.577   7.625  0.1585  0.2750  1.0952
   53CHL1   C17 3872   0.759   4.400   7.703 -0.3745 -0.9858  0.0284
   53CHL1   H17 3873   0.666   4.442   7.659  0.8391 -0.1328 -1.8250
   53CHL1   C13 3874   0.759   4.258   7.648  0.0832  0.2112  0.5966
   53CHL1   C18 3875   0.876   4.186   7.725 -0.0943 -0.6716 -0.6296
   53CHL1  H18A 3876   0.831   4.140   7.816  1.1549 -1.9769 -0.6683
   53CHL1  H18B 3877   0.932   4.110   7.666  4.7833  0.1472  2.6410
   53CHL1  H18C 3878   0.949   4.257   7.770  0.3093 -1.5350  0.0920
   53CHL1   C12 3879   0.633   4.177   7.652 -0.0067 -0.2914  0.3095
   53CHL1  H12A 3880   0.624   4.139   7.755  0.6075 -1.4147 -0.0477
   53CHL1  H12B 3881   0.545   4.239   7.624  1.8684  1.8188 -1.0971
   53CHL1   C11 3882   0.631   4.058   7.551 -0.3636 -0.5118  0.2680
   53CHL1  H11A 3883   0.702   3.992   7.603  1.1588  1.3939  0.6559
   53CHL1  H11B 3884   0.528   4.016   7.553 -1.3039  1.6528 -0.4482
   53CHL1    C9 3885   0.670   4.097   7.404 -0.1745  0.6346 -0.2892
   53CHL1    H9 3886   0.597   4.170   7.363 -2.2043 -1.4877 -0.6248
   53CHL1   C10 3887   0.668   3.969   7.311  0.5987  0.0499  0.1343
   53CHL1   C19 3888   0.737   3.847   7.369  0.6015  0.0161 -0.3736
   53CHL1  H19A 3889   0.836   3.872   7.413  0.3324  0.9326 -0.2924
   53CHL1  H19B 3890   0.672   3.821   7.455 -1.0241 -0.5067 -1.7518
   53CHL1  H19C 3891   0.735   3.758   7.302 -0.9214  0.4241 -0.8677
   53CHL1    C1 3892   0.514   3.926   7.279  0.4334  0.4453 -0.6606
   53CHL1   H1A 3893   0.475   3.886   7.376  0.0255  2.4386  0.0189
   53CHL1   H1B 3894   0.444   4.012   7.274 -0.0141  0.0991 -0.4088
   53CHL1    C2 3895   0.491   3.833   7.156  0.2950  0.7236  0.0768
   53CHL1   H2A 3896   0.382   3.831   7.137  0.0729 -1.0229  1.4502
   53CHL1   H2B 3897   0.532   3.731   7.172 -1.2554  0.0568 -0.1571
   53CHL1   C20 3898   0.745   4.423   7.860 -0.1870 -0.2377 -0.1562
   53CHL1   H20 3899   0.833   4.378   7.912 -1.1078 -1.4992  0.3369
   53CHL1   C21 3900   0.617   4.352   7.918 -0.0730 -0.1728 -0.2916
   53CHL1  H21A 3901   0.593   4.393   8.018  4.6536 -1.2399  1.4145
   53CHL1  H21B 3902   0.633   4.245   7.947  3.2028  0.2838 -0.1640
   53CHL1  H21C 3903   0.528   4.375   7.856 -0.1243  3.4083  0.9872
   53CHL1   C22 3904   0.757   4.571   7.889  0.0187 -0.5207 -0.8307
   53CHL1  H22A 3905   0.829   4.624   7.824 -1.8346  1.4446 -1.3543
   53CHL1  H22B 3906   0.657   4.620   7.884 -0.3072 -0.8650  1.9207
   53CHL1   C23 3907   0.801   4.594   8.038 -0.1181  0.5384  0.6532
   53CHL1  H23A 3908   0.748   4.523   8.104  0.5165 -1.1531 -0.6299
   53CHL1  H23B 3909   0.909   4.571   8.040  0.3220  2.4860  0.9582
   53CHL1   C24 3910   0.780   4.737   8.088  0.0300  0.1385 -0.1651
   53CHL1  H24A 3911   0.856   4.797   8.033 -0.9579  1.9366  0.3886
   53CHL1  H24B 3912   0.680   4.769   8.050  0.7512  0.7563 -1.6052
   53CHL1   C25 3913   0.798   4.766   8.244 -0.5471  0.1134 -0.1088
   53CHL1   H25 3914   0.898   4.728   8.270 -0.8179 -1.0669 -0.7392
   53CHL1   C26 3915   0.802   4.913   8.269  0.3428 -0.1087  0.6438
   53CHL1  H26A 3916   0.848   4.938   8.367  2.1666 -2.4003  0.4301
   53CHL1  H26B 3917   0.883   4.957   8.207 -0.1390  2.7038  1.9292
   53CHL1  H26C 3918   0.702   4.954   8.243 -0.2550 -0.6333  2.0797
   53CHL1   C27 3919   0.684   4.712   8.329 -0.6916  0.6701  0.2468
   53CHL1  H27A 3920   0.673   4.610   8.286  0.5694  0.9942 -0.8770
   53CHL1  H27B 3921   0.686   4.696   8.439 -0.3235 -0.8311  0.0281
   53CHL1  H27C 3922   0.594   4.776   8.313 -1.6029 -0.8379 -0.7677
   54CHL1    C3 3923   1.045   5.552   6.738 -0.6388 -0.1482  0.7000
   54CHL1    H3 3924   1.152   5.522   6.731 -0.2241  1.8410 -2.3315
   54CHL1    O3 3925   0.975   5.503   6.620  0.4350  0.3549  0.6876
   54CHL1   H3' 3926   0.919   5.428   6.644  2.1068 -0.2039  3.0785
   54CHL1    C4 3927   0.979   5.492   6.868 -0.1702 -0.9429  0.3170
   54CHL1   H4A 3928   0.872   5.519   6.855 -0.7309 -2.3779  1.7941
   54CHL1   H4B 3929   0.978   5.381   6.858 -1.8724 -0.9213  0.0381
   54CHL1    C5 3930   1.042   5.546   6.996  0.1715  0.2764 -0.1125
   54CHL1    C6 3931   1.089   5.459   7.085 -0.7933 -0.1755 -0.1993
   54CHL1    H6 3932   1.090   5.349   7.076 -0.1301 -0.2211  0.4038
   54CHL1    C7 3933   1.153   5.518   7.210 -0.0616 -0.1287 -0.0474
   54CHL1   H7A 3934   1.115   5.462   7.298 -0.5210  2.1196  1.2150
   54CHL1   H7B 3935   1.262   5.498   7.211 -0.7583 -4.6596 -0.3249
   54CHL1    C8 3936   1.131   5.661   7.239  0.0056  0.0045 -0.5774
   54CHL1    H8 3937   1.027   5.676   7.274 -0.3581 -3.1609 -0.1776
   54CHL1   C14 3938   1.231   5.709   7.347  0.4992  1.0265 -0.2248
   54CHL1   H14 3939   1.327   5.711   7.291  1.2850 -0.6886  1.0169
   54CHL1   C15 3940   1.247   5.621   7.472 -0.0606  0.1723 -0.2464
   54CHL1  H15A 3941   1.149   5.592   7.515  1.7255 -0.8161  3.3695
   54CHL1  H15B 3942   1.319   5.540   7.449 -0.4016 -0.8702  2.2007
   54CHL1   C16 3943   1.325   5.710   7.574  0.6890 -0.0914 -0.2871
   54CHL1  H16A 3944   1.261   5.702   7.664  1.0804  1.4036  0.1347
   54CHL1  H16B 3945   1.425   5.668   7.597  1.1105  1.7543  1.4402
   54CHL1   C17 3946   1.317   5.851   7.515  0.4243 -0.1801 -0.5974
   54CHL1   H17 3947   1.416   5.871   7.469 -0.7909  0.3486 -3.0888
   54CHL1   C13 3948   1.216   5.847   7.395  0.1444  0.0209  0.0234
   54CHL1   C18 3949   1.076   5.860   7.456 -0.3472 -0.5162 -0.2412
   54CHL1  H18A 3950   1.000   5.865   7.375  0.1208 -2.2313 -0.8048
   54CHL1  H18B 3951   1.056   5.779   7.529  1.8422 -0.3283  0.6055
   54CHL1  H18C 3952   1.061   5.959   7.504  1.4768 -0.8238  0.9810
   54CHL1   C12 3953   1.250   5.940   7.273 -0.4552 -0.3096 -0.2081
   54CHL1  H12A 3954   1.226   6.046   7.296 -0.3659 -0.4517  0.5616
   54CHL1  H12B 3955   1.360   5.928   7.258 -0.4802  0.2194 -0.8511
   54CHL1   C11 3956   1.166   5.904   7.149  0.7857  0.5104  0.3087
   54CHL1  H11A 3957   1.064   5.935   7.182 -0.2134 -4.2893  2.1452
   54CHL1  H11B 3958   1.204   5.968   7.067  1.3206 -0.6218 -0.3339
   54CHL1    C9 3959   1.153   5.746   7.116 -0.2085  0.1749 -0.0189
   54CHL1    H9 3960   1.255   5.721   7.079 -0.3978  1.3635 -1.3877
   54CHL1   C10 3961   1.058   5.699   7.003 -0.1833 -0.2794  0.8721
   54CHL1   C19 3962   0.911   5.744   7.033 -0.5696 -0.4801  0.2326
   54CHL1  H19A 3963   0.844   5.704   6.953 -0.9225  0.4267  0.0640
   54CHL1  H19B 3964   0.865   5.712   7.129 -1.0787  2.2875  0.9552
   54CHL1  H19C 3965   0.915   5.855   7.023 -1.8516 -0.5123 -0.8192
   54CHL1    C1 3966   1.101   5.768   6.867  0.9228 -0.8108  0.3673
   54CHL1   H1A 3967   1.088   5.878   6.874  0.6214 -0.7571 -0.7898
   54CHL1   H1B 3968   1.212   5.767   6.859  0.7657  1.1950 -2.9985
   54CHL1    C2 3969   1.031   5.701   6.740 -0.5239  0.2803  0.0424
   54CHL1   H2A 3970   1.069   5.740   6.643 -1.0867 -2.2703 -1.2413
   54CHL1   H2B 3971   0.925   5.732   6.738 -0.8583 -0.7981  0.4709
   54CHL1   C20 3972   1.312   5.963   7.623  0.5136 -0.1625  0.2586
   54CHL1   H20 3973   1.210   5.957   7.668  0.5220 -0.5551  0.2253
   54CHL1   C21 3974   1.326   6.101   7.557  0.5812 -0.1197 -0.1422
   54CHL1  H21A 3975   1.362   6.179   7.628  0.7454  1.4963 -1.9871
   54CHL1  H21B 3976   1.225   6.135   7.526  0.1596 -0.6223  0.6345
   54CHL1  H21C 3977   1.399   6.097   7.474  0.2594  3.1254 -0.6181
   54CHL1   C22 3978   1.414   5.951   7.737  0.8988 -0.3620 -0.1111
   54CHL1  H22A 3979   1.444   5.846   7.757  2.1761  0.0492  0.1920
   54CHL1  H22B 3980   1.508   6.003   7.708  0.7210  0.3220  0.5269
   54CHL1   C23 3981   1.373   6.022   7.867  0.7049 -0.3286  0.7665
   54CHL1  H23A 3982   1.406   6.128   7.867 -2.0092  0.5629 -0.9473
   54CHL1  H23B 3983   1.262   6.030   7.869  0.7339  1.3709 -2.1041
   54CHL1   C24 3984   1.433   5.967   7.991 -0.3384  0.5493 -0.9027
   54CHL1  H24A 3985   1.389   5.866   8.001 -2.0907  1.4085  0.3684
   54CHL1  H24B 3986   1.544   5.955   7.984 -0.5856 -1.7856 -1.0958
   54CHL1   C25 3987   1.402   6.043   8.121  0.3542 -0.3565  0.3528
   54CHL1   H25 3988   1.291   6.046   8.125  0.0288 -3.4258 -3.1199
   54CHL1   C26 3989   1.442   5.962   8.246 -0.0508  0.2886 -0.7517
   54CHL1  H26A 3990   1.378   5.874   8.264 -0.4906  0.6555 -0.5223
   54CHL1  H26B 3991   1.550   5.936   8.241 -0.1623 -0.8530  1.7574
   54CHL1  H26C 3992   1.433   6.028   8.336 -2.3018 -1.0533  0.0441
   54CHL1   C27 3993   1.455   6.194   8.134  0.1796 -0.3536 -0.6796
   54CHL1  H27A 3994   1.565   6.184   8.126  0.3497 -0.4175  1.3096
   54CHL1  H27B 3995   1.415   6.257   8.052  1.8632 -0.9702 -1.9805
   54CHL1  H27C 3996   1.432   6.245   8.230  1.4615  1.8318 -1.5316
   55CHL1    C3 3997   0.685   0.699   6.852 -0.0757  1.0187 -0.6191
   55CHL1    H3 3998   0.730   0.800   6.861 -0.3300  1.0186  0.6805
   55CHL1    O3 3999   0.643   0.673   6.718 -0.5257  0.5642 -0.1557
   55CHL1   H3' 4000   0.696   0.598   6.689  1.0836  1.5497  0.1349
   55CHL1    C4 4001   0.788   0.586   6.885 -0.2036 -0.2344  0.2699
   55CHL1   H4A 4002   0.732   0.491   6.871  1.1116 -0.7928 -1.2992
   55CHL1   H4B 4003   0.870   0.585   6.810 -1.3004 -0.4606 -0.9504
   55CHL1    C5 4004   0.842   0.593   7.027 -0.0498  0.0413 -0.1914
   55CHL1    C6 4005   0.974   0.591   7.054  0.0855 -0.0375  0.1735
   55CHL1    H6 4006   1.041   0.582   6.967 -1.0362  0.2233 -0.7195
   55CHL1    C7 4007   1.039   0.598   7.190  0.0595 -0.2477 -0.1689
   55CHL1   H7A 4008   1.123   0.525   7.200  0.5198  0.5938  2.5987
   55CHL1   H7B 4009   1.079   0.701   7.197  0.3500 -0.2133 -1.9955
   55CHL1    C8 4010   0.932   0.580   7.297  0.0434  0.3635 -0.4634
   55CHL1    H8 4011   0.893   0.476   7.305 -2.4674  1.2506 -0.5523
   55CHL1   C14 4012   0.987   0.623   7.434  0.0773 -0.2030  0.3190
   55CHL1   H14 4013   1.007   0.732   7.425  0.6842 -0.2673  0.8790
   55CHL1   C15 4014   1.122   0.569   7.485  0.2066  0.8410  0.4513
   55CHL1  H15A 4015   1.119   0.458   7.476 -1.5599  0.8613  0.5700
   55CHL1  H15B 4016   1.207   0.609   7.426 -1.8703  1.5878 -2.1121
   55CHL1   C16 4017   1.123   0.604   7.634  0.5966 -0.6286 -0.4802
   55CHL1  H16A 4018   1.133   0.508   7.688 -2.5428 -1.4097 -1.1963
   55CHL1  H16B 4019   1.210   0.665   7.667 -1.5435  2.8492 -0.9796
   55CHL1   C17 4020   0.996   0.686   7.665  0.3899 -1.0321  0.1848
   55CHL1   H17 4021   1.024   0.790   7.637 -0.7995 -0.9375 -0.6786
   55CHL1   C13 4022   0.897   0.630   7.557 -0.2725 -0.8814 -0.4425
   55CHL1   C18 4023   0.851   0.488   7.599 -0.2085 -0.4452 -0.0504
   55CHL1  H18A 4024   0.930   0.422   7.640  0.0591 -0.1183 -0.0387
   55CHL1  H18B 4025   0.761   0.504   7.662  0.0743  0.8373  0.0471
   55CHL1  H18C 4026   0.804   0.433   7.514 -0.5777 -2.4486  1.4281
   55CHL1   C12 4027   0.768   0.715   7.529 -0.0739 -0.3156 -0.0318
   55CHL1  H12A 4028   0.702   0.699   7.617  0.6787  2.2811  1.0515
   55CHL1  H12B 4029   0.797   0.822   7.530 -2.0627  0.2319  0.3971
   55CHL1   C11 4030   0.697   0.668   7.395  0.3956 -0.0503  0.4948
   55CHL1  H11A 4031   0.664   0.562   7.405  1.0488 -0.2340  0.7097
   55CHL1  H11B 4032   0.619   0.736   7.356  0.1778 -0.5462  0.0559
   55CHL1    C9 4033   0.804   0.663   7.268  0.2249 -0.9559  0.1160
   55CHL1    H9 4034   0.837   0.768   7.258 -0.8077 -0.5947  0.4249
   55CHL1   C10 4035   0.736   0.616   7.141  0.4228  0.3692  0.2311
   55CHL1   C19 4036   0.667   0.477   7.158  0.0305  0.0914 -0.0640
   55CHL1  H19A 4037   0.741   0.400   7.191  0.1786  0.2865  0.0621
   55CHL1  H19B 4038   0.582   0.486   7.228 -1.1872 -0.3779 -1.4607
   55CHL1  H19C 4039   0.633   0.448   7.056 -0.2685 -1.3484  0.4321
   55CHL1    C1 4040   0.623   0.717   7.099 -0.1522 -0.1141  0.4482
   55CHL1   H1A 4041   0.539   0.724   7.171 -0.1064 -1.8321  0.7103
   55CHL1   H1B 4042   0.666   0.819   7.093  0.5684 -0.3554  1.3115
   55CHL1    C2 4043   0.568   0.695   6.955  0.7160  0.5385  0.0514
   55CHL1   H2A 4044   0.498   0.776   6.926  1.0711 -0.0934 -2.6535
   55CHL1   H2B 4045   0.510   0.601   6.950  0.2143  0.9267 -1.4455
   55CHL1   C20 4046   0.936   0.691   7.814  0.5095 -0.0859 -0.0662
   55CHL1   H20 4047   0.857   0.615   7.827 -1.2620  2.1342  2.6882
   55CHL1   C21 4048   0.886   0.837   7.828  0.3054  0.5356  0.8376
   55CHL1  H21A 4049   0.839   0.848   7.928  0.5087  0.8803  0.8961
   55CHL1  H21B 4050   0.814   0.868   7.749  0.4901  0.9733  0.8358
   55CHL1  H21C 4051   0.970   0.910   7.822 -0.3357  1.0374 -3.9128
   55CHL1   C22 4052   1.043   0.664   7.922  0.2211 -0.3604  0.4103
   55CHL1  H22A 4053   1.109   0.584   7.883  0.4750  0.4175 -0.7494
   55CHL1  H22B 4054   1.104   0.756   7.928  1.2573 -0.9973 -0.1910
   55CHL1   C23 4055   0.994   0.622   8.060 -0.2534 -0.0130  0.0356
   55CHL1  H23A 4056   0.946   0.712   8.102 -1.3652 -0.0919 -1.0374
   55CHL1  H23B 4057   0.924   0.537   8.048  1.4850 -1.9486  2.9434
   55CHL1   C24 4058   1.117   0.589   8.148 -0.1613  0.2661 -0.5646
   55CHL1  H24A 4059   1.175   0.517   8.087  1.0166  1.7722 -1.2489
   55CHL1  H24B 4060   1.179   0.679   8.170  3.6947 -2.1370 -1.1663
   55CHL1   C25 4061   1.083   0.531   8.280  0.7387 -0.2680  0.2692
   55CHL1   H25 4062   1.176   0.492   8.326  1.2586  0.5948 -0.0244
   55CHL1   C26 4063   1.032   0.642   8.378 -0.4062  0.0097  0.4779
   55CHL1  H26A 4064   0.935   0.686   8.345  0.6377  1.9729 -0.0579
   55CHL1  H26B 4065   0.995   0.588   8.468  0.9590 -0.3012  0.8636
   55CHL1  H26C 4066   1.098   0.730   8.393  0.3415 -0.4425 -0.1263
   55CHL1   C27 4067   0.984   0.418   8.276  0.0859  0.4992  0.3257
   55CHL1  H27A 4068   0.892   0.468   8.237  0.1750  0.3348 -0.1079
   55CHL1  H27B 4069   1.019   0.332   8.214 -3.5142  0.0539 -1.2473
   55CHL1  H27C 4070   0.959   0.376   8.375  1.0105  0.4892  0.5575
   56CHL1    C3 4071   0.274   5.372   7.009  0.9019 -0.1311  0.2650
   56CHL1    H3 4072   0.383   5.390   7.019  0.7265  1.8783 -1.1394
   56CHL1    O3 4073   0.245   5.339   6.870 -0.1808  0.5863  0.0065
   56CHL1   H3' 4074   0.307   5.393   6.821  0.7386  2.4278  3.0252
   56CHL1    C4 4075   0.234   5.262   7.101 -0.6506 -0.2245  0.0672
   56CHL1   H4A 4076   0.126   5.234   7.097 -0.1919 -2.0385  0.0061
   56CHL1   H4B 4077   0.293   5.174   7.068  0.7379  0.0634  1.7306
   56CHL1    C5 4078   0.259   5.294   7.249 -0.3183 -0.5687 -1.0728
   56CHL1    C6 4079   0.321   5.208   7.330  0.3233  0.6331  0.3038
   56CHL1    H6 4080   0.355   5.110   7.293 -0.4525 -0.3990  2.2601
   56CHL1    C7 4081   0.357   5.230   7.476 -0.3587  0.3005 -0.1897
   56CHL1   H7A 4082   0.322   5.138   7.529 -2.3392  2.0240  1.6105
   56CHL1   H7B 4083   0.466   5.241   7.489 -0.8600  2.0264  3.0060
   56CHL1    C8 4084   0.282   5.359   7.535 -0.8881  0.1064 -0.7618
   56CHL1    H8 4085   0.181   5.324   7.566 -0.2369  1.7013  3.3943
   56CHL1   C14 4086   0.362   5.404   7.666 -0.4043 -0.2514  0.4869
   56CHL1   H14 4087   0.452   5.446   7.616 -1.0084  1.4635  0.8173
   56CHL1   C15 4088   0.396   5.307   7.777 -0.3790  0.3594 -0.4663
   56CHL1  H15A 4089   0.306   5.251   7.810 -0.4535  0.5774 -0.2992
   56CHL1  H15B 4090   0.482   5.241   7.751 -0.3984  0.1516 -0.0156
   56CHL1   C16 4091   0.442   5.408   7.889  1.0400  0.2683 -0.0683
   56CHL1  H16A 4092   0.400   5.367   7.983 -1.7018 -0.2660 -1.4587
   56CHL1  H16B 4093   0.553   5.407   7.899  0.9152 -0.5211  1.3029
   56CHL1   C17 4094   0.398   5.550   7.850 -0.0171 -1.2943 -0.6838
   56CHL1   H17 4095   0.484   5.595   7.797 -0.9610  2.4622  0.8096
   56CHL1   C13 4096   0.302   5.529   7.735  0.6034 -0.8564 -0.1812
   56CHL1   C18 4097   0.161   5.489   7.781 -0.0789  0.0903 -0.1387
   56CHL1  H18A 4098   0.114   5.577   7.830 -1.9829 -0.2210 -1.3862
   56CHL1  H18B 4099   0.096   5.469   7.694  0.5219 -1.6797 -0.1924
   56CHL1  H18C 4100   0.165   5.405   7.853 -1.1958  0.3399  0.2138
   56CHL1   C12 4101   0.294   5.636   7.629 -1.0325 -0.0807 -0.3238
   56CHL1  H12A 4102   0.260   5.735   7.666  0.4591  0.5665 -0.6378
   56CHL1  H12B 4103   0.397   5.670   7.604 -0.4388 -1.3395  0.3404
   56CHL1   C11 4104   0.212   5.601   7.503 -0.7706 -0.2001  0.2140
   56CHL1  H11A 4105   0.105   5.579   7.523 -0.9236  1.0459  0.7702
   56CHL1  H11B 4106   0.207   5.687   7.433  0.4870 -0.2435  0.0471
   56CHL1    C9 4107   0.271   5.477   7.432  0.2744 -0.0492  0.1728
   56CHL1    H9 4108   0.377   5.501   7.409  1.1381 -2.1999  1.7417
   56CHL1   C10 4109   0.203   5.428   7.299 -0.1273  0.2327 -0.1601
   56CHL1   C19 4110   0.048   5.427   7.325 -0.5218  0.2306 -0.1207
   56CHL1  H19A 4111   0.014   5.361   7.408  1.3309 -0.7557 -0.1397
   56CHL1  H19B 4112   0.014   5.530   7.350  1.7569  1.8216 -3.2549
   56CHL1  H19C 4113  -0.002   5.389   7.234  4.2408 -0.9730 -2.3420
   56CHL1    C1 4114   0.233   5.541   7.189  0.0850 -0.2168 -0.5131
   56CHL1   H1A 4115   0.174   5.633   7.213 -0.2787  0.0646 -2.3768
   56CHL1   H1B 4116   0.343   5.545   7.203 -0.0088  0.3150  0.1084
   56CHL1    C2 4117   0.190   5.494   7.046 -0.5215  0.7734  0.0332
   56CHL1   H2A 4118   0.211   5.576   6.975  1.1188  0.3442  0.0039
   56CHL1   H2B 4119   0.080   5.478   7.050 -0.2944 -0.5850  4.5623
   56CHL1   C20 4120   0.354   5.643   7.963 -0.1873  0.4989 -0.8466
   56CHL1   H20 4121   0.259   5.610   8.011  2.3925 -3.2699  1.9852
   56CHL1   C21 4122   0.325   5.785   7.918  0.0486  0.3479  0.5302
   56CHL1  H21A 4123   0.289   5.855   7.997  0.6320 -2.3669  3.2801
   56CHL1  H21B 4124   0.243   5.790   7.843  1.3059 -0.9980 -0.9618
   56CHL1  H21C 4125   0.413   5.835   7.872  0.5364 -0.9791  0.0123
   56CHL1   C22 4126   0.461   5.656   8.077  0.1012  0.3143  0.0182
   56CHL1  H22A 4127   0.483   5.556   8.119 -0.6253 -0.1034 -0.5860
   56CHL1  H22B 4128   0.556   5.705   8.046 -0.6619  1.2987 -0.8127
   56CHL1   C23 4129   0.415   5.738   8.205 -0.2323 -0.2020  0.2516
   56CHL1  H23A 4130   0.366   5.831   8.171  2.0949  0.5531 -1.1251
   56CHL1  H23B 4131   0.341   5.676   8.261 -0.7657  2.5439  2.6842
   56CHL1   C24 4132   0.536   5.769   8.304  0.7077  0.1461  0.1977
   56CHL1  H24A 4133   0.578   5.668   8.323 -0.0785  0.0686  1.5673
   56CHL1  H24B 4134   0.604   5.826   8.237  0.5711  0.3430  0.2290
   56CHL1   C25 4135   0.500   5.846   8.432  0.0010  0.6657 -0.0064
   56CHL1   H25 4136   0.439   5.773   8.490  2.9099 -0.8126  1.3237
   56CHL1   C26 4137   0.623   5.882   8.506  0.2391  0.0380  0.6996
   56CHL1  H26A 4138   0.697   5.798   8.510  0.6812  0.5331  3.9265
   56CHL1  H26B 4139   0.600   5.923   8.607  1.0713 -0.0692  0.9350
   56CHL1  H26C 4140   0.673   5.961   8.446 -0.3346  0.6286  0.9919
   56CHL1   C27 4141   0.410   5.964   8.401 -0.0065  0.3724 -0.3877
   56CHL1  H27A 4142   0.311   5.945   8.354 -0.0141 -0.7434  0.0698
   56CHL1  H27B 4143   0.392   6.006   8.502 -3.3397 -2.0701  0.1031
   56CHL1  H27C 4144   0.458   6.042   8.338 -0.3583 -0.5042 -1.7774
   57SAPC     N 4145   0.248   2.073  11.014  0.3434 -0.7610  0.9965
   57SAPC   C12 4146   0.330   2.054  10.884  0.3089  0.3729 -0.2944
   57SAPC  H12A 4147   0.359   1.952  10.903  0.7408  0.5666  0.1033
   57SAPC  H12B 4148   0.410   2.126  10.879  0.2428  0.5249  0.8410
   57SAPC   C13 4149   0.342   2.076  11.134 -0.3632 -0.2585 -0.3225
   57SAPC  H13A 4150   0.408   2.161  11.132 -1.2817  0.4490 -0.8257
   57SAPC  H13B 4151   0.284   2.098  11.223  2.9500  1.3839  1.5483
   57SAPC  H13C 4152   0.396   1.983  11.143 -1.4081 -0.6429  2.6271
   57SAPC   C14 4153   0.170   2.202  11.014 -0.0321 -0.2957  0.2531
   57SAPC  H14A 4154   0.111   2.211  10.924 -1.8616  1.3617  1.5921
   57SAPC  H14B 4155   0.102   2.199  11.098  0.8135 -1.2907  0.9316
   57SAPC  H14C 4156   0.243   2.280  11.028  2.3011 -2.5305  0.9626
   57SAPC   C15 4157   0.158   1.955  11.048  0.3172  0.0927 -0.1971
   57SAPC  H15A 4158   0.084   1.978  11.123 -0.6630 -1.6278 -0.6187
   57SAPC  H15B 4159   0.093   1.932  10.965  0.0235 -1.4950  0.4506
   57SAPC  H15C 4160   0.212   1.865  11.077  1.0347  0.2766 -0.9215
   57SAPC   C11 4161   0.256   2.049  10.745  0.0049 -0.9701  0.3924
   57SAPC  H11A 4162   0.323   2.063  10.657  0.2880 -0.2100  0.7218
   57SAPC  H11B 4163   0.183   2.132  10.734 -0.6837 -1.9078 -2.5191
   57SAPC     P 4164   0.246   1.787  10.699  0.0610 -0.2067  0.1895
   57SAPC   O13 4165   0.381   1.770  10.763 -0.2751 -0.0515 -0.2906
   57SAPC   O14 4166   0.151   1.679  10.735  0.6041  0.0661 -0.2575
   57SAPC   O12 4167   0.186   1.923  10.733  0.1242 -0.1218  0.1581
   57SAPC   O11 4168   0.271   1.781  10.547 -0.3350  0.8635  0.0325
   57SAPC    C1 4169   0.190   1.847  10.452  0.3134  0.3488 -0.4888
   57SAPC    HA 4170   0.181   1.956  10.469  3.5581  0.6678 -0.5095
   57SAPC    HB 4171   0.244   1.843  10.355  1.2522  0.3527  0.0344
   57SAPC    C2 4172   0.057   1.770  10.436 -0.0819  0.2111  0.1000
   57SAPC    HS 4173   0.027   1.744  10.540 -1.7999  0.8360 -0.2088
   57SAPC   O21 4174   0.088   1.650  10.360  0.4641  0.0494 -0.2492
   57SAPC   C21 4175  -0.014   1.555  10.349  0.3301  0.1271 -0.4613
   57SAPC   O22 4176  -0.117   1.551  10.409  0.4125  0.2603  0.2074
   57SAPC   C22 4177   0.035   1.453  10.239 -0.5818  0.6565 -0.3380
   57SAPC   H2R 4178   0.145   1.462  10.230 -0.3406 -1.6134  0.0946
   57SAPC   H2S 4179   0.019   1.351  10.281 -0.2994  0.1752 -1.3962
   57SAPC    C3 4180  -0.063   1.856  10.378 -0.9908 -0.0118 -0.0887
   57SAPC    HX 4181  -0.084   1.913  10.471  3.0758 -0.5042  1.1891
   57SAPC    HY 4182  -0.155   1.800  10.351 -1.1268  0.2041 -0.0771
   57SAPC   O31 4183  -0.006   1.943  10.277  0.1894  0.0623 -0.6264
   57SAPC   C31 4184  -0.014   1.898  10.155  0.6137 -0.5975  0.3144
   57SAPC   O32 4185  -0.076   1.804  10.117 -0.1580  0.1615 -0.0175
   57SAPC   C32 4186   0.072   1.983  10.066 -0.0435 -0.1857 -0.1749
   57SAPC   H2X 4187   0.167   1.927  10.062 -0.7792 -1.5068  0.3471
   57SAPC   H2Y 4188   0.104   2.078  10.114  2.0584 -1.4295  0.9259
   57SAPC   C23 4189  -0.027   1.471  10.100  0.1610 -0.7421  0.2671
   57SAPC   H3R 4190   0.020   1.400  10.028  1.6208 -0.9414  1.3929
   57SAPC   H3S 4191  -0.002   1.569  10.055 -0.9619  0.4852  2.2905
   57SAPC   C24 4192  -0.176   1.440  10.089 -0.3647  0.8676  0.6208
   57SAPC   H4R 4193  -0.210   1.486   9.994  1.5652  0.9110 -0.0660
   57SAPC   H4S 4194  -0.242   1.500  10.156  0.2472  0.3443  1.7136
   57SAPC   C25 4195  -0.210   1.295  10.099 -0.0105  0.5224  0.3322
   57SAPC   H5R 4196  -0.223   1.270  10.206 -0.3282 -0.4503  0.0773
   57SAPC   C26 4197  -0.255   1.211  10.008  0.0353  0.1071  1.3050
   57SAPC   H6R 4198  -0.262   1.107  10.041  0.3499  0.4037  2.3444
   57SAPC   C27 4199  -0.283   1.249   9.868  0.5178 -0.1267  0.5902
   57SAPC   H7R 4200  -0.348   1.339   9.864 -1.9692 -1.9470 -1.7871
   57SAPC   H7S 4201  -0.352   1.170   9.831  2.2642 -2.1234  1.5440
   57SAPC   C28 4202  -0.169   1.239   9.770 -0.1132  0.4665 -0.0490
   57SAPC   H8R 4203  -0.074   1.199   9.808 -0.2530 -0.2113 -0.4097
   57SAPC   C29 4204  -0.186   1.272   9.643 -0.0193 -0.8231  0.7127
   57SAPC   H9R 4205  -0.096   1.264   9.579 -1.2243  0.6880 -1.2205
   57SAPC  C210 4206  -0.316   1.318   9.578 -0.5204 -0.2870 -0.1963
   57SAPC  H10R 4207  -0.392   1.237   9.589  0.7413 -1.4674 -0.0607
   57SAPC  H10S 4208  -0.296   1.322   9.468  1.4466 -0.3428  0.1459
   57SAPC  C211 4209  -0.363   1.454   9.616  0.1430  0.3778  0.6597
   57SAPC  H11R 4210  -0.281   1.512   9.662 -0.9810  1.4776  1.2958
   57SAPC  C212 4211  -0.477   1.512   9.564 -0.8848 -0.3096  0.4547
   57SAPC  H12R 4212  -0.504   1.611   9.604  1.1945  0.6097 -0.3478
   57SAPC  C213 4213  -0.578   1.455   9.473 -0.5187  0.3129  0.0788
   57SAPC  H13R 4214  -0.659   1.531   9.469 -0.3594  0.5286  0.8694
   57SAPC  H13S 4215  -0.620   1.368   9.527  1.5102 -1.1797 -0.6688
   57SAPC  C214 4216  -0.513   1.418   9.340 -0.4457 -0.2576  0.2616
   57SAPC  H14R 4217  -0.471   1.317   9.331 -0.6224 -0.4405  1.4017
   57SAPC  C215 4218  -0.526   1.482   9.224  0.0092 -0.2165 -0.1220
   57SAPC  H15R 4219  -0.471   1.443   9.138 -0.7002 -0.2703 -0.5561
   57SAPC  C216 4220  -0.596   1.620   9.209 -0.2303 -0.3068  0.1689
   57SAPC  H16R 4221  -0.518   1.699   9.213  1.4740 -1.5741 -4.9100
   57SAPC  H16S 4222  -0.670   1.650   9.286 -0.5274 -2.4042  0.7438
   57SAPC  C217 4223  -0.669   1.616   9.073  0.1455 -0.1504  0.0689
   57SAPC  H17R 4224  -0.732   1.525   9.062 -0.0802  0.0727 -0.4526
   57SAPC  H17S 4225  -0.590   1.621   8.995 -0.8017 -1.5538 -1.0072
   57SAPC  C218 4226  -0.762   1.733   9.062 -0.1245  0.7103 -1.1594
   57SAPC  H18R 4227  -0.709   1.823   9.098  1.0780  0.6252 -2.6787
   57SAPC  H18S 4228  -0.838   1.717   9.141  0.6705 -0.1798 -0.5697
   57SAPC  C219 4229  -0.836   1.743   8.930  0.4809 -0.1747 -0.0853
   57SAPC  H19R 4230  -0.900   1.833   8.941  0.3957 -0.3138  0.6391
   57SAPC  H19S 4231  -0.902   1.653   8.928 -0.1363  0.2788 -0.3993
   57SAPC  C220 4232  -0.748   1.759   8.805 -0.1396  0.6611 -0.5971
   57SAPC  H20R 4233  -0.708   1.657   8.786  0.0839  1.1257 -2.6848
   57SAPC  H20S 4234  -0.660   1.826   8.816 -0.1763  0.5176  0.6990
   57SAPC  H20T 4235  -0.799   1.798   8.714  0.2130 -2.7474 -2.3122
   57SAPC   C33 4236   0.015   1.996   9.931  0.3369  0.0245  0.5936
   57SAPC   H3X 4237  -0.091   2.027   9.923  0.7648  1.4524  0.2369
   57SAPC   H3Y 4238   0.004   1.904   9.870  1.4246  0.9062 -0.9851
   57SAPC   C34 4239   0.110   2.092   9.850  0.5578 -0.3063  0.5122
   57SAPC   H4X 4240   0.146   2.179   9.907  0.6133 -0.5174  0.7994
   57SAPC   H4Y 4241   0.056   2.130   9.761  0.0413  0.4223  1.1327
   57SAPC   C35 4242   0.234   2.017   9.809 -0.7168 -0.1232  0.5426
   57SAPC   H5X 4243   0.191   1.943   9.738 -2.0892  1.6457 -0.5080
   57SAPC   H5Y 4244   0.285   1.967   9.894  0.1482 -1.9914 -1.0360
   57SAPC   C36 4245   0.337   2.106   9.742 -0.3083  0.0254  0.1650
   57SAPC   H6X 4246   0.423   2.041   9.715  0.6905  0.6256  1.8068
   57SAPC   H6Y 4247   0.369   2.177   9.821  1.3026  0.7243 -1.0723
   57SAPC   C37 4248   0.289   2.171   9.617 -0.1100 -0.1517 -0.3195
   57SAPC   H7X 4249   0.376   2.230   9.579  3.9155 -4.3200  1.8720
   57SAPC   H7Y 4250   0.198   2.232   9.637 -0.9031 -1.5136  0.2438
   57SAPC   C38 4251   0.258   2.072   9.511 -1.1664  0.2949  0.0385
   57SAPC   H8X 4252   0.160   2.024   9.531 -0.8946 -0.9309 -1.5017
   57SAPC   H8Y 4253   0.339   1.998   9.494 -1.4134  0.3026 -1.1970
   57SAPC   C39 4254   0.237   2.137   9.374 -0.0311 -0.8935  0.0133
   57SAPC   H9X 4255   0.325   2.198   9.345 -1.0800  1.1196  0.9229
   57SAPC   H9Y 4256   0.155   2.212   9.384  1.2132  0.5645 -0.5635
   57SAPC  C310 4257   0.197   2.030   9.274  1.1010  0.7806  0.5597
   57SAPC  H10X 4258   0.106   1.971   9.298  1.7187 -1.0415 -1.4347
   57SAPC  H10Y 4259   0.279   1.956   9.266  0.0583 -0.3294 -0.0065
   57SAPC  C311 4260   0.171   2.092   9.136 -0.6346 -0.3720 -0.0314
   57SAPC  H11X 4261   0.266   2.138   9.102 -1.0521 -1.0318 -2.1894
   57SAPC  H11Y 4262   0.095   2.172   9.136 -1.8870 -1.5087  2.6902
   57SAPC  C312 4263   0.133   1.983   9.038 -0.4565  0.1840 -0.1782
   57SAPC  H12X 4264   0.038   1.938   9.076  0.3403 -0.2764  1.2825
   57SAPC  H12Y 4265   0.209   1.904   9.051 -1.5727 -0.8439  0.2623
   57SAPC  C313 4266   0.119   2.018   8.892 -0.8203 -0.8036  0.5242
   57SAPC  H13X 4267   0.028   2.080   8.875 -1.1563 -1.5878 -0.5894
   57SAPC  H13Y 4268   0.108   1.933   8.821  0.3381 -0.5459  0.0245
   57SAPC  C314 4269   0.228   2.109   8.831 -0.0001  0.1739 -0.5293
   57SAPC  H14X 4270   0.244   2.207   8.879  0.5190 -0.8886  1.5148
   57SAPC  H14Y 4271   0.189   2.133   8.730  0.4834 -0.5270 -0.8904
   57SAPC  C315 4272   0.360   2.032   8.827  0.3569 -0.3837 -0.7677
   57SAPC  H15X 4273   0.360   1.942   8.892 -1.7875  0.4199  0.3711
   57SAPC  H15Y 4274   0.430   2.104   8.876  1.5211 -1.6455 -0.5301
   57SAPC  C316 4275   0.400   1.986   8.687  0.4502  0.5112 -0.5523
   57SAPC  H16X 4276   0.323   1.926   8.633 -2.3769  3.2316  0.2615
   57SAPC  H16Y 4277   0.496   1.932   8.673  0.4855  0.3791  0.1692
   57SAPC  C317 4278   0.442   2.107   8.599 -0.3092 -0.0966  0.5666
   57SAPC  H17X 4279   0.529   2.158   8.645 -0.3024  1.0784 -0.6960
   57SAPC  H17Y 4280   0.366   2.188   8.606  2.4713  2.7541 -0.8989
   57SAPC  C318 4281   0.474   2.081   8.445  0.4810 -0.3223 -0.5780
   57SAPC  H18X 4282   0.384   2.051   8.387 -0.4931  1.8811 -0.2685
   57SAPC  H18Y 4283   0.551   2.001   8.441 -1.7444 -2.7299  2.1545
   57SAPC  H18Z 4284   0.515   2.170   8.393  2.3041 -0.4961  0.5343
   58SAPC     N 4285   2.077   0.331  10.751 -0.1916 -0.5025  0.5957
   58SAPC   C12 4286   2.210   0.258  10.747 -0.2218 -0.7464  0.0116
   58SAPC  H12A 4287   2.286   0.334  10.750 -0.9545  0.1164 -2.2745
   58SAPC  H12B 4288   2.229   0.218  10.648  1.3181  0.1647 -0.0780
   58SAPC   C13 4289   2.054   0.407  10.878 -0.3019 -0.0135  0.6061
   58SAPC  H13A 4290   2.139   0.467  10.908 -1.0739  0.8303  1.1445
   58SAPC  H13B 4291   1.964   0.466  10.872 -0.7974 -0.5995  2.2617
   58SAPC  H13C 4292   2.033   0.340  10.959  0.0101  0.1515  0.8234
   58SAPC   C14 4293   2.087   0.432  10.639  0.4421 -0.1789 -0.3356
   58SAPC  H14A 4294   2.175   0.491  10.659  0.3532 -0.6096  1.4396
   58SAPC  H14B 4295   2.081   0.386  10.542  0.5653  0.8704 -0.8474
   58SAPC  H14C 4296   1.992   0.484  10.639 -0.8838 -2.4979 -1.4617
   58SAPC   C15 4297   1.957   0.245  10.729  0.3491  0.4177 -0.1919
   58SAPC  H15A 4298   1.956   0.211  10.627 -1.9614  0.9939 -0.4042
   58SAPC  H15B 4299   1.955   0.162  10.799 -0.1038  1.3206  0.8953
   58SAPC  H15C 4300   1.867   0.303  10.743  0.6547  0.6767  0.7492
   58SAPC   C11 4301   2.234   0.156  10.860  0.1985 -0.1562 -0.4067
   58SAPC  H11A 4302   2.174   0.063  10.865 -0.5598  0.4162  2.5228
   58SAPC  H11B 4303   2.210   0.203  10.958  0.0196 -0.5295 -0.2713
   58SAPC     P 4304   2.417   0.023  10.743 -0.2832  0.3212  0.0328
   58SAPC   O13 4305   2.453   0.099  10.619 -0.2803 -0.3811 -0.8143
   58SAPC   O14 4306   2.523  -0.069  10.797  0.2615 -0.0704 -0.3105
   58SAPC   O12 4307   2.375   0.120  10.864  0.0885 -0.0323  0.8803
   58SAPC   O11 4308   2.286  -0.060  10.710 -0.0426  0.4047  0.3300
   58SAPC    C1 4309   2.303  -0.195  10.657 -0.2512  0.3001 -0.0605
   58SAPC    HA 4310   2.407  -0.221  10.626  0.4228 -0.2458  2.5260
   58SAPC    HB 4311   2.273  -0.267  10.737  0.7187  0.1120  0.1424
   58SAPC    C2 4312   2.222  -0.219  10.527  0.7676  0.7092  0.1755
   58SAPC    HS 4313   2.230  -0.329  10.512 -0.4051  0.6622 -0.1668
   58SAPC   O21 4314   2.289  -0.150  10.413 -0.3667  0.2641  0.5523
   58SAPC   C21 4315   2.397  -0.211  10.378  0.2351 -0.0523  0.1818
   58SAPC   O22 4316   2.424  -0.329  10.403  0.6013 -0.1034 -0.3915
   58SAPC   C22 4317   2.503  -0.114  10.327 -0.7176  0.1506  0.3535
   58SAPC   H2R 4318   2.450  -0.018  10.311  0.7053  0.8493 -0.2513
   58SAPC   H2S 4319   2.581  -0.095  10.404  2.7516 -0.0261 -2.9572
   58SAPC    C3 4320   2.071  -0.190  10.533  0.5875 -0.0246 -0.1060
   58SAPC    HX 4321   2.072  -0.088  10.576  2.6839 -0.7501  1.6513
   58SAPC    HY 4322   2.019  -0.252  10.609  1.6210  0.8999  1.3793
   58SAPC   O31 4323   2.016  -0.202  10.398  0.9250  0.4333  0.0026
   58SAPC   C31 4324   1.986  -0.324  10.361  0.5219  1.0360 -0.0992
   58SAPC   O32 4325   2.022  -0.422  10.426  0.3197  0.2837 -0.0481
   58SAPC   C32 4326   1.920  -0.339  10.229 -0.1487 -0.5405 -0.3138
   58SAPC   H2X 4327   1.893  -0.241  10.184 -1.3786 -0.8505 -0.2805
   58SAPC   H2Y 4328   1.821  -0.389  10.235  0.3871 -1.4907  0.6350
   58SAPC   C23 4329   2.582  -0.167  10.205  0.4863 -0.0400 -0.8517
   58SAPC   H3R 4330   2.506  -0.222  10.145  2.0022 -0.6898 -2.2018
   58SAPC   H3S 4331   2.654  -0.241  10.245  2.0216  0.7460 -2.1159
   58SAPC   C24 4332   2.657  -0.049  10.129  0.7903  0.4515  0.3166
   58SAPC   H4R 4333   2.752  -0.015  10.175  0.6813  2.5844 -0.9920
   58SAPC   H4S 4334   2.601   0.047  10.128  2.7177  1.6106  0.8947
   58SAPC   C25 4335   2.684  -0.115   9.987 -0.5257  0.0620  0.4222
   58SAPC   H5R 4336   2.607  -0.107   9.909  0.8582 -0.4015 -1.0164
   58SAPC   C26 4337   2.794  -0.178   9.950 -0.6153  0.9799  1.1237
   58SAPC   H6R 4338   2.803  -0.225   9.851  0.6228 -0.3729  1.8541
   58SAPC   C27 4339   2.919  -0.207  10.030  0.0686  0.1375  0.7096
   58SAPC   H7R 4340   2.967  -0.306  10.011 -0.4703  0.0475 -0.2111
   58SAPC   H7S 4341   2.889  -0.236  10.133  1.4804 -0.6598  0.9135
   58SAPC   C28 4342   3.019  -0.095  10.023 -0.2146 -0.2277 -0.3673
   58SAPC   H8R 4343   3.027  -0.030  10.112 -1.7754 -0.2286 -0.2049
   58SAPC   C29 4344   3.087  -0.068   9.910  0.0685 -0.0178 -0.4149
   58SAPC   H9R 4345   3.159   0.014   9.903  0.2351 -0.2883 -2.3425
   58SAPC  C210 4346   3.090  -0.145   9.777  0.0764  0.0363 -0.7278
   58SAPC  H10R 4347   3.002  -0.124   9.712  0.5813  1.8239 -0.8454
   58SAPC  H10S 4348   3.087  -0.254   9.800  1.7709  0.2217  0.4166
   58SAPC  C211 4349   3.217  -0.117   9.704  0.1834 -0.5153 -0.3985
   58SAPC  H11R 4350   3.304  -0.093   9.766 -2.6856  3.8886  2.1568
   58SAPC  C212 4351   3.222  -0.120   9.570 -0.3622  0.2704  0.8437
   58SAPC  H12R 4352   3.325  -0.103   9.535  0.0583 -0.9355  1.4386
   58SAPC  C213 4353   3.114  -0.156   9.465 -0.0315  0.5099 -0.1561
   58SAPC  H13R 4354   3.010  -0.140   9.500  0.0322  5.9724 -1.8862
   58SAPC  H13S 4355   3.119  -0.264   9.440 -0.9607  1.1366 -3.3643
   58SAPC  C214 4356   3.129  -0.067   9.344  0.1200 -0.0144  0.3716
   58SAPC  H14R 4357   3.210   0.007   9.338 -1.6590  1.9600  0.1634
   58SAPC  C215 4358   3.045  -0.078   9.235 -0.3061 -0.2321 -0.2681
   58SAPC  H15R 4359   3.054  -0.006   9.152 -0.4201  0.2058  0.0936
   58SAPC  C216 4360   2.931  -0.168   9.211 -0.1844 -0.0465  0.3586
   58SAPC  H16R 4361   2.905  -0.210   9.310  0.9158 -2.8326 -0.5072
   58SAPC  H16S 4362   2.956  -0.250   9.140 -0.3286 -0.6546  1.0141
   58SAPC  C217 4363   2.814  -0.105   9.137 -0.6535  0.0594 -0.0449
   58SAPC  H17R 4364   2.767  -0.037   9.211  1.7740 -0.5378  2.0609
   58SAPC  H17S 4365   2.737  -0.184   9.122  0.2569 -1.0757  1.2690
   58SAPC  C218 4366   2.846  -0.054   8.999 -0.5086  0.0317  0.2525
   58SAPC  H18R 4367   2.925  -0.123   8.964  0.2473  0.9501  0.1014
   58SAPC  H18S 4368   2.899   0.044   8.994  0.0882 -0.3704 -1.8900
   58SAPC  C219 4369   2.724  -0.045   8.907 -0.6670 -0.7414  0.1900
   58SAPC  H19R 4370   2.641   0.010   8.958 -0.5599 -0.2473 -0.1571
   58SAPC  H19S 4371   2.683  -0.146   8.885 -1.0497 -0.5860  0.1759
   58SAPC  C220 4372   2.752   0.024   8.777 -0.1464  0.2671 -0.3976
   58SAPC  H20R 4373   2.660   0.023   8.715 -0.1710 -2.6367 -0.4141
   58SAPC  H20S 4374   2.831  -0.030   8.718  1.5090  1.6364  0.5187
   58SAPC  H20T 4375   2.788   0.128   8.788  0.0578 -0.0245  1.7731
   58SAPC   C33 4376   1.990  -0.432  10.130 -0.1576  0.2063  0.3061
   58SAPC   H3X 4377   1.915  -0.459  10.052  2.2867 -0.5117 -1.8602
   58SAPC   H3Y 4378   2.013  -0.525  10.187 -1.5822 -0.8052 -0.7287
   58SAPC   C34 4379   2.128  -0.380  10.065  0.2590 -0.3512 -0.1461
   58SAPC   H4X 4380   2.196  -0.358  10.150  1.1227 -1.9014 -0.4179
   58SAPC   H4Y 4381   2.102  -0.293  10.001 -0.7058 -2.0036 -2.0422
   58SAPC   C35 4382   2.196  -0.480   9.969  0.2034 -0.2244  0.8061
   58SAPC   H5X 4383   2.233  -0.570  10.024 -2.5322 -2.2852 -0.6000
   58SAPC   H5Y 4384   2.283  -0.422   9.931  0.2087 -1.7637 -1.6487
   58SAPC   C36 4385   2.111  -0.529   9.849 -0.8972 -0.6306  0.0969
   58SAPC   H6X 4386   2.049  -0.447   9.807 -0.1369 -0.3824 -0.5492
   58SAPC   H6Y 4387   2.039  -0.610   9.874 -2.8407  0.3382 -2.0411
   58SAPC   C37 4388   2.186  -0.586   9.731  0.4102  0.6787  0.1278
   58SAPC   H7X 4389   2.214  -0.683   9.778  2.7455  0.1011 -2.3206
   58SAPC   H7Y 4390   2.283  -0.536   9.709  0.2950  0.3436 -1.1987
   58SAPC   C38 4391   2.108  -0.603   9.608 -0.2334 -0.2065 -0.1573
   58SAPC   H8X 4392   2.051  -0.512   9.582  1.6045  0.6373 -1.3571
   58SAPC   H8Y 4393   2.035  -0.686   9.624  0.7833 -1.5428 -2.2450
   58SAPC   C39 4394   2.191  -0.626   9.476 -0.5982 -0.7466 -0.1101
   58SAPC   H9X 4395   2.269  -0.702   9.497  1.5418  1.5305  0.5014
   58SAPC   H9Y 4396   2.261  -0.541   9.461  0.5261 -1.3418  1.6501
   58SAPC  C310 4397   2.108  -0.664   9.355  1.0363  0.4304  0.2880
   58SAPC  H10X 4398   2.031  -0.584   9.346 -0.6306 -0.6086  4.3477
   58SAPC  H10Y 4399   2.058  -0.757   9.388 -0.0553  0.2406 -1.7696
   58SAPC  C311 4400   2.183  -0.679   9.228 -0.7735  0.6126 -0.6077
   58SAPC  H11X 4401   2.271  -0.743   9.249 -0.8926  0.3747 -0.8317
   58SAPC  H11Y 4402   2.215  -0.582   9.186  2.4348 -0.7879 -1.5455
   58SAPC  C312 4403   2.108  -0.755   9.119 -0.3972  0.1858 -0.2063
   58SAPC  H12X 4404   2.005  -0.715   9.114 -0.2256  0.7590  0.6503
   58SAPC  H12Y 4405   2.107  -0.859   9.157 -1.4432  1.6151  3.9943
   58SAPC  C313 4406   2.179  -0.729   8.980 -0.5062 -0.5361 -0.1815
   58SAPC  H13X 4407   2.287  -0.749   8.994 -0.6804 -0.8360  0.7593
   58SAPC  H13Y 4408   2.168  -0.623   8.948  1.2664  0.4122  2.2251
   58SAPC  C314 4409   2.119  -0.821   8.871 -0.0686 -0.2060 -0.6679
   58SAPC  H14X 4410   2.011  -0.795   8.875 -0.3780 -1.3353 -1.3029
   58SAPC  H14Y 4411   2.123  -0.930   8.895  2.1800  0.2593  1.2913
   58SAPC  C315 4412   2.165  -0.807   8.726 -0.1332  0.0238  0.0408
   58SAPC  H15X 4413   2.090  -0.863   8.667  0.7065 -0.3474 -0.6763
   58SAPC  H15Y 4414   2.266  -0.852   8.718 -0.5146 -0.4736 -2.1559
   58SAPC  C316 4415   2.172  -0.664   8.671 -0.2513  0.6419 -0.1600
   58SAPC  H16X 4416   2.268  -0.617   8.703 -1.1967  1.9344  0.7810
   58SAPC  H16Y 4417   2.086  -0.609   8.712 -0.6863 -0.4166  0.3737
   58SAPC  C317 4418   2.176  -0.662   8.521  0.0708 -0.8900  0.0688
   58SAPC  H17X 4419   2.081  -0.717   8.501  1.1534 -2.7530 -0.1235
   58SAPC  H17Y 4420   2.256  -0.723   8.473  1.4038  0.5232  0.4520
   58SAPC  C318 4421   2.177  -0.522   8.467  0.2004  0.1756  0.8062
   58SAPC  H18X 4422   2.160  -0.526   8.357  3.8896  0.5920  0.1670
   58SAPC  H18Y 4423   2.273  -0.468   8.478 -0.6223  1.1575  3.6077
   58SAPC  H18Z 4424   2.109  -0.449   8.516 -0.4322 -0.9231  1.5934
   59SAPC     N 4425   3.530   0.428  11.077 -0.0692  0.6345 -0.5722
   59SAPC   C12 4426   3.555   0.483  11.219  0.8746  0.8304 -0.3147
   59SAPC  H12A 4427   3.631   0.423  11.268 -2.2492 -2.8595  0.2429
   59SAPC  H12B 4428   3.464   0.471  11.275  1.0346  2.7722  0.4026
   59SAPC   C13 4429   3.491   0.284  11.088  1.1146  0.1064 -0.4268
   59SAPC  H13A 4430   3.396   0.271  11.137  1.4959 -0.4871  0.1634
   59SAPC  H13B 4431   3.485   0.244  10.988 -0.6862 -0.3372 -0.1636
   59SAPC  H13C 4432   3.571   0.231  11.138 -0.4091 -0.0045  1.9892
   59SAPC   C14 4433   3.403   0.501  11.034 -0.4490  0.3511  0.1686
   59SAPC  H14A 4434   3.397   0.529  10.930  0.0328 -0.1018  0.0131
   59SAPC  H14B 4435   3.315   0.448  11.064 -0.0230 -0.2308  0.3975
   59SAPC  H14C 4436   3.401   0.594  11.089 -1.2081  0.7006 -0.4394
   59SAPC   C15 4437   3.640   0.454  10.979  0.3674  0.0760 -0.2322
   59SAPC  H15A 4438   3.649   0.559  10.956  1.1228 -0.2022 -1.2144
   59SAPC  H15B 4439   3.728   0.419  11.032  1.1426 -0.3368 -1.7712
   59SAPC  H15C 4440   3.629   0.404  10.884  0.4722 -0.3525 -0.0228
   59SAPC   C11 4441   3.608   0.621  11.237  0.1468  0.2587  0.1555
   59SAPC  H11A 4442   3.708   0.618  11.187  1.3303 -0.7571  2.5112
   59SAPC  H11B 4443   3.631   0.636  11.344  1.3752  0.6345 -0.1520
   59SAPC     P 4444   3.585   0.869  11.180 -0.1201 -0.4710 -0.1163
   59SAPC   O13 4445   3.474   0.960  11.197 -0.3383 -0.4593 -0.2755
   59SAPC   O14 4446   3.702   0.885  11.271  0.1320 -0.0470  0.1975
   59SAPC   O12 4447   3.521   0.722  11.192 -0.3824  0.6217  0.2584
   59SAPC   O11 4448   3.636   0.868  11.034 -0.2052  0.0609  0.0524
   59SAPC    C1 4449   3.534   0.832  10.934  0.3949 -0.0048 -0.0379
   59SAPC    HA 4450   3.557   0.726  10.914  0.0790 -0.0626 -0.1001
   59SAPC    HB 4451   3.427   0.826  10.966  0.3650  0.1314 -0.1138
   59SAPC    C2 4452   3.540   0.919  10.806 -0.1173 -0.3459 -0.1726
   59SAPC    HS 4453   3.506   0.852  10.724  0.4818 -1.3111  0.3570
   59SAPC   O21 4454   3.669   0.974  10.770 -0.1625 -0.0565  0.7015
   59SAPC   C21 4455   3.740   0.888  10.708  0.5541  0.1644  0.4054
   59SAPC   O22 4456   3.712   0.772  10.682  0.7248 -0.2222 -0.2331
   59SAPC   C22 4457   3.873   0.949  10.678  0.2365  0.5256  0.0099
   59SAPC   H2R 4458   3.922   0.989  10.770  0.5960  0.5194 -0.1794
   59SAPC   H2S 4459   3.930   0.863  10.636  1.1284  0.3286  1.5834
   59SAPC    C3 4460   3.451   1.044  10.811 -0.1516  0.2387  0.0210
   59SAPC    HX 4461   3.466   1.092  10.910 -0.7404 -1.4920  0.9644
   59SAPC    HY 4462   3.347   1.007  10.797  0.0562  0.1340 -1.3416
   59SAPC   O31 4463   3.486   1.142  10.704  0.2726 -0.3200  0.5394
   59SAPC   C31 4464   3.435   1.120  10.580  0.1325  0.4047 -0.3468
   59SAPC   O32 4465   3.370   1.021  10.548  0.2250 -0.4336  0.3180
   59SAPC   C32 4466   3.487   1.220  10.486 -0.1212  0.0249  1.0824
   59SAPC   H2X 4467   3.546   1.305  10.526  0.3225 -0.1406  0.7782
   59SAPC   H2Y 4468   3.402   1.260  10.426 -0.0852  0.0492  1.0481
   59SAPC   C23 4469   3.871   1.061  10.575  0.0302  0.5645  0.2464
   59SAPC   H3R 4470   3.789   1.133  10.600 -0.7965  0.4242 -1.9418
   59SAPC   H3S 4471   3.864   1.010  10.477  2.2637  0.1399  0.2827
   59SAPC   C24 4472   3.997   1.152  10.567  0.2702  0.9351  0.0925
   59SAPC   H4R 4473   4.011   1.193  10.669 -3.0250  1.3290  0.4370
   59SAPC   H4S 4474   3.962   1.247  10.519 -1.6812 -0.3291 -1.0837
   59SAPC   C25 4475   4.124   1.089  10.515 -0.7011  0.2052  0.6575
   59SAPC   H5R 4476   4.174   1.023  10.588  2.0835 -1.1614 -2.3482
   59SAPC   C26 4477   4.164   1.091  10.384  0.0629  0.7725  0.3410
   59SAPC   H6R 4478   4.266   1.055  10.366 -0.8651 -1.2969 -0.8813
   59SAPC   C27 4479   4.097   1.156  10.266 -0.2583  0.4400 -0.1888
   59SAPC   H7R 4480   3.995   1.173  10.306 -0.2048  1.0785 -0.3097
   59SAPC   H7S 4481   4.090   1.083  10.182  1.0871  2.4156 -2.0864
   59SAPC   C28 4482   4.137   1.297  10.219  0.2396  0.1283 -0.2107
   59SAPC   H8R 4483   4.143   1.375  10.297  0.6357 -0.9214  0.8197
   59SAPC   C29 4484   4.147   1.325  10.081 -0.1618  0.4044 -0.7404
   59SAPC   H9R 4485   4.169   1.427  10.047 -3.1568  1.1558 -0.5130
   59SAPC  C210 4486   4.120   1.227   9.969 -0.5606  0.6373 -0.0801
   59SAPC  H10R 4487   4.066   1.293   9.898 -0.2885  1.7164  0.7097
   59SAPC  H10S 4488   4.040   1.156  10.001  0.0919 -0.9441 -1.8854
   59SAPC  C211 4489   4.235   1.149   9.909  0.0521  0.3722  0.3879
   59SAPC  H11R 4490   4.265   1.063   9.970 -0.4986  0.1650  0.3667
   59SAPC  C212 4491   4.284   1.166   9.782 -0.1141  0.4348  0.2455
   59SAPC  H12R 4492   4.348   1.084   9.746 -0.3443  1.1605 -1.9182
   59SAPC  C213 4493   4.240   1.271   9.680 -0.1324 -0.0472 -0.5374
   59SAPC  H13R 4494   4.310   1.284   9.595 -0.1926  2.7576 -0.2063
   59SAPC  H13S 4495   4.242   1.376   9.718 -0.8409 -0.0165 -0.5804
   59SAPC  C214 4496   4.109   1.255   9.611 -0.1203 -0.0799 -0.4016
   59SAPC  H14R 4497   4.027   1.241   9.683  0.3135  1.2085  0.3561
   59SAPC  C215 4498   4.080   1.272   9.478  0.0325  0.8783  0.5562
   59SAPC  H15R 4499   3.976   1.257   9.446  0.4533  0.2523 -0.5508
   59SAPC  C216 4500   4.180   1.301   9.368  0.1396 -0.0809 -0.0322
   59SAPC  H16R 4501   4.257   1.223   9.351 -1.9309 -2.3651  0.7018
   59SAPC  H16S 4502   4.233   1.395   9.391 -0.0784 -0.1209  0.6426
   59SAPC  C217 4503   4.114   1.320   9.227  0.3252 -0.0732  0.2997
   59SAPC  H17R 4504   4.195   1.364   9.164 -1.3886  0.6213 -1.4976
   59SAPC  H17S 4505   4.031   1.393   9.243 -1.8650 -2.6572  1.0088
   59SAPC  C218 4506   4.070   1.186   9.170  0.1698  0.9887  0.0030
   59SAPC  H18R 4507   3.984   1.164   9.237  0.1484  3.1456  0.7233
   59SAPC  H18S 4508   4.154   1.113   9.176  0.3937  1.2755  0.4287
   59SAPC  C219 4509   4.031   1.215   9.028 -0.0116 -0.1434  0.2576
   59SAPC  H19R 4510   3.977   1.312   9.028 -2.5536 -1.4514  2.9156
   59SAPC  H19S 4511   3.958   1.143   8.985 -0.7930  0.8369 -0.0866
   59SAPC  C220 4512   4.146   1.223   8.928 -0.2061 -0.4535  0.7463
   59SAPC  H20R 4513   4.195   1.322   8.935 -1.1651 -0.0306  1.5649
   59SAPC  H20S 4514   4.123   1.210   8.820  0.7387 -1.6226  0.6741
   59SAPC  H20T 4515   4.229   1.151   8.950  1.0593  0.3392 -1.2853
   59SAPC   C33 4516   3.576   1.148  10.380  0.5872  0.4805 -0.6174
   59SAPC   H3X 4517   3.528   1.055  10.343 -1.0087 -0.3122  3.1706
   59SAPC   H3Y 4518   3.658   1.102  10.439  0.1155  1.0456  0.4978
   59SAPC   C34 4519   3.625   1.237  10.262 -0.1032  0.4261 -0.3173
   59SAPC   H4X 4520   3.702   1.311  10.293  0.6746  0.0951 -1.4227
   59SAPC   H4Y 4521   3.538   1.297  10.228  0.6526  0.8826 -1.4749
   59SAPC   C35 4522   3.701   1.146  10.153  0.0815 -0.2967 -0.5817
   59SAPC   H5X 4523   3.672   1.039  10.156 -0.3961 -0.1415  0.5302
   59SAPC   H5Y 4524   3.808   1.162  10.179  0.2811  1.9712 -2.6063
   59SAPC   C36 4525   3.680   1.203  10.011  0.2490  0.4072  0.5851
   59SAPC   H6X 4526   3.773   1.177   9.955  0.6678  1.3670  0.8137
   59SAPC   H6Y 4527   3.678   1.314  10.016 -1.4382  0.4989 -1.7279
   59SAPC   C37 4528   3.556   1.150   9.951  0.0977  0.0507  1.0122
   59SAPC   H7X 4529   3.472   1.167  10.021  0.1153  3.3661  0.3357
   59SAPC   H7Y 4530   3.579   1.044   9.930  1.0895  0.5726 -0.6576
   59SAPC   C38 4531   3.528   1.225   9.818  0.4503  0.1797  0.0030
   59SAPC   H8X 4532   3.500   1.329   9.844  0.1927  0.3286 -0.8338
   59SAPC   H8Y 4533   3.432   1.183   9.782  0.4944  1.2724 -1.4451
   59SAPC   C39 4534   3.639   1.223   9.713  0.1425 -0.3030 -0.2361
   59SAPC   H9X 4535   3.680   1.120   9.709 -2.7927 -1.5814  1.1080
   59SAPC   H9Y 4536   3.714   1.292   9.760  0.2707 -0.7787  0.2681
   59SAPC  C310 4537   3.573   1.270   9.579 -0.7993 -0.1018 -0.6921
   59SAPC  H10X 4538   3.549   1.378   9.584 -3.2326 -0.6884  0.9394
   59SAPC  H10Y 4539   3.476   1.222   9.554 -0.5633 -0.7892 -0.3138
   59SAPC  C311 4540   3.665   1.247   9.454  0.2930 -0.5564 -0.1352
   59SAPC  H11X 4541   3.687   1.140   9.439  0.1215 -0.2173 -3.1039
   59SAPC  H11Y 4542   3.757   1.304   9.481 -0.4540  0.4088  0.3850
   59SAPC  C312 4543   3.614   1.312   9.327 -0.5017 -0.0000 -0.0150
   59SAPC  H12X 4544   3.603   1.422   9.339 -1.0198 -0.2381  1.8123
   59SAPC  H12Y 4545   3.511   1.274   9.311  0.0593 -2.6080  2.1855
   59SAPC  C313 4546   3.692   1.288   9.199 -0.2450  0.1941  0.9283
   59SAPC  H13X 4547   3.698   1.179   9.174  1.7893  0.4938 -0.0086
   59SAPC  H13Y 4548   3.799   1.318   9.201 -0.2410  0.5740 -2.0645
   59SAPC  C314 4549   3.614   1.344   9.079 -0.3172 -0.2791 -0.0025
   59SAPC  H14X 4550   3.598   1.454   9.092 -1.0140 -0.2487 -1.0105
   59SAPC  H14Y 4551   3.512   1.300   9.090 -1.6754  2.6768 -0.2221
   59SAPC  C315 4552   3.685   1.309   8.951  0.0503  0.3093 -0.5951
   59SAPC  H15X 4553   3.695   1.199   8.943  0.3894  0.4423 -2.1319
   59SAPC  H15Y 4554   3.787   1.352   8.965 -0.7351  1.7253  1.0485
   59SAPC  C316 4555   3.613   1.354   8.824  0.2556  0.6023  0.9616
   59SAPC  H16X 4556   3.606   1.464   8.836 -1.8201  0.5304  0.4600
   59SAPC  H16Y 4557   3.509   1.317   8.823  0.4030  0.1635  1.4762
   59SAPC  C317 4558   3.679   1.295   8.704  0.0235  0.7345  0.1406
   59SAPC  H17X 4559   3.668   1.186   8.689  2.1285  0.3802  0.9683
   59SAPC  H17Y 4560   3.789   1.300   8.720 -0.3568  0.6258  2.9180
   59SAPC  C318 4561   3.639   1.375   8.581  0.0888 -0.3378  1.1346
   59SAPC  H18X 4562   3.699   1.337   8.495 -0.7843  1.7379 -0.4115
   59SAPC  H18Y 4563   3.672   1.480   8.592 -0.0623 -0.1954  0.2526
   59SAPC  H18Z 4564   3.534   1.354   8.554  0.1013 -2.0582  2.3497
   60SAPC     N 4565   5.461   6.081  11.140  0.4207  0.2159  0.1159
   60SAPC   C12 4566   5.380   6.020  11.026  0.3638  0.2499  0.0387
   60SAPC  H12A 4567   5.284   5.991  11.065  0.5116  0.3222  0.4623
   60SAPC  H12B 4568   5.431   5.926  11.010  0.5914  0.0675  1.7169
   60SAPC   C13 4569   5.434   6.020  11.268  0.5207 -0.0812  0.2049
   60SAPC  H13A 4570   5.330   6.030  11.294  0.4884 -0.6700  0.2867
   60SAPC  H13B 4571   5.452   5.914  11.261  0.0604 -0.1608  0.2474
   60SAPC  H13C 4572   5.488   6.062  11.352  1.2130 -1.6801  0.5796
   60SAPC   C14 4573   5.611   6.083  11.108  0.7239  0.1580  0.7685
   60SAPC  H14A 4574   5.626   6.107  11.004 -2.2236  0.6769  0.4056
   60SAPC  H14B 4575   5.658   6.162  11.166  1.2391  0.2670  0.2003
   60SAPC  H14C 4576   5.655   5.988  11.131 -0.8646 -0.3960  1.5985
   60SAPC   C15 4577   5.419   6.223  11.152  0.0138  0.0284  0.2724
   60SAPC  H15A 4578   5.412   6.267  11.053 -0.1266 -0.7006 -0.0436
   60SAPC  H15B 4579   5.319   6.220  11.194  0.0754 -1.0235  0.3524
   60SAPC  H15C 4580   5.483   6.279  11.218 -1.4980 -1.0451  2.7031
   60SAPC   C11 4581   5.376   6.089  10.895 -0.7904  0.2865 -0.0553
   60SAPC  H11A 4582   5.326   6.188  10.903  0.4990  1.1124 -1.9188
   60SAPC  H11B 4583   5.305   6.045  10.821 -1.3031 -1.5604  1.4984
   60SAPC     P 4584   5.572   6.039  10.724  0.1399 -0.2273  0.0338
   60SAPC   O13 4585   5.716   6.044  10.745 -0.0673  0.7914 -0.3811
   60SAPC   O14 4586   5.523   5.899  10.715  0.5157 -0.3572  0.0504
   60SAPC   O12 4587   5.500   6.119  10.838 -0.1301  0.3758  0.0924
   60SAPC   O11 4588   5.536   6.116  10.598 -0.2744  0.1486  0.0317
   60SAPC    C1 4589   5.403   6.148  10.568  0.0548 -0.2424  0.1357
   60SAPC    HA 4590   5.332   6.062  10.565  0.7416 -0.7887 -0.7385
   60SAPC    HB 4591   5.355   6.210  10.647 -2.2735  0.3680 -1.6746
   60SAPC    C2 4592   5.386   6.233  10.437  0.3025 -0.2993  0.5217
   60SAPC    HS 4593   5.424   6.336  10.459 -1.1695  0.3958 -0.1034
   60SAPC   O21 4594   5.248   6.230  10.389 -0.5546 -0.2212  0.5222
   60SAPC   C21 4595   5.174   6.335  10.425  0.6949  0.9126  0.2602
   60SAPC   O22 4596   5.219   6.430  10.487  0.3568  0.1425 -0.3571
   60SAPC   C22 4597   5.031   6.318  10.370 -0.2256  0.0561 -1.0562
   60SAPC   H2R 4598   4.994   6.214  10.378  0.1171  0.1202  2.4904
   60SAPC   H2S 4599   4.968   6.389  10.428 -0.7450  0.1725 -1.7640
   60SAPC    C3 4600   5.472   6.172  10.327  0.5637  0.5189  0.2847
   60SAPC    HX 4601   5.442   6.066  10.314  0.8262  0.1025  2.8309
   60SAPC    HY 4602   5.580   6.175  10.355 -0.0273 -1.1472  2.8884
   60SAPC   O31 4603   5.464   6.253  10.205 -0.1735  0.8296  0.2274
   60SAPC   C31 4604   5.388   6.199  10.099  0.8898  0.0424 -0.0351
   60SAPC   O32 4605   5.365   6.077  10.081 -0.2489 -0.1669  0.3370
   60SAPC   C32 4606   5.331   6.306  10.014  0.2723  0.0662 -0.0572
   60SAPC   H2X 4607   5.328   6.399  10.074 -1.4013  1.2479 -1.8732
   60SAPC   H2Y 4608   5.226   6.281   9.987  0.4153  0.6624 -1.2204
   60SAPC   C23 4609   5.027   6.350  10.219 -0.3088  0.1578  0.4198
   60SAPC   H3R 4610   5.100   6.284  10.168  0.1344  2.3246 -1.8380
   60SAPC   H3S 4611   5.062   6.453  10.196 -0.0628  0.0116  0.1499
   60SAPC   C24 4612   4.881   6.347  10.154 -0.2636 -0.0127 -0.7655
   60SAPC   H4R 4613   4.887   6.407  10.061 -3.6451  1.2994 -0.2111
   60SAPC   H4S 4614   4.812   6.401  10.223  1.1040 -0.1665  0.7657
   60SAPC   C25 4615   4.835   6.209  10.132 -0.0833  0.2531 -0.6745
   60SAPC   H5R 4616   4.832   6.147  10.222  1.1053  0.0348 -0.7783
   60SAPC   C26 4617   4.815   6.150  10.013 -0.2348  0.1959 -0.1581
   60SAPC   H6R 4618   4.788   6.044  10.026 -1.7337  0.4983 -0.6410
   60SAPC   C27 4619   4.836   6.209   9.877 -0.1835 -0.0298  0.3985
   60SAPC   H7R 4620   4.914   6.288   9.874 -0.2368 -0.0059 -0.6966
   60SAPC   H7S 4621   4.743   6.257   9.838 -0.2791 -1.9996 -1.9313
   60SAPC   C28 4622   4.886   6.100   9.779 -0.8863 -1.1263 -0.2680
   60SAPC   H8R 4623   4.967   6.039   9.822  0.0852 -0.3567 -0.9810
   60SAPC   C29 4624   4.855   6.094   9.645  0.3677  0.6917 -0.0703
   60SAPC   H9R 4625   4.909   6.024   9.581 -0.7177 -0.9082  0.7318
   60SAPC  C210 4626   4.762   6.180   9.560  0.0485  0.6077 -0.3079
   60SAPC  H10R 4627   4.712   6.240   9.639 -2.8246 -2.2362  0.1627
   60SAPC  H10S 4628   4.681   6.117   9.517  0.3356 -0.6178  0.8957
   60SAPC  C211 4629   4.829   6.279   9.465 -0.0432 -0.2672 -0.0741
   60SAPC  H11R 4630   4.925   6.327   9.490  0.3309 -1.4335  0.7728
   60SAPC  C212 4631   4.792   6.297   9.333  0.7591 -0.5395 -0.6510
   60SAPC  H12R 4632   4.836   6.383   9.280  0.6146 -0.1080 -0.0708
   60SAPC  C213 4633   4.681   6.217   9.267  0.3986 -0.4361 -0.0043
   60SAPC  H13R 4634   4.604   6.172   9.334  1.2775  0.2609  1.5233
   60SAPC  H13S 4635   4.720   6.132   9.207 -0.8307 -1.9409  1.2863
   60SAPC  C214 4636   4.610   6.312   9.173 -0.2645 -0.1110 -0.1969
   60SAPC  H14R 4637   4.564   6.401   9.219  1.0274  1.3531 -1.6753
   60SAPC  C215 4638   4.599   6.316   9.041 -0.0170  0.2143  0.5768
   60SAPC  H15R 4639   4.535   6.387   8.987  3.8143  4.1700  0.9745
   60SAPC  C216 4640   4.662   6.216   8.947  0.1468 -0.2612 -0.6010
   60SAPC  H16R 4641   4.585   6.145   8.911 -0.1236  0.8481 -2.2517
   60SAPC  H16S 4642   4.754   6.165   8.985 -0.4324 -1.0763 -0.2675
   60SAPC  C217 4643   4.713   6.281   8.820 -0.1356  0.1263 -0.4695
   60SAPC  H17R 4644   4.780   6.364   8.852  0.6135 -1.4278  2.1777
   60SAPC  H17S 4645   4.625   6.307   8.758 -1.2271 -3.0613 -0.3797
   60SAPC  C218 4646   4.801   6.183   8.738  0.4424  0.9030  0.3542
   60SAPC  H18R 4647   4.745   6.087   8.727 -2.5853  2.7124 -0.5626
   60SAPC  H18S 4648   4.892   6.161   8.798  0.9285 -0.3435 -0.8014
   60SAPC  C219 4649   4.841   6.241   8.599  0.2712 -0.0597 -0.4702
   60SAPC  H19R 4650   4.887   6.339   8.620  1.7010 -0.9636  0.6843
   60SAPC  H19S 4651   4.746   6.266   8.546 -0.0438  0.3743  0.3010
   60SAPC  C220 4652   4.930   6.157   8.510  0.8845 -0.4010 -0.6917
   60SAPC  H20R 4653   5.034   6.158   8.547  1.4223 -1.2854 -2.1221
   60SAPC  H20S 4654   4.953   6.216   8.418  0.2583  0.2730 -0.4246
   60SAPC  H20T 4655   4.884   6.061   8.478 -1.1182  0.4051 -0.3056
   60SAPC   C33 4656   5.416   6.316   9.888  0.1716 -0.4071 -0.4031
   60SAPC   H3X 4657   5.527   6.310   9.896  0.2795  0.3106 -1.3116
   60SAPC   H3Y 4658   5.403   6.413   9.837  0.9869 -1.4184 -2.5744
   60SAPC   C34 4659   5.373   6.230   9.771 -0.4969 -0.0405  0.0694
   60SAPC   H4X 4660   5.386   6.122   9.795 -1.7666  0.2628  2.2314
   60SAPC   H4Y 4661   5.455   6.255   9.699  0.0011 -1.8954 -0.0426
   60SAPC   C35 4662   5.232   6.249   9.730 -0.3777 -0.0499 -0.4788
   60SAPC   H5X 4663   5.195   6.353   9.743  1.1299  0.2939  1.4441
   60SAPC   H5Y 4664   5.168   6.195   9.803 -1.3603 -2.0311 -2.7533
   60SAPC   C36 4665   5.205   6.190   9.585 -0.3368 -0.0375  0.0990
   60SAPC   H6X 4666   5.099   6.156   9.583 -1.0410  2.0818  0.6135
   60SAPC   H6Y 4667   5.267   6.098   9.578 -0.1031  0.0365  1.1480
   60SAPC   C37 4668   5.254   6.272   9.470 -0.2683 -0.4601  0.3763
   60SAPC   H7X 4669   5.363   6.251   9.463 -0.5330 -1.5001 -0.8285
   60SAPC   H7Y 4670   5.246   6.378   9.504  0.8503 -0.1993 -0.1470
   60SAPC   C38 4671   5.182   6.250   9.333 -0.0080  0.4442  0.5406
   60SAPC   H8X 4672   5.075   6.233   9.359 -0.1683  1.1473  0.3549
   60SAPC   H8Y 4673   5.214   6.156   9.283  0.9110  2.3289 -2.5247
   60SAPC   C39 4674   5.199   6.367   9.236 -0.6989 -0.0095  0.1780
   60SAPC   H9X 4675   5.305   6.399   9.224  0.1660 -2.5497  0.7172
   60SAPC   H9Y 4676   5.153   6.460   9.276 -0.9143  0.0402 -0.1859
   60SAPC  C310 4677   5.155   6.324   9.094 -0.7207 -0.0815 -0.4401
   60SAPC  H10X 4678   5.048   6.295   9.098 -0.5521 -0.7042 -0.3772
   60SAPC  H10Y 4679   5.199   6.229   9.056  0.7339  0.3003  0.2619
   60SAPC  C311 4680   5.177   6.437   8.989  0.1242  0.2994  0.1382
   60SAPC  H11X 4681   5.282   6.474   8.997 -0.5830  2.7841 -1.5097
   60SAPC  H11Y 4682   5.121   6.525   9.026 -0.0071 -1.1270  3.5122
   60SAPC  C312 4683   5.139   6.387   8.848  0.5970 -0.0305  0.2369
   60SAPC  H12X 4684   5.030   6.365   8.844  0.0493  2.3500  0.7601
   60SAPC  H12Y 4685   5.211   6.305   8.828 -3.5802 -3.1963 -2.5515
   60SAPC  C313 4686   5.171   6.492   8.734  0.7538  0.2764 -0.3717
   60SAPC  H13X 4687   5.168   6.441   8.635 -0.6884 -0.3112 -0.0312
   60SAPC  H13Y 4688   5.275   6.531   8.737  0.4798  1.1034 -1.3231
   60SAPC  C314 4689   5.092   6.619   8.738  0.3211  0.8115  0.1693
   60SAPC  H14X 4690   5.090   6.673   8.835 -0.1823  3.2191 -1.1286
   60SAPC  H14Y 4691   4.989   6.587   8.713 -0.6642  2.8426  1.5301
   60SAPC  C315 4692   5.135   6.733   8.637  0.1321 -0.5764  0.4641
   60SAPC  H15X 4693   5.224   6.781   8.683  0.5484  0.0040 -0.9573
   60SAPC  H15Y 4694   5.051   6.805   8.628 -0.3516 -0.9643  1.6950
   60SAPC  C316 4695   5.165   6.671   8.498 -0.0223 -0.4797  0.1043
   60SAPC  H16X 4696   5.081   6.600   8.481  0.8749 -1.8202  1.1107
   60SAPC  H16Y 4697   5.254   6.604   8.486  0.8192  0.2069  2.1824
   60SAPC  C317 4698   5.177   6.771   8.386 -0.0614 -0.2805  1.1993
   60SAPC  H17X 4699   5.268   6.834   8.388  0.1169 -0.5133  0.4261
   60SAPC  H17Y 4700   5.092   6.842   8.382  0.8379  0.7347 -3.6955
   60SAPC  C318 4701   5.176   6.702   8.249 -0.0386  0.4925  0.1347
   60SAPC  H18X 4702   5.264   6.635   8.249  0.4328  1.0513 -2.3425
   60SAPC  H18Y 4703   5.183   6.775   8.166  0.5089 -0.6334 -0.8202
   60SAPC  H18Z 4704   5.074   6.660   8.235  0.1292 -0.1107  0.7171
   61SAPC     N 4705   6.364   4.828  11.312  0.2570 -0.8394 -0.6040
   61SAPC   C12 4706   6.451   4.795  11.192 -0.1382  0.6412 -0.2078
   61SAPC  H12A 4707   6.397   4.798  11.098 -0.2013 -0.8619 -0.2338
   61SAPC  H12B 4708   6.481   4.692  11.202 -0.6010  0.7578  2.8395
   61SAPC   C13 4709   6.339   4.975  11.312  0.2045  0.6166  0.1426
   61SAPC  H13A 4710   6.435   5.025  11.313  0.4413  0.2114 -1.9440
   61SAPC  H13B 4711   6.296   4.992  11.215 -0.5002 -0.7443  0.2167
   61SAPC  H13C 4712   6.272   5.012  11.389  1.3197 -0.7350  1.8139
   61SAPC   C14 4713   6.230   4.753  11.305  0.0153  0.5259 -0.2700
   61SAPC  H14A 4714   6.255   4.648  11.308  2.1468  1.0501  1.8719
   61SAPC  H14B 4715   6.154   4.787  11.374  0.4983  0.6824  0.1824
   61SAPC  H14C 4716   6.187   4.773  11.208 -0.6751  1.5350  0.2373
   61SAPC   C15 4717   6.438   4.807  11.442 -0.2777 -0.3485 -0.0378
   61SAPC  H15A 4718   6.368   4.825  11.523 -2.2087 -3.0398 -1.0157
   61SAPC  H15B 4719   6.470   4.704  11.453  0.0100 -0.2703 -0.1463
   61SAPC  H15C 4720   6.527   4.867  11.456  0.0602 -1.1076  1.1759
   61SAPC   C11 4721   6.591   4.867  11.178  0.3404 -0.4026  0.2689
   61SAPC  H11A 4722   6.622   4.811  11.088 -1.6338 -1.8161  0.4252
   61SAPC  H11B 4723   6.665   4.849  11.259  0.9687 -1.2231 -0.4829
   61SAPC     P 4724   6.493   5.061  11.031 -0.2159  0.5253  0.2003
   61SAPC   O13 4725   6.346   5.063  11.041 -0.3561 -0.2150  0.0970
   61SAPC   O14 4726   6.558   5.192  11.018  0.7587 -0.1028  0.6876
   61SAPC   O12 4727   6.571   5.003  11.152  0.6035  0.1785 -0.4582
   61SAPC   O11 4728   6.535   4.962  10.918  0.4707 -0.0818 -0.9257
   61SAPC    C1 4729   6.649   4.974  10.835  0.0861 -0.3029  0.5468
   61SAPC    HA 4730   6.726   5.035  10.886  0.6391  0.1583 -0.8100
   61SAPC    HB 4731   6.692   4.872  10.829  3.2297  0.8773  2.0823
   61SAPC    C2 4732   6.613   5.037  10.702 -0.5346 -0.5768  0.3726
   61SAPC    HS 4733   6.547   5.122  10.730  0.5452 -0.6247  3.1959
   61SAPC   O21 4734   6.551   4.942  10.613 -0.0002  0.2125  0.2334
   61SAPC   C21 4735   6.464   5.002  10.529  0.0800  0.2542  0.3250
   61SAPC   O22 4736   6.435   5.122  10.525 -0.4740 -0.0456  0.2066
   61SAPC   C22 4737   6.402   4.891  10.447 -0.3597 -0.7139  0.5303
   61SAPC   H2R 4738   6.384   4.800  10.509  0.4608 -0.6564  0.8630
   61SAPC   H2S 4739   6.303   4.932  10.418  0.4841  0.0058 -1.4191
   61SAPC    C3 4740   6.749   5.072  10.632 -0.1736 -0.2291 -0.2427
   61SAPC    HX 4741   6.798   4.973  10.629 -0.8969 -0.5896 -0.2439
   61SAPC    HY 4742   6.808   5.134  10.703  0.5672 -0.3975 -0.7116
   61SAPC   O31 4743   6.731   5.133  10.500 -0.1357  0.5890  0.1007
   61SAPC   C31 4744   6.710   5.261  10.517  0.7951 -0.2853  0.2278
   61SAPC   O32 4745   6.704   5.321  10.626  0.4195 -0.9387 -0.1989
   61SAPC   C32 4746   6.698   5.326  10.382  0.4387 -0.1412  0.2289
   61SAPC   H2X 4747   6.667   5.243  10.316 -0.9316 -0.5841  1.4018
   61SAPC   H2Y 4748   6.804   5.339  10.351  0.5935  0.7589  1.0894
   61SAPC   C23 4749   6.504   4.850  10.335  0.3697 -0.0754  0.3308
   61SAPC   H3R 4750   6.469   4.752  10.294 -1.5434  1.4527 -1.8009
   61SAPC   H3S 4751   6.602   4.832  10.385  0.6707 -2.7036 -1.0766
   61SAPC   C24 4752   6.504   4.948  10.209  0.2285 -0.5042 -1.3323
   61SAPC   H4R 4753   6.563   4.896  10.131  1.2285 -0.8583 -0.3714
   61SAPC   H4S 4754   6.549   5.042  10.248 -0.3493 -0.3957 -0.9326
   61SAPC   C25 4755   6.366   4.986  10.149 -0.0715  0.4119 -0.0524
   61SAPC   H5R 4756   6.316   5.072  10.195 -3.1345 -0.2686 -1.9548
   61SAPC   C26 4757   6.310   4.941  10.031 -0.8438 -0.5574 -0.8166
   61SAPC   H6R 4758   6.208   4.973  10.008  0.0812  3.4369  0.2520
   61SAPC   C27 4759   6.370   4.844   9.927  0.1718 -0.2533 -0.1776
   61SAPC   H7R 4760   6.305   4.755   9.911  1.3235 -0.9359 -1.1040
   61SAPC   H7S 4761   6.469   4.809   9.961  1.1180  1.3921 -1.1762
   61SAPC   C28 4762   6.388   4.918   9.801  0.0340 -0.0884 -0.6595
   61SAPC   H8R 4763   6.447   5.011   9.807  0.9032 -0.6134 -0.9645
   61SAPC   C29 4764   6.333   4.885   9.680  0.1979  0.6900 -0.2187
   61SAPC   H9R 4765   6.342   4.954   9.595 -0.8368  0.1759 -0.7670
   61SAPC  C210 4766   6.246   4.765   9.657  0.0520  0.2873  0.0679
   61SAPC  H10R 4767   6.200   4.791   9.559 -2.3858  0.3911  1.1924
   61SAPC  H10S 4768   6.166   4.760   9.734  0.9784 -1.5542  0.9522
   61SAPC  C211 4769   6.316   4.626   9.658  0.2920  0.5247 -0.4317
   61SAPC  H11R 4770   6.323   4.582   9.759 -0.7630 -0.7492 -0.8966
   61SAPC  C212 4771   6.348   4.555   9.546 -1.1074 -0.0160 -0.8411
   61SAPC  H12R 4772   6.391   4.456   9.568  0.1151  0.6220 -0.3057
   61SAPC  C213 4773   6.340   4.589   9.403 -0.7006  0.0283  0.7741
   61SAPC  H13R 4774   6.432   4.549   9.356 -0.6047  1.8573 -0.6540
   61SAPC  H13S 4775   6.349   4.700   9.401  1.1719  0.0098  3.7317
   61SAPC  C214 4776   6.212   4.555   9.347 -0.7417 -0.1791  0.0418
   61SAPC  H14R 4777   6.132   4.521   9.415 -1.2696  1.2459  0.1442
   61SAPC  C215 4778   6.172   4.549   9.223 -0.6519  0.3533 -0.1572
   61SAPC  H15R 4779   6.074   4.503   9.203 -0.1100 -0.1951 -1.6330
   61SAPC  C216 4780   6.258   4.585   9.105 -0.3504 -0.1250  0.4206
   61SAPC  H16R 4781   6.313   4.679   9.129 -2.6060  0.9704  1.4302
   61SAPC  H16S 4782   6.194   4.601   9.016 -1.6366  0.6797  1.4661
   61SAPC  C217 4783   6.345   4.463   9.064  0.4849  0.5932 -0.5831
   61SAPC  H17R 4784   6.272   4.385   9.036  2.7961 -1.9010  0.1163
   61SAPC  H17S 4785   6.402   4.435   9.155  0.5289 -0.9091 -1.0602
   61SAPC  C218 4786   6.436   4.491   8.946 -0.0978  0.0447 -0.5698
   61SAPC  H18R 4787   6.515   4.566   8.970 -0.5607  1.0298 -2.0465
   61SAPC  H18S 4788   6.374   4.548   8.874 -1.2802  0.1021  0.4772
   61SAPC  C219 4789   6.475   4.356   8.877 -0.2929  0.3776 -0.4608
   61SAPC  H19R 4790   6.384   4.303   8.841  0.3832 -1.5294  0.6041
   61SAPC  H19S 4791   6.515   4.292   8.958 -0.2547  2.5066  1.2481
   61SAPC  C220 4792   6.571   4.375   8.762  0.3841  0.0280 -0.2107
   61SAPC  H20R 4793   6.579   4.274   8.718  1.5844  0.7385 -1.6697
   61SAPC  H20S 4794   6.672   4.411   8.793  0.6422  0.0792 -1.0923
   61SAPC  H20T 4795   6.519   4.440   8.688 -0.1531  0.1699  0.2873
   61SAPC   C33 4796   6.592   5.440  10.370 -0.3306  0.2921  0.4972
   61SAPC   H3X 4797   6.631   5.522  10.435 -1.8047  2.2604 -1.0461
   61SAPC   H3Y 4798   6.501   5.403  10.421 -0.1804 -1.0878 -0.1951
   61SAPC   C34 4799   6.577   5.474  10.222  1.1522 -0.5360 -0.4340
   61SAPC   H4X 4800   6.678   5.499  10.182 -0.2440  4.3226 -1.2547
   61SAPC   H4Y 4801   6.520   5.570  10.221  0.4714 -0.9301  0.4631
   61SAPC   C35 4802   6.521   5.367  10.129  0.0185  0.6146  0.7614
   61SAPC   H5X 4803   6.424   5.335  10.173  0.4219  0.1214  1.2996
   61SAPC   H5Y 4804   6.587   5.280  10.111 -1.3871  0.0785 -2.0524
   61SAPC   C36 4805   6.500   5.429   9.988 -0.5361  0.0496 -0.1204
   61SAPC   H6X 4806   6.594   5.479   9.954 -0.6966  1.2629  1.1558
   61SAPC   H6Y 4807   6.418   5.504   9.986 -0.2906  0.5058  3.4314
   61SAPC   C37 4808   6.455   5.321   9.888  0.1698 -0.5159 -0.2697
   61SAPC   H7X 4809   6.361   5.272   9.920 -0.4785  1.0456  0.2988
   61SAPC   H7Y 4810   6.525   5.236   9.885 -0.4094 -1.0547  0.9830
   61SAPC   C38 4811   6.453   5.378   9.746  0.3948  0.3648  0.1831
   61SAPC   H8X 4812   6.555   5.403   9.710  0.2611 -0.3153 -0.6882
   61SAPC   H8Y 4813   6.394   5.472   9.749  2.2196  1.5894 -1.6368
   61SAPC   C39 4814   6.380   5.281   9.648  0.1799  0.6217  1.2445
   61SAPC   H9X 4815   6.280   5.248   9.684  1.5424 -1.9678  2.7988
   61SAPC   H9Y 4816   6.450   5.196   9.638 -1.8076 -0.7373 -1.8118
   61SAPC  C310 4817   6.376   5.331   9.503 -0.1372 -0.3535  0.5280
   61SAPC  H10X 4818   6.480   5.349   9.468 -0.0162  0.9101  1.4860
   61SAPC  H10Y 4819   6.337   5.435   9.511  1.4221  0.1943  1.3253
   61SAPC  C311 4820   6.310   5.235   9.413 -0.3470  0.0901 -0.0059
   61SAPC  H11X 4821   6.207   5.210   9.446 -0.8270  0.9201 -0.8643
   61SAPC  H11Y 4822   6.362   5.138   9.403 -1.7851 -0.6388 -0.5640
   61SAPC  C312 4823   6.295   5.294   9.271 -0.2778  0.5156 -0.0971
   61SAPC  H12X 4824   6.227   5.226   9.214 -1.3584  1.5814 -0.1133
   61SAPC  H12Y 4825   6.393   5.301   9.220  0.7129  1.2396  1.8533
   61SAPC  C313 4826   6.243   5.441   9.263  0.1426  0.0467  0.5540
   61SAPC  H13X 4827   6.326   5.509   9.289  0.2201  0.5991 -1.0893
   61SAPC  H13Y 4828   6.149   5.443   9.322 -1.0637 -1.7360 -1.2284
   61SAPC  C314 4829   6.215   5.487   9.113  0.1700  0.2894  0.0881
   61SAPC  H14X 4830   6.139   5.421   9.067 -1.2868  2.0213 -0.0624
   61SAPC  H14Y 4831   6.313   5.476   9.063  0.4605 -0.5553  0.8331
   61SAPC  C315 4832   6.178   5.638   9.094 -0.6308  0.7882  0.0012
   61SAPC  H15X 4833   6.243   5.699   9.159  0.7545 -0.6198 -0.0346
   61SAPC  H15Y 4834   6.078   5.670   9.133 -1.4292  2.2999 -3.1027
   61SAPC  C316 4835   6.174   5.685   8.953 -0.4422  0.3367  0.7128
   61SAPC  H16X 4836   6.265   5.653   8.898  0.3933  0.7688  1.8471
   61SAPC  H16Y 4837   6.182   5.795   8.951  0.7012  0.2400 -1.4393
   61SAPC  C317 4838   6.053   5.652   8.865 -0.7869  0.1340 -0.5484
   61SAPC  H17X 4839   5.963   5.699   8.911  0.2871  0.4393  1.2816
   61SAPC  H17Y 4840   6.048   5.541   8.861 -1.4611  0.1272  0.3365
   61SAPC  C318 4841   6.056   5.697   8.715 -0.3267 -0.0066  0.0386
   61SAPC  H18X 4842   6.144   5.650   8.666  1.7808  2.4118  1.4039
   61SAPC  H18Y 4843   6.060   5.808   8.712  0.1078 -0.0199  0.1588
   61SAPC  H18Z 4844   5.960   5.658   8.673 -1.2344  1.1455  1.0136
   62SAPC     N 4845   5.649   4.590  10.796  0.8139  0.4015 -0.0546
   62SAPC   C12 4846   5.546   4.500  10.752 -0.5103 -0.0130  0.4035
   62SAPC  H12A 4847   5.453   4.538  10.792 -0.4298  0.5784  0.0294
   62SAPC  H12B 4848   5.553   4.409  10.809 -0.0181  0.7499  1.5642
   62SAPC   C13 4849   5.643   4.723  10.720 -0.1081  0.2240  0.0466
   62SAPC  H13A 4850   5.565   4.779  10.769 -2.2836 -0.9379 -2.0174
   62SAPC  H13B 4851   5.732   4.783  10.734  0.6379 -1.0171  0.7265
   62SAPC  H13C 4852   5.634   4.724  10.612 -1.7933 -0.5082  0.1668
   62SAPC   C14 4853   5.628   4.619  10.941  0.8580 -0.7624 -0.2235
   62SAPC  H14A 4854   5.542   4.683  10.955 -2.4619 -4.6341 -1.7356
   62SAPC  H14B 4855   5.611   4.526  10.994 -1.1179  0.0393  0.5861
   62SAPC  H14C 4856   5.715   4.668  10.982 -0.2969  3.2419 -2.3469
   62SAPC   C15 4857   5.776   4.524  10.781 -0.3904  0.3165  0.3098
   62SAPC  H15A 4858   5.786   4.470  10.688  1.4162  0.6418  0.2890
   62SAPC  H15B 4859   5.851   4.600  10.762 -1.3931  1.6792  1.7137
   62SAPC  H15C 4860   5.800   4.455  10.860  2.5989 -0.2094 -0.9845
   62SAPC   C11 4861   5.533   4.454  10.601  0.4500  0.2887 -0.2699
   62SAPC  H11A 4862   5.558   4.541  10.536 -0.4458  2.0057  1.6166
   62SAPC  H11B 4863   5.436   4.415  10.566  1.1682 -0.9865 -0.8826
   62SAPC     P 4864   5.636   4.205  10.636 -0.3367  0.0744  0.0349
   62SAPC   O13 4865   5.753   4.138  10.571 -0.0364 -0.3498  0.3578
   62SAPC   O14 4866   5.627   4.200  10.787  0.4172 -0.5070  0.5498
   62SAPC   O12 4867   5.639   4.354  10.583 -0.2660  0.1691 -0.0271
   62SAPC   O11 4868   5.498   4.151  10.577  0.2498  0.5775 -0.6770
   62SAPC    C1 4869   5.496   4.078  10.455 -0.5536 -0.7665 -0.3014
   62SAPC    HA 4870   5.567   3.994  10.469  2.1987  1.5145 -0.0208
   62SAPC    HB 4871   5.394   4.037  10.439 -1.4306  0.3172  2.2516
   62SAPC    C2 4872   5.531   4.162  10.333 -0.2156  1.0869  0.1694
   62SAPC    HS 4873   5.626   4.217  10.350  0.6054  0.2058 -1.4215
   62SAPC   O21 4874   5.421   4.253  10.308  0.3765 -0.6606 -0.6307
   62SAPC   C21 4875   5.446   4.358  10.226  0.0775 -0.4289  0.5288
   62SAPC   O22 4876   5.559   4.394  10.189 -0.5252 -0.0526 -0.1082
   62SAPC   C22 4877   5.318   4.436  10.189  0.1838  0.1146 -0.4764
   62SAPC   H2R 4878   5.336   4.474  10.086  2.1695 -2.5737 -1.1937
   62SAPC   H2S 4879   5.238   4.359  10.189 -0.5844  0.8926  0.4554
   62SAPC    C3 4880   5.551   4.064  10.203 -0.1281 -0.4908 -1.3320
   62SAPC    HX 4881   5.468   3.990  10.196  0.5730 -1.6403  1.6676
   62SAPC    HY 4882   5.640   4.005  10.233  0.8181  1.5576  0.0027
   62SAPC   O31 4883   5.585   4.111  10.076  0.3256  0.0491  0.0354
   62SAPC   C31 4884   5.482   4.127   9.991 -0.2735  0.3130 -0.8153
   62SAPC   O32 4885   5.366   4.112  10.012  0.0970  0.7876 -0.0898
   62SAPC   C32 4886   5.525   4.182   9.855  0.7526 -0.0491  0.2027
   62SAPC   H2X 4887   5.468   4.118   9.784  0.5847 -0.0065  0.3015
   62SAPC   H2Y 4888   5.636   4.178   9.843  0.8854 -0.0123  1.4275
   62SAPC   C23 4889   5.273   4.546  10.291 -0.2356  0.1554  0.7371
   62SAPC   H3R 4890   5.255   4.497  10.389  1.1434  1.9499  1.9030
   62SAPC   H3S 4891   5.183   4.597  10.250 -0.2088  0.1352  0.6549
   62SAPC   C24 4892   5.385   4.654  10.315  0.4532  0.0349 -0.7063
   62SAPC   H4R 4893   5.398   4.713  10.222 -0.9659 -1.1057 -1.6456
   62SAPC   H4S 4894   5.485   4.604  10.311  0.6132  0.3505 -0.6426
   62SAPC   C25 4895   5.358   4.734  10.438 -0.0798 -0.4197  0.3985
   62SAPC   H5R 4896   5.282   4.696  10.508  1.5312  0.8575  2.9085
   62SAPC   C26 4897   5.404   4.862  10.460 -0.2692 -0.3673 -0.1221
   62SAPC   H6R 4898   5.361   4.903  10.552  0.9033  0.0602  0.2453
   62SAPC   C27 4899   5.484   4.958  10.375  0.2188 -0.2857  0.2726
   62SAPC   H7R 4900   5.455   5.059  10.411  0.4728  0.9183 -2.7337
   62SAPC   H7S 4901   5.463   4.942  10.267  2.5150 -1.2049 -0.0787
   62SAPC   C28 4902   5.631   4.941  10.413  0.9865 -0.5050  0.1240
   62SAPC   H8R 4903   5.659   4.971  10.515  0.3613 -2.0874  0.7804
   62SAPC   C29 4904   5.730   4.878  10.348  0.0804  0.2195 -0.1572
   62SAPC   H9R 4905   5.830   4.878  10.393  0.6922 -0.8826 -1.4739
   62SAPC  C210 4906   5.716   4.808  10.215  0.4891 -0.1183  0.1293
   62SAPC  H10R 4907   5.607   4.787  10.204  0.4218  0.7608 -0.9353
   62SAPC  H10S 4908   5.763   4.708  10.225 -1.1582 -0.8641  0.7882
   62SAPC  C211 4909   5.772   4.889  10.100  0.1265  0.2561  0.8596
   62SAPC  H11R 4910   5.742   4.994  10.095 -2.4193 -0.5230 -0.5809
   62SAPC  C212 4911   5.850   4.848   9.997 -0.9363 -1.0301  0.0278
   62SAPC  H12R 4912   5.886   4.921   9.923  2.5564 -2.1402  0.5426
   62SAPC  C213 4913   5.917   4.714   9.989  0.6331 -0.2290  0.9882
   62SAPC  H13R 4914   5.979   4.689  10.077  0.5757 -3.1196  0.2525
   62SAPC  H13S 4915   5.981   4.720   9.898  1.4548  3.5987  1.7406
   62SAPC  C214 4916   5.827   4.593   9.957 -0.4202  0.0370 -0.0069
   62SAPC  H14R 4917   5.730   4.591  10.009 -0.2690 -1.8165  0.2541
   62SAPC  C215 4918   5.858   4.492   9.875  0.2370 -0.1067  0.2608
   62SAPC  H15R 4919   5.791   4.405   9.869 -0.3432  0.4760 -2.0030
   62SAPC  C216 4920   5.980   4.483   9.789  0.2223 -0.0980 -0.4251
   62SAPC  H16R 4921   6.070   4.454   9.846  0.4303  0.9045 -0.2418
   62SAPC  H16S 4922   6.020   4.577   9.747  2.4142 -2.2780 -3.4694
   62SAPC  C217 4923   5.955   4.390   9.665 -0.8212  0.3381  0.2231
   62SAPC  H17R 4924   5.902   4.294   9.684 -1.3759  0.3136 -1.3280
   62SAPC  H17S 4925   6.049   4.360   9.614  0.5900  2.3443  1.5843
   62SAPC  C218 4926   5.874   4.462   9.555 -0.4757 -0.2163 -0.0353
   62SAPC  H18R 4927   5.924   4.557   9.529 -1.9185  1.0344  1.6145
   62SAPC  H18S 4928   5.774   4.499   9.586  0.8031  3.5289 -0.1909
   62SAPC  C219 4929   5.865   4.384   9.418  0.1201  0.4560  0.1085
   62SAPC  H19R 4930   5.792   4.305   9.446 -0.4226  1.1302  0.6016
   62SAPC  H19S 4931   5.965   4.339   9.402 -0.2545 -0.6216  0.7249
   62SAPC  C220 4932   5.813   4.455   9.295 -0.2696 -0.2507  0.2254
   62SAPC  H20R 4933   5.872   4.549   9.285 -1.0528  0.1267 -1.0312
   62SAPC  H20S 4934   5.708   4.490   9.308  0.7288  2.1132  2.3992
   62SAPC  H20T 4935   5.816   4.383   9.211 -2.4368  0.2863 -0.3478
   62SAPC   C33 4936   5.491   4.333   9.840  0.0565 -0.0084  0.7441
   62SAPC   H3X 4937   5.554   4.401   9.901  0.5099  0.8215 -0.6135
   62SAPC   H3Y 4938   5.385   4.358   9.863  0.1014 -0.5873  1.5837
   62SAPC   C34 4939   5.502   4.374   9.695  0.5513  0.0849  0.3753
   62SAPC   H4X 4940   5.603   4.339   9.666  0.4316  0.1274 -0.1033
   62SAPC   H4Y 4941   5.504   4.484   9.705  1.8556 -0.0817  2.0630
   62SAPC   C35 4942   5.392   4.329   9.597  0.2705 -0.0588  0.2735
   62SAPC   H5X 4943   5.296   4.383   9.616  0.3894  0.2502  0.0016
   62SAPC   H5Y 4944   5.376   4.220   9.608  1.0691 -0.2317 -0.2798
   62SAPC   C36 4945   5.449   4.351   9.449 -0.6727  0.0936 -0.7813
   62SAPC   H6X 4946   5.536   4.282   9.448 -0.8308 -0.1389  0.2924
   62SAPC   H6Y 4947   5.493   4.453   9.444  0.3349 -0.3321 -0.7310
   62SAPC   C37 4948   5.343   4.326   9.347 -0.2548  0.2390 -0.7429
   62SAPC   H7X 4949   5.287   4.421   9.333 -1.5180 -0.8631 -3.5832
   62SAPC   H7Y 4950   5.273   4.245   9.379 -0.0315  1.1579  2.1925
   62SAPC   C38 4951   5.390   4.287   9.203 -0.5353  0.5269  0.5825
   62SAPC   H8X 4952   5.298   4.268   9.143  0.8579 -1.6793 -0.8984
   62SAPC   H8Y 4953   5.447   4.192   9.214  0.1998  0.8129 -0.6148
   62SAPC   C39 4954   5.461   4.402   9.124 -0.0144 -0.8231  0.2253
   62SAPC   H9X 4955   5.506   4.474   9.196 -1.4584  0.1693  0.1483
   62SAPC   H9Y 4956   5.375   4.456   9.081 -0.1968 -0.4243  1.0847
   62SAPC  C310 4957   5.560   4.357   9.013  0.0516  0.4759 -0.0337
   62SAPC  H10X 4958   5.507   4.300   8.935 -1.3129  0.1224  1.1331
   62SAPC  H10Y 4959   5.627   4.287   9.068  0.9284  1.0226 -0.3916
   62SAPC  C311 4960   5.638   4.472   8.949  0.1669  0.8161  0.3953
   62SAPC  H11X 4961   5.685   4.524   9.036 -0.9276  2.7668 -0.1576
   62SAPC  H11Y 4962   5.564   4.540   8.902 -0.1046 -0.3696 -0.8899
   62SAPC  C312 4963   5.750   4.434   8.845 -0.1545 -0.0475 -0.6004
   62SAPC  H12X 4964   5.791   4.532   8.813 -1.2774  0.5874 -0.1056
   62SAPC  H12Y 4965   5.698   4.388   8.759  1.0981 -0.9431 -0.8875
   62SAPC  C313 4966   5.862   4.340   8.897  0.1804 -0.9317 -0.0935
   62SAPC  H13X 4967   5.810   4.249   8.933  0.1170 -1.4428 -1.4470
   62SAPC  H13Y 4968   5.918   4.397   8.975  0.4256 -0.4587 -0.6159
   62SAPC  C314 4969   5.962   4.308   8.783  0.0372 -0.4776 -0.1127
   62SAPC  H14X 4970   6.015   4.397   8.743 -1.6303  0.0730 -1.1597
   62SAPC  H14Y 4971   5.903   4.274   8.696  2.4098 -2.0608 -1.1360
   62SAPC  C315 4972   6.065   4.212   8.836  0.0237  0.4625 -0.4889
   62SAPC  H15X 4973   6.117   4.257   8.923  2.1938  0.6855 -1.8714
   62SAPC  H15Y 4974   6.140   4.189   8.758  2.4514 -0.9382  2.1539
   62SAPC  C316 4975   6.002   4.073   8.876  0.8996  0.2794  0.0046
   62SAPC  H16X 4976   5.967   4.019   8.786 -0.2769 -0.7906  1.0791
   62SAPC  H16Y 4977   5.919   4.096   8.946  1.3513  2.9569 -0.2726
   62SAPC  C317 4978   6.097   3.980   8.956 -0.2433 -0.5249 -0.6611
   62SAPC  H17X 4979   6.186   3.952   8.896  0.5992 -1.3093  0.9016
   62SAPC  H17Y 4980   6.036   3.890   8.976  1.7996 -1.5199  1.3033
   62SAPC  C318 4981   6.147   4.042   9.091  0.7909 -0.4478  0.0620
   62SAPC  H18X 4982   6.201   3.965   9.150  2.2543  1.7974  1.7423
   62SAPC  H18Y 4983   6.053   4.069   9.144 -0.0798  0.3506 -1.8429
   62SAPC  H18Z 4984   6.216   4.125   9.066  1.3025  0.8882  5.2254
   63SAPC     N 4985   2.932   4.018   6.086  0.2189  0.5634  0.7266
   63SAPC   C12 4986   2.938   3.977   6.228  0.3109 -0.2631 -0.7136
   63SAPC  H12A 4987   3.005   3.892   6.233  0.2751 -0.1932  1.2237
   63SAPC  H12B 4988   2.846   3.929   6.255  0.8226 -0.6635  0.3413
   63SAPC   C13 4989   2.910   3.910   5.995 -0.1028 -0.1492  0.3858
   63SAPC  H13A 4990   2.820   3.858   6.023 -1.3943 -0.2423 -3.5602
   63SAPC  H13B 4991   2.897   3.941   5.892  2.0720 -1.0437 -0.1857
   63SAPC  H13C 4992   2.994   3.843   5.989  0.0814 -0.1339  2.4235
   63SAPC   C14 4993   2.818   4.113   6.073  0.3435 -0.5369  0.4195
   63SAPC  H14A 4994   2.732   4.049   6.084 -0.9730  1.1708  0.3311
   63SAPC  H14B 4995   2.810   4.186   6.153 -0.5667  1.3438 -1.3561
   63SAPC  H14C 4996   2.809   4.157   5.975  0.2540 -0.2144  0.5715
   63SAPC   C15 4997   3.053   4.095   6.047  0.0226  0.2246  0.4176
   63SAPC  H15A 4998   3.080   4.166   6.124  0.3128  1.6577 -0.9738
   63SAPC  H15B 4999   3.137   4.028   6.036  0.7315  0.8629  1.8469
   63SAPC  H15C 5000   3.044   4.134   5.947  0.1528 -0.6860  0.0516
   63SAPC   C11 5001   2.985   4.071   6.336 -0.2477 -0.5390  0.1228
   63SAPC  H11A 5002   2.964   4.021   6.433  0.1139 -1.4196 -0.2414
   63SAPC  H11B 5003   2.925   4.164   6.330  1.1545  0.4575  1.2785
   63SAPC     P 5004   3.241   4.002   6.340  0.4133 -0.1985 -0.0307
   63SAPC   O13 5005   3.233   3.910   6.227 -0.3291  0.3585 -0.0494
   63SAPC   O14 5006   3.376   4.068   6.363  0.1623 -0.4517 -0.0761
   63SAPC   O12 5007   3.122   4.112   6.326  0.2863 -0.3331 -0.2553
   63SAPC   O11 5008   3.189   3.924   6.469 -0.2461  0.3242  0.8005
   63SAPC    C1 5009   3.219   3.970   6.601 -0.2941 -0.0547 -0.1524
   63SAPC    HA 5010   3.250   4.077   6.606 -1.2368  0.2630 -0.9587
   63SAPC    HB 5011   3.124   3.961   6.657  1.9233 -3.3907  3.3267
   63SAPC    C2 5012   3.334   3.892   6.674 -0.1954  0.1626 -0.1813
   63SAPC    HS 5013   3.424   3.902   6.610  0.6030 -0.8346  0.7872
   63SAPC   O21 5014   3.294   3.760   6.685  0.2279  0.3812 -0.2567
   63SAPC   C21 5015   3.377   3.659   6.666  0.3065  0.1116  0.0336
   63SAPC   O22 5016   3.489   3.676   6.619  0.4982 -0.3101  0.3294
   63SAPC   C22 5017   3.307   3.528   6.698 -0.3078  0.1897  0.5230
   63SAPC   H2R 5018   3.199   3.547   6.712 -0.7751 -0.2727 -2.1701
   63SAPC   H2S 5019   3.317   3.453   6.616 -1.6810  0.1899  0.3418
   63SAPC    C3 5020   3.350   3.954   6.817  0.3557 -0.1015 -0.0575
   63SAPC    HX 5021   3.425   3.882   6.858  0.2182 -0.1219  0.1556
   63SAPC    HY 5022   3.255   3.947   6.874 -0.0496  2.3364 -0.3778
   63SAPC   O31 5023   3.394   4.091   6.815  0.3520  0.0386 -0.4020
   63SAPC   C31 5024   3.524   4.105   6.803 -0.0218  0.9506 -0.5373
   63SAPC   O32 5025   3.602   4.011   6.817  0.2736  0.2549 -0.0185
   63SAPC   C32 5026   3.566   4.245   6.765  0.1786 -0.2190  0.0694
   63SAPC   H2X 5027   3.521   4.314   6.840 -0.4784 -1.7777  1.1302
   63SAPC   H2Y 5028   3.526   4.253   6.662  4.1310  0.3479 -1.5147
   63SAPC   C23 5029   3.340   3.456   6.835 -0.5635  0.1294  0.0854
   63SAPC   H3R 5030   3.447   3.427   6.836 -0.7420 -0.6580 -1.1997
   63SAPC   H3S 5031   3.285   3.360   6.844 -1.4291  0.7273  1.3604
   63SAPC   C24 5032   3.329   3.533   6.962 -0.1590 -0.8438 -0.2908
   63SAPC   H4R 5033   3.409   3.610   6.964  0.4925 -1.5405  0.6294
   63SAPC   H4S 5034   3.360   3.464   7.043  1.9804 -1.1441 -1.3151
   63SAPC   C25 5035   3.192   3.582   7.003 -0.1040 -0.1591  0.0761
   63SAPC   H5R 5036   3.113   3.551   6.932  0.6299 -0.5518 -0.5833
   63SAPC   C26 5037   3.163   3.669   7.108 -0.2840  0.1540 -0.3186
   63SAPC   H6R 5038   3.058   3.695   7.129 -0.6138 -0.8315 -0.7295
   63SAPC   C27 5039   3.266   3.715   7.213  0.4425  0.2461 -0.9912
   63SAPC   H7R 5040   3.222   3.810   7.249 -1.4987 -0.0869 -2.4003
   63SAPC   H7S 5041   3.367   3.732   7.171  0.3572  0.7607 -0.9886
   63SAPC   C28 5042   3.276   3.611   7.322  0.3970 -0.2433 -0.2461
   63SAPC   H8R 5043   3.299   3.508   7.289  3.5547  1.2242 -2.8859
   63SAPC   C29 5044   3.285   3.633   7.451 -0.2299 -0.5929 -0.0026
   63SAPC   H9R 5045   3.286   3.552   7.526 -2.2331 -1.0046 -0.3764
   63SAPC  C210 5046   3.272   3.765   7.515  0.3734  0.2901  0.1195
   63SAPC  H10R 5047   3.289   3.844   7.439  0.8922  0.4377  0.3878
   63SAPC  H10S 5048   3.366   3.774   7.574  0.8149 -0.4738 -0.4514
   63SAPC  C211 5049   3.147   3.808   7.587  0.2780  0.2640 -0.0742
   63SAPC  H11R 5050   3.086   3.855   7.508 -0.7134 -1.8403 -0.6026
   63SAPC  C212 5051   3.102   3.771   7.709 -0.0501  0.2000  0.2877
   63SAPC  H12R 5052   3.004   3.811   7.741  1.2158  3.8809 -0.2281
   63SAPC  C213 5053   3.177   3.692   7.819 -0.5445 -0.8695 -0.1504
   63SAPC  H13R 5054   3.277   3.661   7.782  0.7375  3.2527 -0.5033
   63SAPC  H13S 5055   3.126   3.601   7.856 -1.1151  0.1529  1.7015
   63SAPC  C214 5056   3.218   3.778   7.943 -0.0799  0.0862 -0.2144
   63SAPC  H14R 5057   3.327   3.786   7.959  0.3475  0.0921 -2.8486
   63SAPC  C215 5058   3.137   3.854   8.015  0.4980  0.1451 -0.5242
   63SAPC  H15R 5059   3.176   3.920   8.095 -0.8512 -0.6040  0.7822
   63SAPC  C216 5060   2.986   3.874   8.001 -0.0043  0.6069 -0.1574
   63SAPC  H16R 5061   2.939   3.803   7.930  0.2807  0.6157 -0.3555
   63SAPC  H16S 5062   2.962   3.979   7.974 -1.5017  0.0775 -0.9237
   63SAPC  C217 5063   2.926   3.847   8.141  0.0155  0.8861  0.1315
   63SAPC  H17R 5064   2.969   3.920   8.213  0.6142 -0.8729  1.6261
   63SAPC  H17S 5065   2.946   3.749   8.189 -0.6516 -0.0290 -1.4106
   63SAPC  C218 5066   2.775   3.866   8.139 -0.5464  0.2625  0.0885
   63SAPC  H18R 5067   2.740   3.810   8.049 -0.5842  0.7670 -0.2143
   63SAPC  H18S 5068   2.762   3.971   8.107  0.3791  0.2366 -0.3930
   63SAPC  C219 5069   2.697   3.821   8.258 -0.4981  0.4267  0.2327
   63SAPC  H19R 5070   2.673   3.713   8.248 -1.5484  0.6081  0.8026
   63SAPC  H19S 5071   2.605   3.882   8.272 -1.8760 -1.5048 -0.3473
   63SAPC  C220 5072   2.784   3.834   8.385 -0.3971  0.1982  0.2056
   63SAPC  H20R 5073   2.816   3.940   8.400  0.1757 -0.0120  0.4989
   63SAPC  H20S 5074   2.879   3.776   8.382  1.4193  3.1303 -1.9521
   63SAPC  H20T 5075   2.724   3.789   8.467 -1.3532 -0.2297 -0.7240
   63SAPC   C33 5076   3.722   4.273   6.751 -0.1683  0.0215  0.2570
   63SAPC   H3X 5077   3.745   4.373   6.709  1.1878 -1.8289 -3.5927
   63SAPC   H3Y 5078   3.760   4.204   6.672 -1.1548 -1.7718  1.3073
   63SAPC   C34 5079   3.797   4.266   6.881 -0.1900  0.4754  0.9012
   63SAPC   H4X 5080   3.794   4.162   6.921 -2.5607  0.8903  1.8797
   63SAPC   H4Y 5081   3.744   4.329   6.956  0.8348 -0.6395  2.6013
   63SAPC   C35 5082   3.936   4.331   6.876 -0.0410 -0.5621 -0.3018
   63SAPC   H5X 5083   3.928   4.438   6.845 -1.9308  0.1402  2.3564
   63SAPC   H5Y 5084   3.989   4.278   6.795 -1.0053  0.0072 -1.3075
   63SAPC   C36 5085   4.014   4.307   7.004  0.3225 -0.1461  0.3159
   63SAPC   H6X 5086   4.115   4.339   6.970  2.3067 -3.0053  3.1801
   63SAPC   H6Y 5087   4.012   4.197   7.019 -0.3060 -0.0634  0.8434
   63SAPC   C37 5088   3.964   4.388   7.123  0.0979 -0.4227  0.9295
   63SAPC   H7X 5089   3.858   4.366   7.148  0.1997  1.2181  2.9017
   63SAPC   H7Y 5090   3.968   4.495   7.093 -1.9775 -0.4903  0.3249
   63SAPC   C38 5091   4.039   4.365   7.255 -0.5207 -0.3859  0.4862
   63SAPC   H8X 5092   4.147   4.366   7.228 -0.7736  0.4889 -0.5274
   63SAPC   H8Y 5093   4.035   4.260   7.290 -0.3238 -0.9267 -1.0752
   63SAPC   C39 5094   3.986   4.447   7.377  0.0330  0.2191  0.2025
   63SAPC   H9X 5095   4.015   4.553   7.359 -3.4180  0.9126 -1.7713
   63SAPC   H9Y 5096   4.033   4.419   7.474 -0.6745  1.0600  0.8025
   63SAPC  C310 5097   3.836   4.443   7.398 -0.1374  0.8609  0.2644
   63SAPC  H10X 5098   3.801   4.340   7.377  2.6818  0.2843 -1.9304
   63SAPC  H10Y 5099   3.775   4.503   7.327 -1.7508 -1.5843 -0.4781
   63SAPC  C311 5100   3.801   4.487   7.535  0.0532 -0.0505  0.2311
   63SAPC  H11X 5101   3.703   4.540   7.532 -1.3476 -2.4349  2.2506
   63SAPC  H11Y 5102   3.873   4.558   7.582 -1.4482  0.9720  1.0402
   63SAPC  C312 5103   3.801   4.370   7.632  0.3547 -0.4670 -0.2733
   63SAPC  H12X 5104   3.901   4.322   7.622 -0.0198 -1.1529 -0.7990
   63SAPC  H12Y 5105   3.732   4.288   7.603  1.2662 -1.6941  0.9083
   63SAPC  C313 5106   3.756   4.406   7.774 -0.6067  0.7040 -0.4757
   63SAPC  H13X 5107   3.651   4.444   7.780 -0.2313  1.5569  0.9846
   63SAPC  H13Y 5108   3.818   4.490   7.810 -0.4397  0.6533 -0.6485
   63SAPC  C314 5109   3.761   4.288   7.882 -0.0845 -0.4034  0.2571
   63SAPC  H14X 5110   3.793   4.197   7.827  1.9669  0.3163  0.2317
   63SAPC  H14Y 5111   3.657   4.288   7.921 -0.3296  1.4812 -0.3850
   63SAPC  C315 5112   3.873   4.314   7.990 -0.2368 -0.3240 -1.0550
   63SAPC  H15X 5113   3.860   4.413   8.038  0.6337 -1.6371  1.9727
   63SAPC  H15Y 5114   3.966   4.323   7.930  0.1173  2.7792 -0.1270
   63SAPC  C316 5115   3.886   4.196   8.091 -0.4735 -0.1786  0.4391
   63SAPC  H16X 5116   3.932   4.107   8.043  0.4729  2.0405 -2.9668
   63SAPC  H16Y 5117   3.784   4.159   8.116 -0.9164 -0.4613 -1.7066
   63SAPC  C317 5118   3.954   4.227   8.223 -0.1294  0.6651  0.7837
   63SAPC  H17X 5119   3.897   4.297   8.288  0.0946  2.8272 -1.2494
   63SAPC  H17Y 5120   4.046   4.280   8.188  0.5317 -0.6934  0.4454
   63SAPC  C318 5121   3.995   4.102   8.298  0.2276  0.1753  0.8754
   63SAPC  H18X 5122   4.039   4.127   8.397 -0.9581 -3.0512  2.2799
   63SAPC  H18Y 5123   4.061   4.050   8.225 -0.1914 -0.0247  0.6346
   63SAPC  H18Z 5124   3.912   4.030   8.314  0.1240  0.1251  0.1395
   64SAPC     N 5125   5.388   3.530   6.244 -0.2402  0.2736 -0.3106
   64SAPC   C12 5126   5.480   3.644   6.205 -0.5392 -0.4841  0.5123
   64SAPC  H12A 5127   5.582   3.611   6.205  0.0966  1.3905 -1.0147
   64SAPC  H12B 5128   5.480   3.713   6.287  0.2895 -0.2616  0.3241
   64SAPC   C13 5129   5.383   3.425   6.143 -0.5036  0.2864 -0.0194
   64SAPC  H13A 5130   5.306   3.350   6.152  0.6798 -1.2142 -2.0223
   64SAPC  H13B 5131   5.365   3.466   6.045  0.5115  1.3917  0.2502
   64SAPC  H13C 5132   5.478   3.375   6.139 -0.2687  0.7391 -0.1796
   64SAPC   C14 5133   5.435   3.464   6.373  0.2239  0.1929 -0.4862
   64SAPC  H14A 5134   5.425   3.536   6.453 -1.2286 -0.3220 -0.1893
   64SAPC  H14B 5135   5.376   3.376   6.392  0.0939  0.0364 -1.5706
   64SAPC  H14C 5136   5.541   3.442   6.373 -0.2297 -2.3782 -3.4055
   64SAPC   C15 5137   5.243   3.584   6.259 -0.3777 -0.4032 -0.1506
   64SAPC  H15A 5138   5.182   3.497   6.278  0.3082 -1.2618 -1.7625
   64SAPC  H15B 5139   5.243   3.642   6.350 -2.8742 -1.8197  0.7848
   64SAPC  H15C 5140   5.220   3.650   6.177  1.7016 -0.4644 -0.8280
   64SAPC   C11 5141   5.454   3.735   6.081  0.5999  1.1328  0.0589
   64SAPC  H11A 5142   5.355   3.785   6.088  0.6500  1.8547 -3.3980
   64SAPC  H11B 5143   5.454   3.681   5.984 -2.1305  1.4130 -0.1365
   64SAPC     P 5144   5.694   3.853   6.126  0.2037 -0.4375  0.1779
   64SAPC   O13 5145   5.767   3.743   6.063 -0.2068  0.1508  0.9182
   64SAPC   O14 5146   5.743   3.995   6.105 -0.4519 -0.5338  0.8022
   64SAPC   O12 5147   5.540   3.852   6.081  0.5077  0.6957  0.1356
   64SAPC   O11 5148   5.686   3.825   6.283  0.1920 -1.5057 -0.0195
   64SAPC    C1 5149   5.644   3.933   6.373  0.3558 -0.3828 -0.4980
   64SAPC    HA 5150   5.583   4.014   6.328  0.6322 -0.8657 -1.7564
   64SAPC    HB 5151   5.584   3.886   6.453 -2.5258  1.2864 -1.6013
   64SAPC    C2 5152   5.764   4.005   6.444  0.0010  0.4245 -0.0339
   64SAPC    HS 5153   5.812   4.073   6.371 -0.3833 -0.0632 -0.7411
   64SAPC   O21 5154   5.851   3.903   6.493  0.3087  0.0016  0.3823
   64SAPC   C21 5155   5.974   3.945   6.531  0.2860 -0.0747  0.3922
   64SAPC   O22 5156   6.017   4.060   6.510 -0.0582  0.0724 -0.0298
   64SAPC   C22 5157   6.052   3.828   6.598  0.3375  0.3653 -0.3416
   64SAPC   H2R 5158   5.987   3.747   6.638  0.2391 -0.0854 -1.3921
   64SAPC   H2S 5159   6.106   3.777   6.515  1.5197  0.3326  0.4364
   64SAPC    C3 5160   5.707   4.090   6.560 -0.2390  0.6864  0.3612
   64SAPC    HX 5161   5.624   4.142   6.506  1.6042  1.9506 -1.3261
   64SAPC    HY 5162   5.785   4.164   6.590  1.3336 -0.1989 -1.4565
   64SAPC   O31 5163   5.647   4.009   6.658  0.6464  0.6534  0.0815
   64SAPC   C31 5164   5.677   4.033   6.787 -0.0956 -0.6206 -0.0647
   64SAPC   O32 5165   5.746   4.120   6.829 -0.2120  0.0902 -0.6500
   64SAPC   C32 5166   5.587   3.937   6.873  0.4640 -0.6947 -0.0381
   64SAPC   H2X 5167   5.644   3.919   6.967 -0.1130  2.1116  0.8761
   64SAPC   H2Y 5168   5.582   3.837   6.823  1.4855 -0.9896  0.4265
   64SAPC   C23 5169   6.158   3.876   6.709  0.5473 -0.3037  0.2705
   64SAPC   H3R 5170   6.224   3.955   6.668 -0.4423  0.0387 -0.6980
   64SAPC   H3S 5171   6.221   3.788   6.734  0.6264 -0.0115  1.1142
   64SAPC   C24 5172   6.085   3.935   6.834 -0.7196  1.1941  0.3946
   64SAPC   H4R 5173   6.030   4.027   6.804 -0.9135  0.4089 -1.7279
   64SAPC   H4S 5174   6.164   3.966   6.907 -0.0056  0.2753  0.0207
   64SAPC   C25 5175   5.983   3.851   6.901 -0.3926 -0.1423 -0.7473
   64SAPC   H5R 5176   5.918   3.783   6.844 -3.5606  1.0590  1.3151
   64SAPC   C26 5177   5.959   3.847   7.031  0.1898 -0.5039  0.0228
   64SAPC   H6R 5178   5.886   3.773   7.068 -0.2341 -0.9955 -1.7277
   64SAPC   C27 5179   6.035   3.925   7.140 -0.2294 -0.4259  0.5524
   64SAPC   H7R 5180   6.021   4.035   7.135 -1.8188 -0.6796 -1.2575
   64SAPC   H7S 5181   6.141   3.925   7.106 -0.2333  1.4972  0.4904
   64SAPC   C28 5182   6.016   3.883   7.281 -0.4892  0.1949 -0.1245
   64SAPC   H8R 5183   6.063   3.789   7.314 -0.2691  0.7857  1.3197
   64SAPC   C29 5184   5.933   3.937   7.373 -0.3353 -0.0330  0.4396
   64SAPC   H9R 5185   5.899   3.886   7.464 -1.3227 -0.6669 -0.2723
   64SAPC  C210 5186   5.843   4.052   7.341  0.4340  0.5733  0.5816
   64SAPC  H10R 5187   5.863   4.091   7.238 -0.9419  3.1724  1.2586
   64SAPC  H10S 5188   5.876   4.141   7.398  1.1238  0.7520 -0.0819
   64SAPC  C211 5189   5.696   4.023   7.347  0.7792 -0.1148 -0.3515
   64SAPC  H11R 5190   5.649   4.020   7.248 -0.1463 -1.6603  0.1235
   64SAPC  C212 5191   5.616   4.009   7.458  0.6300 -0.2772  0.4824
   64SAPC  H12R 5192   5.512   3.983   7.435  1.7454 -0.9115 -4.4612
   64SAPC  C213 5193   5.666   4.012   7.601  0.0948 -0.5108  0.6454
   64SAPC  H13R 5194   5.769   4.051   7.612 -0.1661 -0.0200  1.3292
   64SAPC  H13S 5195   5.678   3.904   7.624  1.0733 -0.3910  0.6915
   64SAPC  C214 5196   5.576   4.087   7.689 -0.6081  0.5577 -0.1314
   64SAPC  H14R 5197   5.540   4.177   7.636 -1.3134  1.2375  1.4515
   64SAPC  C215 5198   5.530   4.067   7.813 -0.5549 -0.2231  0.0282
   64SAPC  H15R 5199   5.468   4.144   7.861  2.0969  1.4700  0.8572
   64SAPC  C216 5200   5.568   3.945   7.893 -0.2626  0.0740  0.1111
   64SAPC  H16R 5201   5.665   3.978   7.936 -0.4778  1.8720 -0.7476
   64SAPC  H16S 5202   5.593   3.853   7.837 -0.2893  0.8351 -1.1625
   64SAPC  C217 5203   5.469   3.916   8.000 -0.3690  0.4181 -0.3347
   64SAPC  H17R 5204   5.512   3.837   8.065 -1.2642 -0.9282 -1.3668
   64SAPC  H17S 5205   5.372   3.881   7.960  0.2531 -1.6111 -0.1178
   64SAPC  C218 5206   5.443   4.033   8.098 -0.6590  0.4015 -0.0983
   64SAPC  H18R 5207   5.371   4.110   8.063 -0.1534  0.5091 -0.9161
   64SAPC  H18S 5208   5.537   4.092   8.102 -0.4716  0.1162 -0.3678
   64SAPC  C219 5209   5.406   3.980   8.237  0.1530  0.3523 -0.2715
   64SAPC  H19R 5210   5.489   3.913   8.271  0.3164 -0.6823 -2.5891
   64SAPC  H19S 5211   5.317   3.914   8.240  0.2297  0.1742 -1.7432
   64SAPC  C220 5212   5.382   4.089   8.339  0.5318 -0.3772 -0.1983
   64SAPC  H20R 5213   5.344   4.046   8.433 -0.1251  0.2510 -0.1729
   64SAPC  H20S 5214   5.310   4.170   8.317  2.0399  1.4193  1.2391
   64SAPC  H20T 5215   5.477   4.145   8.359 -0.5989  0.0431  4.5777
   64SAPC   C33 5216   5.453   4.000   6.912  0.1196  0.2399  0.3515
   64SAPC   H3X 5217   5.394   3.913   6.946  0.9421 -1.8165 -3.2930
   64SAPC   H3Y 5218   5.402   4.029   6.818  1.0474 -0.2662 -0.3180
   64SAPC   C34 5219   5.469   4.105   7.027 -0.1230 -0.2302 -0.2240
   64SAPC   H4X 5220   5.443   4.202   6.981 -0.6083  0.7312  1.9939
   64SAPC   H4Y 5221   5.572   4.110   7.069  0.2701 -0.2712 -1.1790
   64SAPC   C35 5222   5.371   4.071   7.144  0.0704  0.1144  0.4296
   64SAPC   H5X 5223   5.405   3.977   7.191  1.2644  0.1132 -0.4245
   64SAPC   H5Y 5224   5.267   4.048   7.112  0.6460 -2.4761  0.3484
   64SAPC   C36 5225   5.378   4.179   7.253  0.1880  0.0944  0.5758
   64SAPC   H6X 5226   5.357   4.280   7.211 -1.3128 -0.0474  0.9298
   64SAPC   H6Y 5227   5.482   4.181   7.292  0.3528 -4.3321  0.6598
   64SAPC   C37 5228   5.270   4.179   7.362  0.4712  0.1944 -0.2661
   64SAPC   H7X 5229   5.257   4.074   7.398 -0.3705  0.7804  1.1731
   64SAPC   H7Y 5230   5.174   4.211   7.317  0.6006 -0.1755 -0.8165
   64SAPC   C38 5231   5.311   4.265   7.482  0.0022  0.7741  0.0528
   64SAPC   H8X 5232   5.325   4.371   7.451 -3.0844  0.4834 -2.6744
   64SAPC   H8Y 5233   5.410   4.228   7.516 -0.1950 -0.7280 -0.9419
   64SAPC   C39 5234   5.223   4.270   7.606  0.6503  0.0581  0.6208
   64SAPC   H9X 5235   5.193   4.169   7.643  0.5457 -0.1876 -0.1169
   64SAPC   H9Y 5236   5.127   4.320   7.579 -0.3554 -1.2831  1.6351
   64SAPC  C310 5237   5.282   4.354   7.718 -0.0648 -1.0988  0.6598
   64SAPC  H10X 5238   5.296   4.461   7.689 -0.4629 -1.2455 -0.0948
   64SAPC  H10Y 5239   5.383   4.318   7.745  0.8880  0.8297 -0.2393
   64SAPC  C311 5240   5.191   4.340   7.847 -0.8454  0.0305  0.3977
   64SAPC  H11X 5241   5.181   4.233   7.875 -0.2030 -0.2580 -0.4408
   64SAPC  H11Y 5242   5.091   4.374   7.814 -2.0818 -3.3840  0.3914
   64SAPC  C312 5243   5.239   4.433   7.955  0.1722 -0.1144  0.1998
   64SAPC  H12X 5244   5.220   4.536   7.919  0.7881  0.0278  0.2713
   64SAPC  H12Y 5245   5.348   4.418   7.973  0.2611 -1.4515 -1.2713
   64SAPC  C313 5246   5.175   4.417   8.094  0.2576 -0.0503 -0.2593
   64SAPC  H13X 5247   5.234   4.487   8.156  0.5461  0.3173 -0.9458
   64SAPC  H13Y 5248   5.185   4.317   8.143 -2.6452 -0.3756 -0.2201
   64SAPC  C314 5249   5.027   4.451   8.089  0.0111 -0.3953 -0.9328
   64SAPC  H14X 5250   4.970   4.381   8.026 -1.7579 -1.6333  1.9313
   64SAPC  H14Y 5251   5.021   4.557   8.055 -2.3029 -0.5179 -0.9432
   64SAPC  C315 5252   4.970   4.435   8.227 -0.2492 -0.3754 -0.2822
   64SAPC  H15X 5253   4.966   4.329   8.261 -0.8509 -0.7067 -1.3851
   64SAPC  H15Y 5254   4.862   4.461   8.236 -0.5167 -1.9198  1.1673
   64SAPC  C316 5255   5.036   4.508   8.343 -0.5501 -0.2111  0.3852
   64SAPC  H16X 5256   5.139   4.468   8.356 -0.7964 -0.3554  1.9745
   64SAPC  H16Y 5257   4.981   4.492   8.438  0.4582 -0.0316  1.0084
   64SAPC  C317 5258   5.051   4.659   8.320  0.0357  0.9902 -0.5237
   64SAPC  H17X 5259   4.951   4.707   8.319  1.4792  4.1510 -0.9745
   64SAPC  H17Y 5260   5.106   4.674   8.224  1.6891 -0.4503  0.1662
   64SAPC  C318 5261   5.143   4.730   8.420  0.7221 -0.8572  0.5645
   64SAPC  H18X 5262   5.240   4.677   8.419  0.5142 -1.2596  1.4172
   64SAPC  H18Y 5263   5.094   4.713   8.518  0.2459 -1.7208  0.1834
   64SAPC  H18Z 5264   5.153   4.837   8.391 -0.1404  0.0264  3.3684
   65SAPC     N 5265   4.909   5.462   6.255 -0.3743 -0.2604 -0.1936
   65SAPC   C12 5266   4.983   5.493   6.126  0.3658  0.2243  0.6663
   65SAPC  H12A 5267   5.012   5.403   6.075  0.7907  0.7338  0.0006
   65SAPC  H12B 5268   5.074   5.539   6.159 -0.2484  0.5651  1.9086
   65SAPC   C13 5269   4.791   5.373   6.224  0.2140  0.3022  0.1637
   65SAPC  H13A 5270   4.811   5.286   6.164  0.3123  1.2515 -1.2020
   65SAPC  H13B 5271   4.756   5.333   6.319  1.7981 -1.4058  0.0490
   65SAPC  H13C 5272   4.707   5.426   6.180  0.0611  1.8327  2.2153
   65SAPC   C14 5273   4.994   5.375   6.346  0.2779  0.4568  0.4239
   65SAPC  H14A 5274   4.946   5.357   6.441  0.4210  3.3505  1.0759
   65SAPC  H14B 5275   5.000   5.277   6.301 -1.4295  1.5614 -2.3087
   65SAPC  H14C 5276   5.094   5.415   6.355 -0.2450  2.4258 -1.9967
   65SAPC   C15 5277   4.876   5.590   6.319 -0.4439  0.2450  0.3179
   65SAPC  H15A 5278   4.826   5.655   6.248  0.2233  0.2878 -0.1212
   65SAPC  H15B 5279   4.805   5.586   6.400  0.2341 -0.0998  0.8920
   65SAPC  H15C 5280   4.963   5.638   6.360 -0.5962 -0.0755  1.0150
   65SAPC   C11 5281   4.908   5.587   6.019 -0.2944 -0.3959  0.1762
   65SAPC  H11A 5282   4.804   5.555   5.996 -0.4287  0.7375 -0.8329
   65SAPC  H11B 5283   4.956   5.588   5.919 -0.8616  0.1026 -0.0982
   65SAPC     P 5284   5.027   5.818   6.068 -0.1869  0.0497  0.1233
   65SAPC   O13 5285   5.136   5.741   5.998  0.4223  0.0026  0.5889
   65SAPC   O14 5286   4.981   5.949   6.016 -0.1717 -0.2058  0.4793
   65SAPC   O12 5287   4.899   5.722   6.074  0.1418  0.1212 -0.1673
   65SAPC   O11 5288   5.060   5.822   6.218 -0.3993  0.4143 -0.2147
   65SAPC    C1 5289   4.992   5.923   6.306  0.2247  1.3273  0.6032
   65SAPC    HA 5290   4.895   5.959   6.266  0.3034  1.3124  0.3992
   65SAPC    HB 5291   4.974   5.880   6.407  1.9418  1.2120  0.8853
   65SAPC    C2 5292   5.087   6.049   6.327  0.6277  0.3560  0.0139
   65SAPC    HS 5293   5.121   6.077   6.225  0.7271 -2.4513 -0.7814
   65SAPC   O21 5294   5.198   5.999   6.407 -0.0665 -0.4651  0.6601
   65SAPC   C21 5295   5.305   6.071   6.413 -0.0781  0.1445  0.2617
   65SAPC   O22 5296   5.312   6.186   6.366 -0.6412  0.0230 -0.0173
   65SAPC   C22 5297   5.419   6.005   6.485  0.2398  0.5209 -0.5745
   65SAPC   H2R 5298   5.398   5.898   6.460 -0.1358  0.3593  0.4172
   65SAPC   H2S 5299   5.515   6.041   6.443 -0.5909 -0.1333 -3.1734
   65SAPC    C3 5300   5.009   6.171   6.382  0.7955  0.1373  0.1595
   65SAPC    HX 5301   4.941   6.193   6.297  1.4717  3.4300  0.4034
   65SAPC    HY 5302   5.072   6.262   6.392 -1.2977  1.9216 -2.3376
   65SAPC   O31 5303   4.926   6.149   6.497  0.1557 -0.4712 -0.5260
   65SAPC   C31 5304   4.989   6.141   6.611 -0.2088  0.4336 -0.3158
   65SAPC   O32 5305   5.100   6.176   6.630  0.4835 -0.6830 -1.6545
   65SAPC   C32 5306   4.905   6.058   6.707  0.0652 -0.1599  0.0925
   65SAPC   H2X 5307   4.938   5.955   6.684  0.6647  0.1458 -0.4449
   65SAPC   H2Y 5308   4.796   6.077   6.692 -0.2146 -1.6109  0.2169
   65SAPC   C23 5309   5.420   6.032   6.631 -0.2625 -0.0638  1.1173
   65SAPC   H3R 5310   5.404   6.139   6.656 -1.5110 -0.0984  0.4689
   65SAPC   H3S 5311   5.521   6.005   6.671 -0.5616 -2.3408  0.4168
   65SAPC   C24 5312   5.318   5.941   6.711 -0.5901 -0.3347  0.0159
   65SAPC   H4R 5313   5.222   5.939   6.657 -1.2521 -2.5346  1.1978
   65SAPC   H4S 5314   5.294   5.998   6.803  0.2740 -0.4834  0.3380
   65SAPC   C25 5315   5.369   5.796   6.733 -0.5769  0.2838 -0.5540
   65SAPC   H5R 5316   5.323   5.729   6.658 -0.7799  0.5568 -0.6781
   65SAPC   C26 5317   5.463   5.757   6.821  0.0119  0.2563  0.5737
   65SAPC   H6R 5318   5.490   5.650   6.821 -0.7362  0.0570 -1.3700
   65SAPC   C27 5319   5.538   5.837   6.920  0.0517 -0.0002  0.3627
   65SAPC   H7R 5320   5.538   5.787   7.019 -1.0314  4.1556  2.5622
   65SAPC   H7S 5321   5.488   5.936   6.929  0.2844  0.1669 -0.1185
   65SAPC   C28 5322   5.682   5.856   6.869  0.7449 -0.3174  0.1014
   65SAPC   H8R 5323   5.692   5.922   6.782 -0.2982  0.3984  0.5097
   65SAPC   C29 5324   5.798   5.819   6.927  0.5189 -0.3895 -0.3440
   65SAPC   H9R 5325   5.889   5.850   6.874 -0.7459  2.4895 -0.8977
   65SAPC  C210 5326   5.808   5.743   7.058 -0.7864  0.4790  0.1202
   65SAPC  H10R 5327   5.915   5.710   7.058 -0.3641  1.8281  1.4706
   65SAPC  H10S 5328   5.742   5.655   7.043  0.6218 -0.5639 -0.1198
   65SAPC  C211 5329   5.775   5.824   7.178 -0.0909  0.1458 -0.4166
   65SAPC  H11R 5330   5.781   5.934   7.174 -1.0746  0.2884  1.2861
   65SAPC  C212 5331   5.764   5.779   7.305 -0.1981 -0.1191  0.1674
   65SAPC  H12R 5332   5.740   5.847   7.389 -1.4637  4.0737 -3.4041
   65SAPC  C213 5333   5.765   5.638   7.349 -0.3089 -0.2407  0.3923
   65SAPC  H13R 5334   5.798   5.641   7.455  0.7638 -2.3558  0.1485
   65SAPC  H13S 5335   5.851   5.599   7.291 -0.0626  1.6158 -0.5260
   65SAPC  C214 5336   5.636   5.564   7.328 -0.1226  0.6520  0.1483
   65SAPC  H14R 5337   5.643   5.465   7.281 -0.8224  1.1398 -0.9972
   65SAPC  C215 5338   5.518   5.592   7.382  0.7666 -0.4621  0.0481
   65SAPC  H15R 5339   5.429   5.539   7.344 -0.8178  0.1743  2.7647
   65SAPC  C216 5340   5.482   5.717   7.459 -0.3839 -0.6643  0.2642
   65SAPC  H16R 5341   5.447   5.800   7.394 -2.1724 -1.3673  0.2927
   65SAPC  H16S 5342   5.565   5.763   7.518  0.6275 -2.1337  0.0016
   65SAPC  C217 5343   5.394   5.680   7.572  0.5223  0.6700  0.1998
   65SAPC  H17R 5344   5.459   5.616   7.636 -1.6805 -1.9162 -0.0718
   65SAPC  H17S 5345   5.306   5.623   7.535  1.7687  0.3836 -2.4569
   65SAPC  C218 5346   5.344   5.800   7.656  0.0818 -0.0248  0.1026
   65SAPC  H18R 5347   5.287   5.871   7.592  0.9392  0.0897 -0.5359
   65SAPC  H18S 5348   5.430   5.844   7.711  0.2167 -0.3800  0.1789
   65SAPC  C219 5349   5.257   5.751   7.770 -0.0310  0.1926  0.2922
   65SAPC  H19R 5350   5.314   5.667   7.816 -1.6158 -0.4655  1.0863
   65SAPC  H19S 5351   5.168   5.714   7.716  1.0703  1.4036 -2.4773
   65SAPC  C220 5352   5.228   5.856   7.879  0.0643 -0.6256  1.1526
   65SAPC  H20R 5353   5.198   5.816   7.978 -2.4839  1.2143  1.1808
   65SAPC  H20S 5354   5.155   5.931   7.840  0.0531 -0.9757  0.4972
   65SAPC  H20T 5355   5.316   5.922   7.895 -0.1694 -0.1513  0.5213
   65SAPC   C33 5356   4.952   6.090   6.853 -0.0379  0.0745 -0.5190
   65SAPC   H3X 5357   5.003   6.189   6.850  2.7425 -1.2533  0.7342
   65SAPC   H3Y 5358   5.028   6.012   6.876 -3.0978 -3.0920 -0.7388
   65SAPC   C34 5359   4.835   6.100   6.946  0.1313 -0.3224  0.7313
   65SAPC   H4X 5360   4.752   6.164   6.908  1.9622  0.5591 -1.8739
   65SAPC   H4Y 5361   4.875   6.133   7.044  1.3119  1.7818 -0.4385
   65SAPC   C35 5362   4.772   5.967   6.976  0.9004  0.6689  0.7587
   65SAPC   H5X 5363   4.854   5.894   6.997  1.6689  1.2539 -0.1599
   65SAPC   H5Y 5364   4.715   5.924   6.891  0.8082  2.4470 -0.1003
   65SAPC   C36 5365   4.668   5.957   7.091 -0.4007 -0.5501  0.7048
   65SAPC   H6X 5366   4.580   6.019   7.063 -0.5616 -0.0467  2.2666
   65SAPC   H6Y 5367   4.715   5.992   7.185 -1.3052  1.5110  0.4224
   65SAPC   C37 5368   4.608   5.811   7.104  0.1011  0.4447 -0.2398
   65SAPC   H7X 5369   4.692   5.743   7.132 -1.9571 -2.4212 -0.7723
   65SAPC   H7Y 5370   4.570   5.791   7.002  2.0193  0.1914 -0.9255
   65SAPC   C38 5371   4.505   5.797   7.215  0.6297  0.1685 -0.9320
   65SAPC   H8X 5372   4.461   5.695   7.215 -1.0030  0.8158  1.4838
   65SAPC   H8Y 5373   4.431   5.879   7.205 -0.0067 -0.4188 -1.0995
   65SAPC   C39 5374   4.559   5.810   7.356  0.4070 -0.1172 -0.3272
   65SAPC   H9X 5375   4.590   5.916   7.371 -2.4197  0.9307 -1.5843
   65SAPC   H9Y 5376   4.645   5.740   7.364  0.0018 -0.4477  1.2541
   65SAPC  C310 5377   4.447   5.778   7.456  0.8551  0.9151  0.0646
   65SAPC  H10X 5378   4.426   5.669   7.463  4.2442  0.3383  2.2793
   65SAPC  H10Y 5379   4.349   5.825   7.431 -0.6116 -2.4107 -0.7588
   65SAPC  C311 5380   4.486   5.827   7.597 -0.2256 -0.6141 -0.3620
   65SAPC  H11X 5381   4.529   5.930   7.599  2.0396 -1.5615  1.4610
   65SAPC  H11Y 5382   4.579   5.773   7.624 -1.0306 -0.7556  2.2610
   65SAPC  C312 5383   4.375   5.812   7.703 -0.4415  0.8912  0.7021
   65SAPC  H12X 5384   4.371   5.709   7.743  0.8002  0.6145  0.1303
   65SAPC  H12Y 5385   4.278   5.830   7.651 -1.4968  0.9165  2.5989
   65SAPC  C313 5386   4.381   5.921   7.808  0.3044  0.2702  0.4628
   65SAPC  H13X 5387   4.368   6.023   7.764 -1.3423 -0.5607 -1.0418
   65SAPC  H13Y 5388   4.482   5.917   7.854  0.4827 -2.0554 -0.0743
   65SAPC  C314 5389   4.279   5.906   7.919  0.1928 -0.7379 -0.1066
   65SAPC  H14X 5390   4.169   5.904   7.904  0.0948  0.9253  0.2697
   65SAPC  H14Y 5391   4.300   5.992   7.986 -0.6250 -1.5140  1.1497
   65SAPC  C315 5392   4.302   5.768   7.997  0.2041  0.3347 -0.2525
   65SAPC  H15X 5393   4.408   5.756   8.028  0.5638  0.5511 -1.3966
   65SAPC  H15Y 5394   4.283   5.686   7.925  1.7343 -0.3068  0.0596
   65SAPC  C316 5395   4.205   5.740   8.110 -0.1002  0.4704  0.0210
   65SAPC  H16X 5396   4.104   5.714   8.070 -0.3412 -2.6517  2.4425
   65SAPC  H16Y 5397   4.202   5.829   8.175  3.8012 -0.8796  2.2354
   65SAPC  C317 5398   4.263   5.625   8.202 -0.2663 -0.4041 -0.2341
   65SAPC  H17X 5399   4.281   5.538   8.134  0.3593  0.0862 -0.7020
   65SAPC  H17Y 5400   4.192   5.591   8.281 -0.2508 -1.3622 -0.6170
   65SAPC  C318 5401   4.385   5.673   8.279 -0.0564 -0.1052 -0.0334
   65SAPC  H18X 5402   4.407   5.601   8.360  0.3744 -2.0558 -1.8235
   65SAPC  H18Y 5403   4.369   5.779   8.310 -1.1527 -0.6077  1.1518
   65SAPC  H18Z 5404   4.483   5.673   8.227  0.5548  1.2515  1.1019
   66SAPC     N 5405   2.654   5.356   6.051  0.2105 -0.2651 -0.6280
   66SAPC   C12 5406   2.697   5.326   6.194 -0.0913  0.2279 -0.5852
   66SAPC  H12A 5407   2.748   5.412   6.235  2.4075 -1.3465 -0.3570
   66SAPC  H12B 5408   2.772   5.250   6.179 -0.9933 -0.9415  0.8005
   66SAPC   C13 5409   2.555   5.468   6.052 -0.2426 -0.0095 -0.7669
   66SAPC  H13A 5410   2.494   5.465   5.963  0.5882 -0.3520 -1.3405
   66SAPC  H13B 5411   2.496   5.465   6.142 -2.0161 -0.3677 -1.9087
   66SAPC  H13C 5412   2.597   5.567   6.060 -0.9268  0.3122 -1.1634
   66SAPC   C14 5413   2.782   5.402   5.974  0.4023 -0.6148 -0.3560
   66SAPC  H14A 5414   2.859   5.328   5.961  1.9378  1.2377 -2.0318
   66SAPC  H14B 5415   2.745   5.427   5.876 -1.6127 -0.4215  0.4219
   66SAPC  H14C 5416   2.820   5.491   6.022  1.6574 -2.7218  2.7274
   66SAPC   C15 5417   2.600   5.238   5.977 -0.2274  0.1890 -0.6245
   66SAPC  H15A 5418   2.676   5.161   5.976  0.7419  1.0688  2.0708
   66SAPC  H15B 5419   2.528   5.196   6.045  1.3859 -2.2967 -0.3563
   66SAPC  H15C 5420   2.547   5.252   5.884 -2.6421 -3.3911  0.1038
   66SAPC   C11 5421   2.585   5.282   6.293 -0.1818  0.2805 -0.4780
   66SAPC  H11A 5422   2.519   5.371   6.304 -0.2840  0.2460 -0.7907
   66SAPC  H11B 5423   2.621   5.261   6.396 -2.7877  1.9277  0.8228
   66SAPC     P 5424   2.534   5.031   6.273  0.3907  0.5620 -0.1182
   66SAPC   O13 5425   2.470   4.935   6.180 -0.0305  0.2151 -0.7746
   66SAPC   O14 5426   2.678   5.010   6.292  0.0454 -0.0440 -0.0158
   66SAPC   O12 5427   2.500   5.180   6.241 -0.0904 -0.0114 -0.4829
   66SAPC   O11 5428   2.465   5.012   6.416  0.2963 -0.4570 -0.2015
   66SAPC    C1 5429   2.481   4.884   6.488 -0.0656 -0.1307  0.1061
   66SAPC    HA 5430   2.387   4.825   6.472 -0.8539  1.0385  0.4008
   66SAPC    HB 5431   2.550   4.810   6.441  2.3754  2.3943 -0.4071
   66SAPC    C2 5432   2.515   4.906   6.638  0.1959  1.1129  0.3057
   66SAPC    HS 5433   2.428   4.955   6.687 -0.5579 -0.3359  0.4466
   66SAPC   O21 5434   2.645   4.965   6.666  0.0788  0.0386  0.3029
   66SAPC   C21 5435   2.662   5.095   6.668 -0.0902  0.2680 -0.4344
   66SAPC   O22 5436   2.567   5.171   6.664  0.4501 -0.2952 -0.9380
   66SAPC   C22 5437   2.814   5.124   6.668  0.5031  0.0799  0.0036
   66SAPC   H2R 5438   2.864   5.074   6.754 -0.6608 -2.4124 -0.7307
   66SAPC   H2S 5439   2.854   5.079   6.575  1.0957 -0.4195  0.5026
   66SAPC    C3 5440   2.505   4.762   6.712 -0.0375  0.6130  0.4141
   66SAPC    HX 5441   2.587   4.695   6.678 -0.7239 -0.2468  0.4366
   66SAPC    HY 5442   2.414   4.715   6.669 -0.5003  1.1107  0.8382
   66SAPC   O31 5443   2.495   4.771   6.853 -0.3693  0.2898  0.5215
   66SAPC   C31 5444   2.610   4.761   6.921  0.6463  0.0063 -0.7379
   66SAPC   O32 5445   2.724   4.748   6.882 -0.4719 -0.0326 -0.4611
   66SAPC   C32 5446   2.576   4.791   7.073  0.2681 -0.6203 -0.0999
   66SAPC   H2X 5447   2.515   4.704   7.105 -1.3970  1.1458  1.6902
   66SAPC   H2Y 5448   2.517   4.885   7.088  0.0237 -0.7974  0.0412
   66SAPC   C23 5449   2.848   5.277   6.663 -0.0254  0.3758 -0.1531
   66SAPC   H3R 5450   2.805   5.331   6.577  1.8251  0.8227 -0.8348
   66SAPC   H3S 5451   2.958   5.284   6.648  0.1269 -0.6993  0.3701
   66SAPC   C24 5452   2.806   5.348   6.791 -0.1128  0.3369 -0.6682
   66SAPC   H4R 5453   2.700   5.329   6.816  0.1416  2.1357  1.8819
   66SAPC   H4S 5454   2.812   5.457   6.772  1.0673  0.4067  0.0195
   66SAPC   C25 5455   2.887   5.318   6.917  0.3821  0.7048  0.3316
   66SAPC   H5R 5456   2.996   5.328   6.907  0.6061 -3.3267 -2.5528
   66SAPC   C26 5457   2.832   5.256   7.023  0.0893  0.6364 -0.5074
   66SAPC   H6R 5458   2.903   5.253   7.106 -1.9432 -1.9681  1.2258
   66SAPC   C27 5459   2.690   5.216   7.052 -0.3704 -0.4036  0.0312
   66SAPC   H7R 5460   2.665   5.152   7.140  0.2633  0.3403  0.7561
   66SAPC   H7S 5461   2.645   5.163   6.966  0.9449  0.6676 -1.3276
   66SAPC   C28 5462   2.604   5.336   7.060 -0.4066  0.6848 -0.6871
   66SAPC   H8R 5463   2.574   5.371   6.960  0.8281  0.1341 -1.2585
   66SAPC   C29 5464   2.568   5.404   7.173  0.2705 -0.0556 -0.1916
   66SAPC   H9R 5465   2.486   5.478   7.169  0.8767  0.7441  1.6493
   66SAPC  C210 5466   2.608   5.368   7.315 -0.0247 -0.3726 -0.0008
   66SAPC  H10R 5467   2.655   5.268   7.328  1.1842  0.1910  0.0073
   66SAPC  H10S 5468   2.520   5.374   7.383  0.2669  1.9284  0.2221
   66SAPC  C211 5469   2.711   5.467   7.363  0.2427 -0.6817  0.0670
   66SAPC  H11R 5470   2.788   5.494   7.289 -0.4173 -0.2830 -0.4785
   66SAPC  C212 5471   2.714   5.525   7.483 -0.6239 -0.3908  0.1578
   66SAPC  H12R 5472   2.777   5.614   7.498 -0.3806 -0.5797  0.2439
   66SAPC  C213 5473   2.615   5.497   7.593 -0.2605  0.6570  0.3483
   66SAPC  H13R 5474   2.602   5.387   7.599 -0.5688  0.8184  3.0197
   66SAPC  H13S 5475   2.525   5.545   7.549  0.9472  1.4275 -1.3616
   66SAPC  C214 5476   2.634   5.547   7.735  0.1005 -0.3391  0.2504
   66SAPC  H14R 5477   2.713   5.622   7.748  1.9451 -2.1466 -0.3740
   66SAPC  C215 5478   2.568   5.495   7.842 -0.9244 -0.0954  0.4746
   66SAPC  H15R 5479   2.568   5.549   7.937 -1.3874 -2.2806  1.7615
   66SAPC  C216 5480   2.466   5.384   7.852 -0.4123  0.2047 -0.0540
   66SAPC  H16R 5481   2.406   5.379   7.758  0.1521  0.0332 -0.4114
   66SAPC  H16S 5482   2.397   5.415   7.932 -0.9158  0.4774 -0.5933
   66SAPC  C217 5483   2.522   5.237   7.876  0.2456  0.1091  0.6265
   66SAPC  H17R 5484   2.602   5.215   7.802  0.6195 -2.8466  1.8596
   66SAPC  H17S 5485   2.440   5.163   7.872 -0.0719  0.3597  2.2451
   66SAPC  C218 5486   2.581   5.230   8.014 -0.9576 -1.0428  0.1299
   66SAPC  H18R 5487   2.664   5.303   8.022 -1.4260 -0.3431 -1.2120
   66SAPC  H18S 5488   2.629   5.130   8.018  3.5490  0.8624 -2.3218
   66SAPC  C219 5489   2.492   5.247   8.132 -0.2710 -0.0618 -0.3333
   66SAPC  H19R 5490   2.449   5.349   8.122 -1.1953 -0.6098 -2.1923
   66SAPC  H19S 5491   2.554   5.248   8.224 -0.3209 -4.1260 -0.1874
   66SAPC  C220 5492   2.385   5.143   8.150  0.2916  0.8965  0.1161
   66SAPC  H20R 5493   2.435   5.044   8.143  3.3952  2.3821  0.3615
   66SAPC  H20S 5494   2.297   5.162   8.085  0.0167  0.5691  0.3912
   66SAPC  H20T 5495   2.350   5.156   8.255  0.4103  2.2149  0.0066
   66SAPC   C33 5496   2.699   4.809   7.170  0.7098 -0.4807 -0.4452
   66SAPC   H3X 5497   2.766   4.882   7.118 -1.4329  1.1885 -0.9296
   66SAPC   H3Y 5498   2.754   4.712   7.171 -0.7159 -1.3018 -0.2587
   66SAPC   C34 5499   2.655   4.876   7.296 -0.6410 -0.6217 -0.1402
   66SAPC   H4X 5500   2.582   4.817   7.356 -0.8091  1.7924  2.1294
   66SAPC   H4Y 5501   2.602   4.969   7.264 -0.9490 -0.7599 -0.0253
   66SAPC   C35 5502   2.766   4.925   7.381 -0.1104 -0.5167  0.2041
   66SAPC   H5X 5503   2.833   4.991   7.321  1.7365 -2.4758  0.0341
   66SAPC   H5Y 5504   2.844   4.851   7.408  1.5794  0.7421 -1.0288
   66SAPC   C36 5505   2.710   4.992   7.505 -0.1575 -0.4746 -0.1400
   66SAPC   H6X 5506   2.627   4.933   7.548  0.8706 -1.8406  0.0089
   66SAPC   H6Y 5507   2.665   5.092   7.489  0.2248 -0.0062  1.6682
   66SAPC   C37 5508   2.824   5.018   7.616 -0.6325  0.1447 -0.1000
   66SAPC   H7X 5509   2.878   4.932   7.662  1.8211  1.7460  0.0993
   66SAPC   H7Y 5510   2.776   5.063   7.706  1.4177 -0.6441  1.4283
   66SAPC   C38 5511   2.933   5.116   7.570 -0.5104 -0.4811  0.9562
   66SAPC   H8X 5512   2.885   5.204   7.522  2.0492  0.6104  0.3637
   66SAPC   H8Y 5513   2.993   5.065   7.492 -1.5429 -0.8453  0.3775
   66SAPC   C39 5514   3.022   5.169   7.685 -0.2122  0.6103  0.3014
   66SAPC   H9X 5515   3.097   5.242   7.647 -0.7204 -0.4185 -2.8091
   66SAPC   H9Y 5516   3.072   5.077   7.724 -0.5249  0.4306  0.2836
   66SAPC  C310 5517   2.949   5.233   7.810 -0.6508 -0.2669 -0.0372
   66SAPC  H10X 5518   2.859   5.178   7.843 -1.1308  0.7211  0.3373
   66SAPC  H10Y 5519   2.902   5.324   7.765 -5.0869 -2.1746  0.4672
   66SAPC  C311 5520   3.046   5.267   7.921  0.1998  0.5391  0.2117
   66SAPC  H11X 5521   3.018   5.355   7.983  0.9286  2.7279 -2.4678
   66SAPC  H11Y 5522   3.137   5.303   7.868  2.1967 -2.2600  1.5630
   66SAPC  C312 5523   3.076   5.149   8.008 -0.3934 -0.5147  0.2676
   66SAPC  H12X 5524   3.130   5.184   8.099  0.2645 -0.8582  0.0139
   66SAPC  H12Y 5525   3.157   5.091   7.960  3.1168  2.1809  2.6338
   66SAPC  C313 5526   2.960   5.058   8.044 -0.3115  0.4577  0.3180
   66SAPC  H13X 5527   2.938   4.991   7.958  1.3407  0.5647 -0.2035
   66SAPC  H13Y 5528   2.859   5.103   8.058  0.2758  2.1259 -0.7183
   66SAPC  C314 5529   2.985   4.978   8.171 -0.3229 -0.2961  1.4355
   66SAPC  H14X 5530   2.980   5.058   8.249 -1.9331 -0.1115  1.1499
   66SAPC  H14Y 5531   3.081   4.924   8.185 -0.2830  0.2359  3.3338
   66SAPC  C315 5532   2.870   4.889   8.195 -0.6799  0.5407 -0.5310
   66SAPC  H15X 5533   2.861   4.811   8.116 -4.6342  0.7980 -0.4125
   66SAPC  H15Y 5534   2.770   4.937   8.195 -0.4764  0.9642 -1.0626
   66SAPC  C316 5535   2.874   4.818   8.333  0.0683  0.0553  0.0292
   66SAPC  H16X 5536   2.850   4.893   8.411  1.1302 -0.9927  1.3851
   66SAPC  H16Y 5537   2.975   4.781   8.362  0.7372  2.4397  0.8600
   66SAPC  C317 5538   2.776   4.709   8.352  0.2612  0.0179  0.3713
   66SAPC  H17X 5539   2.800   4.613   8.301  1.0274  0.8282 -0.8261
   66SAPC  H17Y 5540   2.672   4.734   8.321  0.1006 -1.1535 -0.0602
   66SAPC  C318 5541   2.757   4.677   8.499  0.4321 -0.1854 -0.1017
   66SAPC  H18X 5542   2.852   4.652   8.551 -1.3054 -2.2308  2.1952
   66SAPC  H18Y 5543   2.692   4.587   8.505  0.2326 -0.0368 -0.0592
   66SAPC  H18Z 5544   2.701   4.750   8.560 -0.9456 -1.1685 -0.1738
   67SAPC     N 5545   5.241   0.073   6.266  0.4076  0.3078 -0.7602
   67SAPC   C12 5546   5.387   0.017   6.252  0.2805  0.1531  0.5831
   67SAPC  H12A 5547   5.391  -0.067   6.184  3.2155  0.6396  0.0970
   67SAPC  H12B 5548   5.435  -0.020   6.342  2.1624  0.9002 -0.0801
   67SAPC   C13 5549   5.189   0.112   6.137 -0.1100 -0.4842  0.4771
   67SAPC  H13A 5550   5.256   0.181   6.087 -0.4808 -0.8038 -0.4732
   67SAPC  H13B 5551   5.188   0.026   6.072 -2.3533 -0.9279  1.0780
   67SAPC  H13C 5552   5.086   0.146   6.137 -1.1128 -3.3015 -1.7497
   67SAPC   C14 5553   5.154  -0.027   6.333 -0.3047 -0.6657  0.2081
   67SAPC  H14A 5554   5.062   0.027   6.351 -0.8037 -1.0788 -1.0097
   67SAPC  H14B 5555   5.141  -0.116   6.274  0.1211  0.2182 -1.2413
   67SAPC  H14C 5556   5.195  -0.052   6.429  1.6175  0.7996 -0.2013
   67SAPC   C15 5557   5.239   0.197   6.356  0.3942 -0.8866  0.0364
   67SAPC  H15A 5558   5.137   0.226   6.376  0.2810 -1.1726 -0.1229
   67SAPC  H15B 5559   5.267   0.174   6.458  1.6196  0.8339  0.1191
   67SAPC  H15C 5560   5.305   0.273   6.316 -2.3451  2.4218  1.5122
   67SAPC   C11 5561   5.500   0.114   6.190  0.0220 -0.5474  0.1531
   67SAPC  H11A 5562   5.484   0.141   6.084  2.9098  1.1773  0.1016
   67SAPC  H11B 5563   5.595   0.057   6.188 -1.5909 -3.3557 -0.0875
   67SAPC     P 5564   5.614   0.340   6.220  0.2592  0.0145 -0.5456
   67SAPC   O13 5565   5.716   0.290   6.125 -0.0858 -0.0866  0.2150
   67SAPC   O14 5566   5.547   0.464   6.172  0.3579 -0.0389 -0.2077
   67SAPC   O12 5567   5.504   0.237   6.261 -0.1767 -0.5185  0.5417
   67SAPC   O11 5568   5.677   0.366   6.360 -0.2046 -0.0401 -0.3508
   67SAPC    C1 5569   5.756   0.267   6.425 -0.1555 -0.6717  0.9330
   67SAPC    HA 5570   5.768   0.172   6.369  1.1043  1.0607 -1.8266
   67SAPC    HB 5571   5.859   0.305   6.443  0.2223 -0.4902 -1.5223
   67SAPC    C2 5572   5.697   0.206   6.557 -0.1740  0.2224 -0.4582
   67SAPC    HS 5573   5.622   0.128   6.532 -1.1931  1.1739 -0.3878
   67SAPC   O21 5574   5.645   0.307   6.642 -0.0423 -0.2653 -0.5775
   67SAPC   C21 5575   5.544   0.277   6.722 -0.3261  0.6191  0.4328
   67SAPC   O22 5576   5.474   0.181   6.717 -0.1080 -0.1808 -0.4311
   67SAPC   C22 5577   5.523   0.397   6.817 -0.4230 -0.1932 -0.4224
   67SAPC   H2R 5578   5.624   0.442   6.831 -0.4876 -0.2239  0.1605
   67SAPC   H2S 5579   5.454   0.470   6.769 -0.1236  1.4712  1.5899
   67SAPC    C3 5580   5.810   0.117   6.625  0.2036  0.1037 -0.2480
   67SAPC    HX 5581   5.907   0.169   6.636  0.3735 -0.6511  1.9592
   67SAPC    HY 5582   5.830   0.028   6.562 -0.6345  0.1756 -0.6226
   67SAPC   O31 5583   5.787   0.079   6.767  0.2629  0.1434 -0.2917
   67SAPC   C31 5584   5.738  -0.040   6.790  0.5048  0.7362  0.4293
   67SAPC   O32 5585   5.694  -0.113   6.701  1.0572 -0.0173 -0.2629
   67SAPC   C32 5586   5.735  -0.057   6.943  0.3028  0.0069  0.2285
   67SAPC   H2X 5587   5.738   0.042   6.993  0.7271 -1.6959  3.7563
   67SAPC   H2Y 5588   5.828  -0.105   6.980  1.0643  0.0014 -1.6253
   67SAPC   C23 5589   5.457   0.352   6.952  0.1105  0.1365  0.2775
   67SAPC   H3R 5590   5.537   0.306   7.013 -0.6157  0.2052  1.2967
   67SAPC   H3S 5591   5.386   0.276   6.914  2.5050 -1.9459 -0.1431
   67SAPC   C24 5592   5.386   0.466   7.022 -0.6668 -0.3692 -0.0840
   67SAPC   H4R 5593   5.454   0.553   7.030  3.6340 -3.2784 -2.6081
   67SAPC   H4S 5594   5.370   0.412   7.118 -0.1084 -0.1190  0.1484
   67SAPC   C25 5595   5.265   0.522   6.960  0.0698  0.4780 -0.1056
   67SAPC   H5R 5596   5.275   0.567   6.860 -0.6593  0.7324 -0.0632
   67SAPC   C26 5597   5.153   0.537   7.028  0.0824 -0.3528 -0.1902
   67SAPC   H6R 5598   5.072   0.581   6.968  0.0054 -0.5913 -0.2597
   67SAPC   C27 5599   5.117   0.506   7.173  0.7135  0.4778 -0.1771
   67SAPC   H7R 5600   5.159   0.586   7.237  0.3403 -0.9297  1.8767
   67SAPC   H7S 5601   5.176   0.419   7.210 -1.0063 -0.4613  0.4352
   67SAPC   C28 5602   4.974   0.480   7.197  0.1414 -0.9509  0.1207
   67SAPC   H8R 5603   4.918   0.454   7.106  2.1470  1.2020 -1.8191
   67SAPC   C29 5604   4.907   0.491   7.315  0.3189 -0.1871  0.2728
   67SAPC   H9R 5605   4.797   0.482   7.309  0.3114 -1.1389  1.8462
   67SAPC  C210 5606   4.956   0.513   7.454 -0.7177  0.4458  0.0802
   67SAPC  H10R 5607   4.918   0.606   7.501  1.7880  0.6861  1.6809
   67SAPC  H10S 5608   5.063   0.538   7.438 -0.2526 -1.6171 -0.2286
   67SAPC  C211 5609   4.936   0.395   7.550 -0.2273  0.3943  0.3726
   67SAPC  H11R 5610   4.889   0.310   7.498  2.2823  0.4811 -2.1205
   67SAPC  C212 5611   4.978   0.368   7.680  0.4347 -0.3395 -0.4469
   67SAPC  H12R 5612   4.952   0.278   7.737  2.6230 -0.0600  1.0769
   67SAPC  C213 5613   5.057   0.461   7.775 -0.0842 -0.0001 -0.5276
   67SAPC  H13R 5614   4.997   0.486   7.865  3.5075  3.1690  1.1220
   67SAPC  H13S 5615   5.062   0.561   7.728 -1.7956  1.5577  2.4544
   67SAPC  C214 5616   5.184   0.402   7.828 -0.8260  0.2207 -0.2122
   67SAPC  H14R 5617   5.275   0.423   7.770 -1.4555 -0.7144 -1.5624
   67SAPC  C215 5618   5.192   0.309   7.926 -0.7038  0.4201 -0.0936
   67SAPC  H15R 5619   5.294   0.273   7.948  0.8883  5.1844  1.0278
   67SAPC  C216 5620   5.080   0.256   8.005  0.1769  0.4518 -0.6680
   67SAPC  H16R 5621   5.067   0.147   7.989  0.4396 -0.1992  3.0943
   67SAPC  H16S 5622   4.981   0.292   7.969  0.2161  0.9559 -0.2725
   67SAPC  C217 5623   5.074   0.275   8.155  0.4558  0.1897 -0.1417
   67SAPC  H17R 5624   5.154   0.213   8.202  0.4257  0.8925  0.8657
   67SAPC  H17S 5625   4.978   0.246   8.203  1.4842 -1.6750  0.8526
   67SAPC  C218 5626   5.105   0.419   8.181 -0.1525  0.9795 -0.2721
   67SAPC  H18R 5627   5.059   0.482   8.102  0.2676  1.2156 -0.3310
   67SAPC  H18S 5628   5.215   0.438   8.186  0.6231 -2.5079 -2.1063
   67SAPC  C219 5629   5.046   0.458   8.319  0.7434  0.2423  0.2160
   67SAPC  H19R 5630   5.123   0.526   8.360  1.1032 -0.3188  0.4769
   67SAPC  H19S 5631   5.038   0.369   8.386  0.2713  0.0731 -0.0582
   67SAPC  C220 5632   4.912   0.522   8.298 -0.7063 -0.2177  0.9420
   67SAPC  H20R 5633   4.903   0.561   8.194  1.1769  1.0186  1.2131
   67SAPC  H20S 5634   4.892   0.608   8.366 -1.4612  0.2494  0.1402
   67SAPC  H20T 5635   4.834   0.443   8.295 -0.0761 -0.8069 -0.3348
   67SAPC   C33 5636   5.609  -0.134   6.995 -0.2960 -0.6058 -0.2506
   67SAPC   H3X 5637   5.602  -0.233   6.945 -1.9173  0.3779 -2.0896
   67SAPC   H3Y 5638   5.516  -0.082   6.962 -0.5402 -1.3271 -0.7048
   67SAPC   C34 5639   5.582  -0.142   7.145  0.7234  0.0919  0.1541
   67SAPC   H4X 5640   5.580  -0.039   7.186  0.2496 -0.2216  0.9487
   67SAPC   H4Y 5641   5.659  -0.202   7.198  0.3861  0.8366  1.5117
   67SAPC   C35 5642   5.447  -0.204   7.190  0.7174  0.0037 -0.8828
   67SAPC   H5X 5643   5.447  -0.305   7.144 -0.5811  0.3646 -1.7381
   67SAPC   H5Y 5644   5.368  -0.133   7.154  1.6614  0.7013 -1.6118
   67SAPC   C36 5645   5.431  -0.236   7.348  0.1066  0.0873 -0.3153
   67SAPC   H6X 5646   5.326  -0.263   7.371  0.0902  1.0533  0.7592
   67SAPC   H6Y 5647   5.451  -0.147   7.412 -2.1667 -0.1091  0.7328
   67SAPC   C37 5648   5.526  -0.346   7.392  0.2616  0.0196 -0.1142
   67SAPC   H7X 5649   5.629  -0.306   7.398 -0.1876  0.9423  2.4103
   67SAPC   H7Y 5650   5.532  -0.428   7.318  2.9413  0.0372  0.0550
   67SAPC   C38 5651   5.493  -0.395   7.535 -0.4106  0.2763  0.4710
   67SAPC   H8X 5652   5.385  -0.418   7.527 -0.1318 -0.8322 -0.2412
   67SAPC   H8Y 5653   5.513  -0.306   7.599  0.3516 -0.9255  1.9330
   67SAPC   C39 5654   5.568  -0.522   7.579 -0.4872 -0.2851  0.2750
   67SAPC   H9X 5655   5.675  -0.507   7.601  0.0316 -2.1746 -0.8359
   67SAPC   H9Y 5656   5.568  -0.586   7.489 -1.1038 -0.9129  0.7111
   67SAPC  C310 5657   5.500  -0.604   7.691 -0.0650  0.2783  0.1802
   67SAPC  H10X 5658   5.549  -0.704   7.698  0.6828  0.7327  1.5777
   67SAPC  H10Y 5659   5.393  -0.625   7.668 -0.7233  0.9722  2.4790
   67SAPC  C311 5660   5.516  -0.552   7.834 -0.1402 -0.5179  0.2807
   67SAPC  H11X 5661   5.475  -0.624   7.907  0.7661 -0.3543  0.9616
   67SAPC  H11Y 5662   5.460  -0.457   7.852  1.7607  0.6091  0.3840
   67SAPC  C312 5663   5.661  -0.506   7.868 -0.4852  0.0681 -0.3524
   67SAPC  H12X 5664   5.675  -0.416   7.804 -0.5063  0.9502  0.8839
   67SAPC  H12Y 5665   5.734  -0.582   7.832  0.2519  0.5468  0.1293
   67SAPC  C313 5666   5.691  -0.470   8.011  0.5196 -0.0240  0.0174
   67SAPC  H13X 5667   5.705  -0.566   8.066  1.5039 -1.0509 -1.9631
   67SAPC  H13Y 5668   5.613  -0.399   8.045 -1.0389 -1.8262  0.2736
   67SAPC  C314 5669   5.816  -0.389   8.034 -0.4731 -1.0080 -0.0593
   67SAPC  H14X 5670   5.806  -0.345   8.136  2.6179  0.1362 -0.1848
   67SAPC  H14Y 5671   5.833  -0.305   7.964  1.4502  0.0185  1.5957
   67SAPC  C315 5672   5.940  -0.485   8.027 -0.0294  0.0348  0.5813
   67SAPC  H15X 5673   5.933  -0.559   7.944  0.5150 -1.3674  1.7754
   67SAPC  H15Y 5674   5.943  -0.551   8.115  0.6805  1.1263  1.3940
   67SAPC  C316 5675   6.076  -0.413   8.027  0.3251 -0.0319 -0.2359
   67SAPC  H16X 5676   6.064  -0.341   8.112  0.0546 -0.0382 -0.2667
   67SAPC  H16Y 5677   6.084  -0.353   7.934 -0.7685  2.9475  1.4874
   67SAPC  C317 5678   6.207  -0.489   8.042 -0.0240  0.0436 -0.4832
   67SAPC  H17X 5679   6.227  -0.556   7.956 -0.3767 -1.0517  0.2680
   67SAPC  H17Y 5680   6.198  -0.551   8.134  0.1738  2.9609  1.5785
   67SAPC  C318 5681   6.330  -0.394   8.053 -0.0345 -0.4854  0.2163
   67SAPC  H18X 5682   6.366  -0.358   7.954 -2.1572 -0.3908 -0.5522
   67SAPC  H18Y 5683   6.411  -0.437   8.115  1.9341  0.4709 -1.6092
   67SAPC  H18Z 5684   6.280  -0.307   8.101 -2.7618 -2.0544  0.2888
   68SAPC     N 5685   2.806   6.223   6.084  0.2982  0.4394  0.4672
   68SAPC   C12 5686   2.895   6.178   6.197  0.2686  0.4504  0.2421
   68SAPC  H12A 5687   2.880   6.260   6.265 -0.8038  0.0603  0.4848
   68SAPC  H12B 5688   2.996   6.175   6.158 -0.5097 -0.1560 -1.8119
   68SAPC   C13 5689   2.841   6.358   6.041 -0.5319  0.0469 -0.0679
   68SAPC  H13A 5690   2.773   6.411   5.975 -0.5188  0.1129 -0.0283
   68SAPC  H13B 5691   2.842   6.428   6.123 -0.4871  0.4387 -0.3991
   68SAPC  H13C 5692   2.938   6.360   5.995 -0.5318  0.5286 -0.0535
   68SAPC   C14 5693   2.825   6.126   5.979 -0.3463  0.0489  0.1356
   68SAPC  H14A 5694   2.756   6.141   5.897 -0.1685  2.1369  0.3457
   68SAPC  H14B 5695   2.925   6.131   5.939 -0.3574  0.2216  0.1279
   68SAPC  H14C 5696   2.805   6.030   6.023  0.0839  0.0641  0.3592
   68SAPC   C15 5697   2.669   6.230   6.135  0.0614  0.0048  0.7127
   68SAPC  H15A 5698   2.640   6.130   6.167 -1.6233  0.0826 -0.5143
   68SAPC  H15B 5699   2.669   6.309   6.208 -0.4138  0.5160  0.1651
   68SAPC  H15C 5700   2.601   6.257   6.055 -0.4196  3.3820  2.1729
   68SAPC   C11 5701   2.863   6.049   6.278 -0.1626  0.3666 -0.4009
   68SAPC  H11A 5702   2.756   6.055   6.308 -0.6346 -2.1841 -1.4551
   68SAPC  H11B 5703   2.926   6.044   6.369  1.0282  2.8996 -1.0419
   68SAPC     P 5704   3.011   5.868   6.160 -0.1382  0.1557  0.1443
   68SAPC   O13 5705   2.993   5.729   6.108 -0.2303 -0.0708 -0.6653
   68SAPC   O14 5706   3.077   5.956   6.062  0.2405 -0.0221 -0.3141
   68SAPC   O12 5707   2.871   5.928   6.204 -0.0276 -0.2907  0.0830
   68SAPC   O11 5708   3.085   5.871   6.297  0.3087  0.2670  0.2386
   68SAPC    C1 5709   3.222   5.839   6.309 -0.4965  0.0500 -0.6715
   68SAPC    HA 5710   3.233   5.731   6.288 -0.9516  0.6328 -4.3678
   68SAPC    HB 5711   3.282   5.897   6.236  0.3674  1.3562  1.0337
   68SAPC    C2 5712   3.262   5.869   6.456  0.0541 -0.2867 -0.3234
   68SAPC    HS 5713   3.370   5.846   6.471  0.5202  0.8623 -1.9033
   68SAPC   O21 5714   3.182   5.789   6.547 -0.3908 -0.2030  0.1351
   68SAPC   C21 5715   3.244   5.691   6.605 -0.0430  0.0820  0.0036
   68SAPC   O22 5716   3.357   5.647   6.562 -0.1757 -0.0763 -0.5931
   68SAPC   C22 5717   3.174   5.635   6.724  0.0186  0.5729 -0.6631
   68SAPC   H2R 5718   3.076   5.683   6.743 -1.3785 -1.9888 -1.1387
   68SAPC   H2S 5719   3.159   5.525   6.711  0.0338  0.4694  0.1499
   68SAPC    C3 5720   3.242   6.019   6.474 -0.2435 -0.6433 -0.2588
   68SAPC    HX 5721   3.134   6.039   6.459  0.4710  4.3867  0.2176
   68SAPC    HY 5722   3.289   6.085   6.397 -0.8341  2.1865  1.7104
   68SAPC   O31 5723   3.291   6.049   6.607 -0.0889 -0.0462  0.4098
   68SAPC   C31 5724   3.226   6.145   6.670 -0.3563 -0.4508  0.4898
   68SAPC   O32 5725   3.134   6.211   6.623 -0.4227 -0.1862  0.1819
   68SAPC   C32 5726   3.260   6.152   6.816  0.0334 -0.3565  0.8391
   68SAPC   H2X 5727   3.360   6.195   6.833 -0.2716 -0.0318  1.8431
   68SAPC   H2Y 5728   3.254   6.054   6.869 -0.6046 -2.0477 -2.2214
   68SAPC   C23 5729   3.265   5.632   6.850  0.2067  0.3259 -0.5350
   68SAPC   H3R 5730   3.303   5.733   6.875  0.4608  0.0268  0.3362
   68SAPC   H3S 5731   3.360   5.576   6.835  1.2545  1.6259  0.9483
   68SAPC   C24 5732   3.200   5.573   6.975  0.4722 -0.7662  0.0351
   68SAPC   H4R 5733   3.137   5.483   6.955  0.3845 -0.3714 -1.4883
   68SAPC   H4S 5734   3.119   5.643   7.003  0.7085 -1.1670  1.8216
   68SAPC   C25 5735   3.286   5.552   7.091 -0.6196  0.0924 -0.4652
   68SAPC   H5R 5736   3.391   5.533   7.066 -0.9165 -1.4676 -0.5761
   68SAPC   C26 5737   3.246   5.551   7.218 -0.5428  0.8805  0.3520
   68SAPC   H6R 5738   3.328   5.555   7.291 -0.2995 -1.9018  0.2514
   68SAPC   C27 5739   3.114   5.574   7.294 -0.3397  0.5188  0.3000
   68SAPC   H7R 5740   3.027   5.597   7.229 -0.8888  0.2950  0.9480
   68SAPC   H7S 5741   3.135   5.671   7.345  3.2565  0.5902 -1.1556
   68SAPC   C28 5742   3.068   5.474   7.400  0.7161 -0.2314 -1.0050
   68SAPC   H8R 5743   3.032   5.375   7.368  0.3290 -0.5841  0.4660
   68SAPC   C29 5744   3.056   5.498   7.535 -0.1294  0.6164  0.6747
   68SAPC   H9R 5745   3.026   5.418   7.604 -2.2158  1.5787  0.9308
   68SAPC  C210 5746   3.083   5.631   7.598  0.4812 -0.5611  0.1269
   68SAPC  H10R 5747   3.040   5.627   7.700 -1.3586 -0.1098 -0.6173
   68SAPC  H10S 5748   3.032   5.710   7.540  0.5435 -0.8285 -0.2937
   68SAPC  C211 5749   3.235   5.658   7.591 -0.0116 -0.2272  0.0908
   68SAPC  H11R 5750   3.268   5.669   7.486 -1.8765  0.2435 -0.4780
   68SAPC  C212 5751   3.327   5.676   7.687  0.6729 -0.1742  0.6652
   68SAPC  H12R 5752   3.426   5.714   7.662  0.3712 -0.0756 -0.3825
   68SAPC  C213 5753   3.312   5.667   7.841 -0.6163 -0.2180  0.0476
   68SAPC  H13R 5754   3.415   5.652   7.879 -0.6163 -0.0369  0.1179
   68SAPC  H13S 5755   3.252   5.580   7.875  2.3758 -2.4089 -0.0982
   68SAPC  C214 5756   3.249   5.794   7.901  0.2209 -0.3529  0.1133
   68SAPC  H14R 5757   3.248   5.887   7.842  2.4490 -1.1312 -1.2315
   68SAPC  C215 5758   3.199   5.797   8.024  0.0182 -0.5973  0.5219
   68SAPC  H15R 5759   3.163   5.889   8.072 -1.0053 -1.3748  1.2731
   68SAPC  C216 5760   3.184   5.689   8.124 -0.5815 -0.1772 -0.1213
   68SAPC  H16R 5761   3.199   5.716   8.230  1.3876  1.1914 -0.7126
   68SAPC  H16S 5762   3.244   5.601   8.092  1.5253  1.2527 -0.2457
   68SAPC  C217 5763   3.042   5.632   8.131  0.4280  0.7530 -0.2690
   68SAPC  H17R 5764   3.002   5.602   8.032 -0.6509 -0.3175  0.4757
   68SAPC  H17S 5765   2.977   5.712   8.174 -0.3000  2.2863 -4.0063
   68SAPC  C218 5766   3.038   5.508   8.217  0.0235 -0.8508  0.7794
   68SAPC  H18R 5767   3.086   5.533   8.314 -0.7278 -0.1961  0.9834
   68SAPC  H18S 5768   3.098   5.425   8.173  0.9625  1.8772 -3.3735
   68SAPC  C219 5769   2.900   5.445   8.241  0.5562 -0.2056 -0.0933
   68SAPC  H19R 5770   2.874   5.400   8.143  1.8339 -1.2717  0.0369
   68SAPC  H19S 5771   2.822   5.522   8.263  0.2010 -0.5858 -0.0175
   68SAPC  C220 5772   2.903   5.334   8.341  0.0323 -0.0339 -0.9460
   68SAPC  H20R 5773   2.813   5.275   8.313 -0.8519  0.7266  0.2540
   68SAPC  H20S 5774   2.891   5.376   8.443  1.3395 -0.0624 -0.7709
   68SAPC  H20T 5775   2.998   5.276   8.344  1.1910  1.8288 -1.0631
   68SAPC   C33 5776   3.172   6.256   6.899  0.5992  0.0669 -0.2167
   68SAPC   H3X 5777   3.066   6.223   6.912  1.1416 -1.5892  0.1997
   68SAPC   H3Y 5778   3.175   6.356   6.850 -0.6426  0.2072 -0.0143
   68SAPC   C34 5779   3.225   6.291   7.037 -0.0319  0.8886 -0.0083
   68SAPC   H4X 5780   3.332   6.319   7.023 -0.3753  1.7298 -1.0374
   68SAPC   H4Y 5781   3.217   6.203   7.104 -1.6892  1.2156  0.2413
   68SAPC   C35 5782   3.153   6.414   7.097  0.0704  0.5621 -0.1112
   68SAPC   H5X 5783   3.067   6.363   7.145  0.0444 -0.3321 -1.0915
   68SAPC   H5Y 5784   3.122   6.488   7.020  1.3570 -1.1756 -2.3645
   68SAPC   C36 5785   3.243   6.480   7.204  0.0299  0.0792 -0.3629
   68SAPC   H6X 5786   3.176   6.556   7.249 -1.2922 -2.2515  1.7509
   68SAPC   H6Y 5787   3.331   6.527   7.155 -0.8248 -1.0510 -3.0783
   68SAPC   C37 5788   3.293   6.386   7.315  0.3629 -0.8709 -0.6836
   68SAPC   H7X 5789   3.353   6.299   7.282 -0.1685 -2.2213  1.8368
   68SAPC   H7Y 5790   3.208   6.331   7.359 -0.0689 -0.6096 -1.1807
   68SAPC   C38 5791   3.372   6.472   7.414  0.3763  1.0035  0.2894
   68SAPC   H8X 5792   3.459   6.522   7.365  0.8349 -1.1976 -1.2419
   68SAPC   H8Y 5793   3.418   6.399   7.483  0.8289  1.4438  0.4569
   68SAPC   C39 5794   3.285   6.575   7.489 -0.6565  0.2272  0.8150
   68SAPC   H9X 5795   3.203   6.508   7.523  1.4541 -1.5526  2.6103
   68SAPC   H9Y 5796   3.259   6.655   7.417  0.2533  0.8122  1.1212
   68SAPC  C310 5797   3.351   6.630   7.617  0.4553 -0.5764 -0.3275
   68SAPC  H10X 5798   3.441   6.686   7.581 -0.8951  1.2582 -0.9304
   68SAPC  H10Y 5799   3.383   6.537   7.669 -2.6657 -1.8090 -0.4930
   68SAPC  C311 5800   3.268   6.706   7.720  0.7901 -0.4013  0.0033
   68SAPC  H11X 5801   3.192   6.629   7.745  0.0892  1.0388  2.4188
   68SAPC  H11Y 5802   3.220   6.795   7.674  0.1748  0.3625  2.0878
   68SAPC  C312 5803   3.352   6.752   7.841  0.0552  0.5355  0.0100
   68SAPC  H12X 5804   3.401   6.851   7.826  1.5477 -0.1145  0.6392
   68SAPC  H12Y 5805   3.447   6.696   7.833 -0.1699  0.4782 -2.9833
   68SAPC  C313 5806   3.279   6.734   7.973  0.4807 -0.0573 -0.8227
   68SAPC  H13X 5807   3.233   6.634   7.984 -0.9440  0.8450  1.8913
   68SAPC  H13Y 5808   3.199   6.811   7.972  0.0761 -0.4764 -2.5020
   68SAPC  C314 5809   3.370   6.757   8.094  1.0872 -0.1138  0.3931
   68SAPC  H14X 5810   3.438   6.844   8.081  2.0250 -0.6771  1.4502
   68SAPC  H14Y 5811   3.441   6.672   8.097 -1.0874 -1.9410  1.6902
   68SAPC  C315 5812   3.288   6.781   8.218 -0.1452 -0.7730 -0.4693
   68SAPC  H15X 5813   3.212   6.703   8.238  0.5115 -0.5195  3.4975
   68SAPC  H15Y 5814   3.232   6.874   8.195 -2.1876 -2.1968 -1.4225
   68SAPC  C316 5815   3.372   6.779   8.343  0.3647 -0.3397 -0.0498
   68SAPC  H16X 5816   3.458   6.849   8.351 -0.2605  0.4965 -0.5816
   68SAPC  H16Y 5817   3.419   6.680   8.359  0.8552 -0.2944 -1.1851
   68SAPC  C317 5818   3.276   6.814   8.461  0.2880  0.5471 -0.1830
   68SAPC  H17X 5819   3.227   6.913   8.454 -0.5396  0.2095  0.6893
   68SAPC  H17Y 5820   3.346   6.816   8.547 -2.1410  1.6933  1.8339
   68SAPC  C318 5821   3.159   6.718   8.500 -1.0243 -0.5493 -0.3042
   68SAPC  H18X 5822   3.121   6.745   8.600  1.8397 -0.2983  0.7589
   68SAPC  H18Y 5823   3.201   6.615   8.508 -1.4111 -0.7094 -0.3262
   68SAPC  H18Z 5824   3.076   6.709   8.426 -0.9276 -2.6703 -0.1885
   69SLPC     N 5825   0.844   4.691  10.838 -0.4538 -0.5614  0.1849
   69SLPC   C13 5826   0.906   4.738  10.708  0.2115 -0.0629  0.5304
   69SLPC  H13A 5827   0.986   4.810  10.719  0.8762 -1.1721  3.5537
   69SLPC  H13B 5828   0.948   4.658  10.649  1.5816  1.3519 -0.4423
   69SLPC  H13C 5829   0.827   4.775  10.645  1.2556  0.5971 -0.3938
   69SLPC   C14 5830   0.772   4.808  10.896  0.2220  0.8771  0.5875
   69SLPC  H14A 5831   0.842   4.887  10.917 -1.3550  2.3873  0.3074
   69SLPC  H14B 5832   0.694   4.852  10.835  1.6548  1.0693 -1.1294
   69SLPC  H14C 5833   0.737   4.786  10.996  0.5801 -1.1984  0.2720
   69SLPC   C15 5834   0.958   4.658  10.934 -0.0091 -0.3107  0.9209
   69SLPC  H15A 5835   1.030   4.598  10.882  1.9599  0.6348  2.4764
   69SLPC  H15B 5836   1.000   4.757  10.941 -0.0636 -0.1112 -1.2380
   69SLPC  H15C 5837   0.923   4.621  11.029 -3.2290 -2.9721 -1.2026
   69SLPC   C12 5838   0.741   4.578  10.829 -0.7195  0.3814  0.0108
   69SLPC  H12A 5839   0.676   4.605  10.747 -2.1117 -0.2265  0.8881
   69SLPC  H12B 5840   0.679   4.572  10.917  0.0350 -1.7766  0.4125
   69SLPC   C11 5841   0.791   4.434  10.824 -0.1818  0.2622 -0.0037
   69SLPC  H11A 5842   0.852   4.434  10.731 -2.8030 -1.1174 -1.8032
   69SLPC  H11B 5843   0.707   4.363  10.808 -0.0739 -0.3408  2.0217
   69SLPC     P 5844   0.786   4.312  11.057 -0.2238 -0.4124  0.1285
   69SLPC   O13 5845   0.887   4.273  11.162  0.2489  0.2698 -0.1360
   69SLPC   O14 5846   0.664   4.387  11.098  0.3517  1.1348  0.2022
   69SLPC   O12 5847   0.860   4.391  10.943 -0.0728 -0.4727 -0.4959
   69SLPC   O11 5848   0.740   4.179  10.989 -0.6575  0.4932  0.0211
   69SLPC    C1 5849   0.818   4.067  10.943  0.0796 -0.1178 -0.3188
   69SLPC    HA 5850   0.922   4.066  10.982 -0.6258 -0.7197  1.5773
   69SLPC    HB 5851   0.759   3.981  10.981  0.3831  0.4663  1.5057
   69SLPC    C2 5852   0.833   4.066  10.794  0.0574  0.2939  0.3300
   69SLPC    HS 5853   0.870   4.167  10.767 -1.8283  0.6970 -0.7998
   69SLPC   O21 5854   0.705   4.040  10.734 -0.1669  0.2159 -0.5507
   69SLPC   C21 5855   0.673   4.118  10.637  1.1553 -0.5571  0.2685
   69SLPC   O22 5856   0.743   4.207  10.586 -0.2392  0.4274 -0.1202
   69SLPC   C22 5857   0.534   4.084  10.575  0.7730 -0.1424 -0.3645
   69SLPC   H2R 5858   0.474   4.038  10.656  1.1553  0.0044  0.0033
   69SLPC   H2S 5859   0.488   4.178  10.539  0.1686 -0.7049 -1.0753
   69SLPC    C3 5860   0.946   3.965  10.755 -0.5569  0.4521  0.4770
   69SLPC    HX 5861   0.918   3.863  10.790  1.0101  0.9202  3.2333
   69SLPC    HY 5862   1.040   3.994  10.808  0.1287  0.6834 -0.8494
   69SLPC   O31 5863   0.970   3.979  10.614  0.2624 -0.4437  0.5562
   69SLPC   C31 5864   1.049   4.081  10.578 -0.0930  0.1320 -0.0095
   69SLPC   O32 5865   1.106   4.147  10.659  1.0583 -0.3995 -0.0916
   69SLPC   C32 5866   1.045   4.107  10.428  0.2495 -0.3929 -0.6389
   69SLPC   H2X 5867   0.937   4.114  10.403  0.2085  1.2112 -0.0426
   69SLPC   H2Y 5868   1.081   4.019  10.370 -2.0146 -1.2879 -0.7547
   69SLPC   C23 5869   0.545   3.972  10.470 -0.1616 -0.6414  0.0833
   69SLPC   H3R 5870   0.470   3.895  10.497 -1.2689 -0.3203 -1.9739
   69SLPC   H3S 5871   0.644   3.925  10.488 -1.2873 -2.0370  2.8881
   69SLPC   C24 5872   0.525   4.023  10.327  0.3543  0.7009 -0.1148
   69SLPC   H4R 5873   0.427   4.074  10.326 -0.7754 -1.4278 -0.8430
   69SLPC   H4S 5874   0.533   3.936  10.258 -0.9913  0.7847 -0.3820
   69SLPC   C25 5875   0.630   4.120  10.281  0.1212  0.4395 -0.7847
   69SLPC   H5R 5876   0.732   4.092  10.314  0.4361 -0.5468 -2.5475
   69SLPC   H5S 5877   0.618   4.218  10.332 -0.4196 -0.3250  0.5630
   69SLPC   C26 5878   0.628   4.148  10.136 -0.2792  0.4283 -0.0612
   69SLPC   H6R 5879   0.715   4.216  10.121 -1.4887  2.1773  0.7067
   69SLPC   H6S 5880   0.538   4.202  10.102 -0.1261  0.1357 -0.9419
   69SLPC   C27 5881   0.652   4.031  10.038  0.2328  0.1588  0.4042
   69SLPC   H7R 5882   0.559   3.976  10.012  0.0626  0.7433 -0.2386
   69SLPC   H7S 5883   0.724   3.962  10.086 -1.1281 -2.1521 -0.8090
   69SLPC   C28 5884   0.744   4.077   9.926  0.3282  0.0710  0.2638
   69SLPC   H8R 5885   0.753   3.979   9.875 -2.0839  0.9499 -1.9502
   69SLPC   H8S 5886   0.839   4.099   9.980  1.1757 -0.2476 -1.0628
   69SLPC   C29 5887   0.690   4.188   9.839 -0.0771  0.6562 -0.2977
   69SLPC   H9R 5888   0.665   4.279   9.896 -1.7146 -0.7681  1.3073
   69SLPC  C210 5889   0.687   4.184   9.705 -0.5803  0.1370  0.4589
   69SLPC  H10R 5890   0.653   4.275   9.653 -0.3383 -0.3617 -0.5805
   69SLPC  C211 5891   0.743   4.079   9.616  0.5616  0.3000 -0.2556
   69SLPC  H11R 5892   0.675   4.059   9.530  1.2209 -4.4833  0.1986
   69SLPC  H11S 5893   0.759   3.975   9.652 -0.5155 -0.3204 -1.5200
   69SLPC  C212 5894   0.868   4.135   9.552 -0.5774 -0.5825  0.2157
   69SLPC  H12R 5895   0.909   4.228   9.593  1.5620  0.2227 -3.5158
   69SLPC  C213 5896   0.937   4.059   9.469 -1.0111 -0.2280 -0.2776
   69SLPC  H13R 5897   1.022   4.110   9.422  0.5958 -0.2644  2.4495
   69SLPC  C214 5898   0.895   3.930   9.401  0.5283 -0.3844 -0.8889
   69SLPC  H14R 5899   0.806   3.882   9.448  0.5905 -0.3839 -0.7680
   69SLPC  H14S 5900   0.982   3.862   9.418 -0.2381 -0.2746  4.2153
   69SLPC  C215 5901   0.890   3.934   9.250 -0.1683 -0.2270  0.3895
   69SLPC  H15R 5902   0.867   3.834   9.208 -1.2195 -0.3576  1.2629
   69SLPC  H15S 5903   0.994   3.951   9.212 -0.2948  0.3905  0.3199
   69SLPC  C216 5904   0.807   4.053   9.190 -0.0892 -0.2639  0.3256
   69SLPC  H16R 5905   0.836   4.153   9.229 -1.4079  0.9243 -1.6853
   69SLPC  H16S 5906   0.700   4.035   9.213  0.2465 -0.8918  1.4779
   69SLPC  C217 5907   0.836   4.047   9.035  0.7053  0.0536 -0.7351
   69SLPC  H17R 5908   0.789   3.956   8.994 -2.4189  0.8090  1.0368
   69SLPC  H17S 5909   0.945   4.045   9.013  1.2362 -2.9647  1.9022
   69SLPC  C218 5910   0.792   4.178   8.961  0.0789 -0.4564  0.1036
   69SLPC  H18R 5911   0.845   4.269   8.997 -1.9284  1.5088 -1.7632
   69SLPC  H18S 5912   0.684   4.203   8.973  0.5492  2.0957 -0.6834
   69SLPC  H18T 5913   0.796   4.161   8.851 -0.5541  1.2660 -0.1986
   69SLPC   C33 5914   1.124   4.232  10.405 -0.2642 -1.0934 -0.3936
   69SLPC   H3X 5915   1.230   4.198  10.408 -0.2605 -0.9876  0.6633
   69SLPC   H3Y 5916   1.092   4.307  10.480  1.9677 -0.2380 -0.2622
   69SLPC   C34 5917   1.099   4.293  10.266 -0.0167 -0.2930  0.1367
   69SLPC   H4X 5918   1.162   4.383  10.251 -1.6511  0.8090 -0.2897
   69SLPC   H4Y 5919   0.997   4.336  10.260 -0.5604 -1.2584  2.0898
   69SLPC   C35 5920   1.107   4.200  10.134  0.1514  0.4107  0.6278
   69SLPC   H5X 5921   1.028   4.122  10.140 -1.9007  2.3359 -0.5259
   69SLPC   H5Y 5922   1.202   4.143  10.141 -0.1565  0.0220  1.9081
   69SLPC   C36 5923   1.090   4.273  10.003  0.1855 -0.2050 -0.4414
   69SLPC   H6X 5924   1.165   4.355  10.006 -0.3699  0.3436 -1.5144
   69SLPC   H6Y 5925   0.991   4.322   9.993  0.2885 -0.1049 -0.9476
   69SLPC   C37 5926   1.119   4.197   9.872 -0.2214 -0.0649 -0.3222
   69SLPC   H7X 5927   1.102   4.269   9.788 -0.8454 -0.9461 -0.9650
   69SLPC   H7Y 5928   1.051   4.110   9.858  0.2445 -0.4102 -0.4321
   69SLPC   C38 5929   1.267   4.148   9.866  0.0058  0.1309 -0.3427
   69SLPC   H8X 5930   1.299   4.075   9.943  1.1637 -0.0888 -1.0068
   69SLPC   H8Y 5931   1.330   4.240   9.866  0.9854 -0.5312 -0.2375
   69SLPC   C39 5932   1.285   4.066   9.738  0.2772  0.6120  0.8665
   69SLPC   H9X 5933   1.212   3.984   9.730  0.0595  1.0349 -1.8177
   69SLPC   H9Y 5934   1.389   4.026   9.735 -0.8546 -2.2932 -1.3128
   69SLPC  C310 5935   1.271   4.157   9.609  0.1595 -0.1098 -0.5045
   69SLPC  H10X 5936   1.326   4.252   9.627 -0.3605  0.3920 -1.5102
   69SLPC  H10Y 5937   1.163   4.180   9.603 -0.0682 -1.2796 -1.0528
   69SLPC  C311 5938   1.318   4.085   9.476  1.2458 -0.5387 -0.9100
   69SLPC  H11X 5939   1.237   4.009   9.467 -1.0609  2.0311 -2.7934
   69SLPC  H11Y 5940   1.420   4.050   9.504  1.0135 -1.7075 -1.5027
   69SLPC  C312 5941   1.320   4.181   9.357 -0.3741 -0.9517  0.4649
   69SLPC  H12X 5942   1.408   4.249   9.368 -0.8404 -0.2230 -0.2071
   69SLPC  H12Y 5943   1.233   4.249   9.372  0.5436  0.8377 -1.8679
   69SLPC  C313 5944   1.308   4.110   9.220 -0.2164 -0.2761  0.6864
   69SLPC  H13X 5945   1.206   4.067   9.216 -1.0260  1.7162 -0.9702
   69SLPC  H13Y 5946   1.385   4.030   9.216  2.8365  2.6292 -0.8276
   69SLPC  C314 5947   1.316   4.222   9.106 -0.1075 -0.3110 -0.4140
   69SLPC  H14X 5948   1.409   4.279   9.127  0.2437 -1.7014  2.0595
   69SLPC  H14Y 5949   1.228   4.289   9.114  0.3402  0.0241  2.3720
   69SLPC  C315 5950   1.306   4.168   8.967 -0.2351 -0.4839 -0.2640
   69SLPC  H15X 5951   1.222   4.096   8.954 -0.1729 -0.2358 -2.1435
   69SLPC  H15Y 5952   1.389   4.103   8.933  0.3138  0.0684  0.0199
   69SLPC  C316 5953   1.296   4.273   8.854 -0.6553 -0.5911  0.0323
   69SLPC  H16X 5954   1.382   4.343   8.858 -0.9498 -0.0189 -2.9608
   69SLPC  H16Y 5955   1.202   4.331   8.864 -0.2405  0.0281  0.4138
   69SLPC  C317 5956   1.289   4.202   8.720 -0.9752 -0.1654 -0.0678
   69SLPC  H17X 5957   1.194   4.145   8.706 -0.4844 -0.7491 -1.1198
   69SLPC  H17Y 5958   1.372   4.128   8.712  0.1796  1.1592 -0.6308
   69SLPC  C318 5959   1.308   4.301   8.604  0.0647 -0.4529 -0.2816
   69SLPC  H18X 5960   1.292   4.260   8.502 -0.6917 -1.6877  0.3313
   69SLPC  H18Y 5961   1.409   4.346   8.590  1.7215 -4.4118 -1.6567
   69SLPC  H18Z 5962   1.241   4.389   8.619 -0.5250 -0.8263 -0.6805
   70SLPC     N 5963   1.343   1.590  11.331  0.5741 -0.4731 -0.1766
   70SLPC   C13 5964   1.443   1.588  11.446 -0.4009 -0.9624  0.1972
   70SLPC  H13A 5965   1.405   1.543  11.537  1.8833 -1.6195  0.8388
   70SLPC  H13B 5966   1.531   1.533  11.417  0.6861  1.1997 -0.7549
   70SLPC  H13C 5967   1.473   1.689  11.471  3.3911 -1.9504 -0.2019
   70SLPC   C14 5968   1.206   1.650  11.374  0.1020 -0.4864 -0.4078
   70SLPC  H14A 5969   1.217   1.740  11.434 -2.8173  0.2479 -0.8815
   70SLPC  H14B 5970   1.149   1.659  11.283  1.6602 -0.8019 -1.4377
   70SLPC  H14C 5971   1.152   1.579  11.435 -0.9848 -0.3891 -1.2455
   70SLPC   C15 5972   1.320   1.448  11.299  0.5911  0.4488 -0.3708
   70SLPC  H15A 5973   1.262   1.440  11.208  1.4508 -0.4892 -0.8524
   70SLPC  H15B 5974   1.413   1.403  11.268  0.1435 -0.1065 -0.9123
   70SLPC  H15C 5975   1.276   1.390  11.379 -1.7857  2.1214 -0.4084
   70SLPC   C12 5976   1.404   1.659  11.211  0.2619 -0.2820  0.6924
   70SLPC  H12A 5977   1.496   1.605  11.199  0.1509 -0.4401  0.5568
   70SLPC  H12B 5978   1.430   1.761  11.234 -2.2990  0.3504  0.9953
   70SLPC   C11 5979   1.323   1.657  11.075  0.5211  0.0957 -0.3265
   70SLPC  H11A 5980   1.386   1.723  11.013 -2.2358  2.2615 -0.9241
   70SLPC  H11B 5981   1.226   1.704  11.101  0.2086 -2.0925  2.6999
   70SLPC     P 5982   1.435   1.451  10.956 -0.0983  0.2560  0.0271
   70SLPC   O13 5983   1.545   1.464  11.052  0.1036 -0.7264 -0.0110
   70SLPC   O14 5984   1.399   1.311  10.913  0.0694  0.0360  0.1952
   70SLPC   O12 5985   1.310   1.519  11.021 -0.0383 -0.2188 -0.5358
   70SLPC   O11 5986   1.462   1.543  10.834  0.4328  0.3351 -0.0503
   70SLPC    C1 5987   1.351   1.576  10.742 -0.2961 -0.3028  0.1709
   70SLPC    HA 5988   1.252   1.593  10.790 -1.0256  1.4036 -1.8904
   70SLPC    HB 5989   1.368   1.679  10.704 -0.9701 -0.3406 -0.2474
   70SLPC    C2 5990   1.346   1.491  10.616  0.2474 -0.1620 -0.0401
   70SLPC    HS 5991   1.353   1.384  10.646 -0.3160  0.1639  1.2934
   70SLPC   O21 5992   1.452   1.540  10.530  0.2158 -0.8120  0.9270
   70SLPC   C21 5993   1.496   1.459  10.439  0.3502  0.1606 -0.2201
   70SLPC   O22 5994   1.453   1.346  10.420  0.0066 -0.3722 -0.1848
   70SLPC   C22 5995   1.619   1.513  10.374 -0.0364 -0.0258  0.1126
   70SLPC   H2R 5996   1.626   1.624  10.370  0.6879 -0.0023  1.8697
   70SLPC   H2S 5997   1.698   1.494  10.449  0.7242 -1.3462 -0.9822
   70SLPC    C3 5998   1.210   1.502  10.536  0.2224 -0.3192  0.8858
   70SLPC    HX 5999   1.123   1.476  10.601  1.0002  1.3129  2.6442
   70SLPC    HY 6000   1.208   1.429  10.452 -1.4004  1.8023 -0.9646
   70SLPC   O31 6001   1.174   1.636  10.495  0.5368  0.1586  0.5603
   70SLPC   C31 6002   1.215   1.685  10.378  0.0535  0.0707  0.4956
   70SLPC   O32 6003   1.294   1.631  10.303  0.0972 -0.3848 -0.1358
   70SLPC   C32 6004   1.163   1.821  10.363  0.0451  0.0596 -0.4039
   70SLPC   H2X 6005   1.219   1.856  10.273 -1.2762 -0.4955 -1.4651
   70SLPC   H2Y 6006   1.180   1.878  10.456  0.1285  1.1140 -1.0616
   70SLPC   C23 6007   1.660   1.437  10.246  0.6727  0.4675 -0.8415
   70SLPC   H3R 6008   1.628   1.331  10.253  0.5906  0.5152 -0.4668
   70SLPC   H3S 6009   1.769   1.431  10.228  0.8143 -2.4325  0.8085
   70SLPC   C24 6010   1.605   1.495  10.115 -0.3080  0.5138  0.2765
   70SLPC   H4R 6011   1.636   1.602  10.119 -1.1237  0.7978 -0.8067
   70SLPC   H4S 6012   1.494   1.496  10.114 -0.3119  0.0328 -0.5217
   70SLPC   C25 6013   1.651   1.421   9.985 -0.4551 -0.2159  0.3920
   70SLPC   H5R 6014   1.605   1.322   9.968 -2.2446  0.6471  0.0137
   70SLPC   H5S 6015   1.762   1.411   9.989 -0.4421 -0.7217 -1.0108
   70SLPC   C26 6016   1.606   1.493   9.857 -1.0054 -0.8260  0.3328
   70SLPC   H6R 6017   1.640   1.597   9.839  2.2190 -2.1456 -1.6663
   70SLPC   H6S 6018   1.496   1.505   9.859 -0.7722  1.2949  1.6609
   70SLPC   C27 6019   1.652   1.410   9.740  0.7267  0.0981  0.6987
   70SLPC   H7R 6020   1.585   1.322   9.732 -2.1818  2.3229 -0.0518
   70SLPC   H7S 6021   1.752   1.364   9.757  1.3814  0.8812 -0.9077
   70SLPC   C28 6022   1.660   1.476   9.607  0.9184 -0.2367  0.1268
   70SLPC   H8R 6023   1.693   1.402   9.531  0.1106  0.0228 -0.4801
   70SLPC   H8S 6024   1.736   1.556   9.607  2.1515 -1.3642  1.7083
   70SLPC   C29 6025   1.520   1.533   9.563  0.4736 -0.2163  0.5008
   70SLPC   H9R 6026   1.455   1.565   9.645 -0.9952 -1.0921 -0.2892
   70SLPC  C210 6027   1.482   1.556   9.440 -0.2046 -0.4806 -0.1430
   70SLPC  H10R 6028   1.382   1.600   9.429 -1.3185 -3.0190 -0.2821
   70SLPC  C211 6029   1.549   1.524   9.313 -0.4392  0.0337  0.1662
   70SLPC  H11R 6030   1.477   1.466   9.252  2.0074 -1.4880 -1.3721
   70SLPC  H11S 6031   1.628   1.446   9.318 -0.8583 -0.4429 -0.5745
   70SLPC  C212 6032   1.612   1.649   9.258 -0.9915  0.9623 -0.0385
   70SLPC  H12R 6033   1.678   1.692   9.335  2.7333 -1.8872 -1.4813
   70SLPC  C213 6034   1.587   1.707   9.136 -0.3184  0.0417  0.3123
   70SLPC  H13R 6035   1.633   1.806   9.121  0.2263 -0.2055  0.3366
   70SLPC  C214 6036   1.504   1.647   9.023  0.6044 -0.2715  0.7046
   70SLPC  H14R 6037   1.534   1.541   9.007  1.5242  0.3428 -1.8072
   70SLPC  H14S 6038   1.530   1.699   8.929  0.8978 -1.2400  0.2430
   70SLPC  C215 6039   1.356   1.642   9.059 -0.4270  0.3126  0.3989
   70SLPC  H15R 6040   1.328   1.597   9.157  0.0075  0.3957  0.5648
   70SLPC  H15S 6041   1.306   1.575   8.985  0.2599  2.5933 -2.2147
   70SLPC  C216 6042   1.274   1.770   9.032 -0.2636  0.1141  0.4344
   70SLPC  H16R 6043   1.322   1.826   8.949  0.0612 -0.5555  0.1698
   70SLPC  H16S 6044   1.282   1.830   9.126  1.4698 -0.2969  0.5608
   70SLPC  C217 6045   1.118   1.732   9.001  0.0040  0.5200 -0.1977
   70SLPC  H17R 6046   1.058   1.675   9.074 -0.4564  1.2141 -0.0314
   70SLPC  H17S 6047   1.122   1.667   8.911  1.3097  1.5057 -0.8700
   70SLPC  C218 6048   1.034   1.857   8.955 -0.2910  0.4388 -0.4800
   70SLPC  H18R 6049   1.088   1.905   8.871  2.5939  0.1121  1.1289
   70SLPC  H18S 6050   1.018   1.935   9.032  1.3711  0.3407 -0.0202
   70SLPC  H18T 6051   0.929   1.827   8.934 -0.4466 -0.0379  0.8830
   70SLPC   C33 6052   1.016   1.813  10.321 -0.1411  0.1679  0.1360
   70SLPC   H3X 6053   0.987   1.920  10.307  1.3706  0.4732 -0.8365
   70SLPC   H3Y 6054   0.944   1.776  10.396 -0.8256 -0.2384 -0.7122
   70SLPC   C34 6055   0.988   1.746  10.187  0.4189 -0.0330 -0.7434
   70SLPC   H4X 6056   0.961   1.641  10.211 -0.2857  0.4268  0.4714
   70SLPC   H4Y 6057   1.081   1.739  10.127 -0.3447 -0.9998 -1.8583
   70SLPC   C35 6058   0.867   1.796  10.099  0.0053 -0.0550 -0.5990
   70SLPC   H5X 6059   0.876   1.904  10.075  0.3122  0.0483 -0.0149
   70SLPC   H5Y 6060   0.777   1.790  10.163 -0.2241  1.3952 -0.7600
   70SLPC   C36 6061   0.860   1.719   9.969 -0.2677  0.2896 -0.8770
   70SLPC   H6X 6062   0.832   1.613   9.989 -0.4409  0.4468 -0.2834
   70SLPC   H6Y 6063   0.960   1.728   9.921  0.4648  0.2189  0.5882
   70SLPC   C37 6064   0.765   1.769   9.863  0.6527 -0.0515  0.1775
   70SLPC   H7X 6065   0.789   1.876   9.850  2.0473 -0.5329 -1.4012
   70SLPC   H7Y 6066   0.658   1.750   9.884  1.0210 -2.6541 -0.1089
   70SLPC   C38 6067   0.794   1.701   9.731 -0.1127  0.2455  0.1004
   70SLPC   H8X 6068   0.789   1.590   9.734 -2.0576  0.3469  2.0527
   70SLPC   H8Y 6069   0.897   1.728   9.698 -0.7396  1.8799 -0.5960
   70SLPC   C39 6070   0.705   1.758   9.616  0.0913 -0.0809  0.4828
   70SLPC   H9X 6071   0.765   1.758   9.522 -1.1741 -3.1876 -0.3632
   70SLPC   H9Y 6072   0.687   1.864   9.646 -3.1277 -1.1349  2.5259
   70SLPC  C310 6073   0.579   1.678   9.583 -0.9000  0.2365 -0.5433
   70SLPC  H10X 6074   0.509   1.715   9.661  0.0572  0.6230  0.1407
   70SLPC  H10Y 6075   0.582   1.570   9.608  1.0091 -0.3253 -2.9804
   70SLPC  C311 6076   0.510   1.713   9.456 -0.1533  0.0736  0.6949
   70SLPC  H11X 6077   0.573   1.686   9.368 -0.9198  0.3083  0.0688
   70SLPC  H11Y 6078   0.488   1.822   9.458 -1.1150 -0.1225  0.7053
   70SLPC  C312 6079   0.377   1.632   9.446  0.3181 -0.5182 -0.1932
   70SLPC  H12X 6080   0.313   1.685   9.520  1.4589  0.0942  0.3642
   70SLPC  H12Y 6081   0.392   1.527   9.477  0.5412  0.7248  4.1750
   70SLPC  C313 6082   0.312   1.628   9.304  0.7138  0.0160 -0.3986
   70SLPC  H13X 6083   0.300   1.735   9.277 -1.0332 -0.4582 -1.6244
   70SLPC  H13Y 6084   0.207   1.591   9.296 -0.0508  1.6783  1.6580
   70SLPC  C314 6085   0.400   1.563   9.205 -0.5049  0.1455 -0.2778
   70SLPC  H14X 6086   0.418   1.470   9.263  2.9519  1.3417  0.6888
   70SLPC  H14Y 6087   0.492   1.625   9.192  0.0086 -0.1332  1.8113
   70SLPC  C315 6088   0.330   1.555   9.074 -0.1360  0.4513  0.0806
   70SLPC  H15X 6089   0.284   1.651   9.041 -0.6838  0.9307  2.1455
   70SLPC  H15Y 6090   0.246   1.484   9.089  1.4767 -1.2673  1.1446
   70SLPC  C316 6091   0.419   1.503   8.961  0.2343  0.2318 -0.8236
   70SLPC  H16X 6092   0.361   1.518   8.868  2.6835  0.9650 -2.2930
   70SLPC  H16Y 6093   0.444   1.397   8.985  1.3913  0.1720 -2.2086
   70SLPC  C317 6094   0.553   1.573   8.935 -0.0332 -0.2539  0.5940
   70SLPC  H17X 6095   0.595   1.532   8.840  0.2115 -1.6221  1.2815
   70SLPC  H17Y 6096   0.616   1.563   9.026 -0.3391 -2.1103  0.6205
   70SLPC  C318 6097   0.540   1.728   8.913 -0.2486 -0.0956  0.3932
   70SLPC  H18X 6098   0.490   1.762   9.005 -0.0211  0.4978  0.2997
   70SLPC  H18Y 6099   0.473   1.745   8.826  0.8801 -1.9001 -0.8676
   70SLPC  H18Z 6100   0.637   1.778   8.890  0.1207 -0.8258  0.3638
   71SLPC     N 6101   1.466   0.005  10.626  0.5234  0.3193 -0.0447
   71SLPC   C13 6102   1.346  -0.070  10.680 -0.2431 -0.2773  0.1170
   71SLPC  H13A 6103   1.277  -0.067  10.597  0.9179  2.1153 -0.8319
   71SLPC  H13B 6104   1.376  -0.171  10.704 -1.2937 -0.5430  0.3374
   71SLPC  H13C 6105   1.311  -0.009  10.762 -2.1651 -2.1831  0.7419
   71SLPC   C14 6106   1.508  -0.051  10.496 -0.5038 -0.5976  0.0862
   71SLPC  H14A 6107   1.558  -0.145  10.513 -2.3537 -1.2897  1.9516
   71SLPC  H14B 6108   1.429  -0.063  10.423 -0.9218  0.0888  0.4184
   71SLPC  H14C 6109   1.588   0.007  10.452  0.2964 -0.9918  1.0060
   71SLPC   C15 6110   1.577  -0.004  10.728 -0.3707 -0.0394  0.2778
   71SLPC  H15A 6111   1.593  -0.106  10.757  0.1230  0.2905  1.2052
   71SLPC  H15B 6112   1.669   0.028  10.682 -0.2899 -1.3612 -0.4732
   71SLPC  H15C 6113   1.553   0.055  10.816 -0.4853 -0.6930  0.6846
   71SLPC   C12 6114   1.417   0.148  10.614  0.0217  0.3007  0.0820
   71SLPC  H12A 6115   1.333   0.147  10.546  0.3751  1.6951 -0.3938
   71SLPC  H12B 6116   1.483   0.221  10.568  1.4822  0.6334  2.6429
   71SLPC   C11 6117   1.358   0.218  10.734  0.2443 -0.1704  0.3124
   71SLPC  H11A 6118   1.358   0.324  10.702 -2.2071 -0.3585 -0.4230
   71SLPC  H11B 6119   1.413   0.190  10.826  0.1277 -0.9398  0.1489
   71SLPC     P 6120   1.091   0.225  10.697 -0.2073 -0.5185 -0.3293
   71SLPC   O13 6121   0.999   0.114  10.674 -0.3654  0.1334 -0.2046
   71SLPC   O14 6122   1.054   0.348  10.773 -0.1405  0.1132  0.5021
   71SLPC   O12 6123   1.226   0.165  10.759  0.0212 -0.2022  0.3664
   71SLPC   O11 6124   1.139   0.266  10.557 -0.8950 -0.5559  0.0949
   71SLPC    C1 6125   1.078   0.375  10.474 -0.1682  0.4475 -0.3531
   71SLPC    HA 6126   1.075   0.470  10.531  1.7411  1.0290 -1.1546
   71SLPC    HB 6127   1.138   0.392  10.381  2.0522 -0.6870  0.8197
   71SLPC    C2 6128   0.938   0.324  10.429 -0.6874 -0.0512  0.2263
   71SLPC    HS 6129   0.879   0.298  10.519 -2.2697  0.5862 -0.6089
   71SLPC   O21 6130   0.960   0.213  10.337  0.7588  1.0517 -0.0351
   71SLPC   C21 6131   0.855   0.141  10.313  0.1212  0.0470 -0.3881
   71SLPC   O22 6132   0.749   0.154  10.373 -0.1517  0.1525 -0.2724
   71SLPC   C22 6133   0.866   0.047  10.197 -0.6760  0.1148  0.0140
   71SLPC   H2R 6134   0.948   0.079  10.129 -1.3458  0.3105 -0.7072
   71SLPC   H2S 6135   0.909  -0.044  10.243  2.3556  1.7370  0.5219
   71SLPC    C3 6136   0.859   0.436  10.358 -0.1385 -0.1650  0.1216
   71SLPC    HX 6137   0.831   0.508  10.437 -1.3331 -1.1271  0.6044
   71SLPC    HY 6138   0.760   0.403  10.320 -0.4537  0.5129  0.3528
   71SLPC   O31 6139   0.930   0.485  10.244 -0.4112  0.9280 -0.0089
   71SLPC   C31 6140   0.885   0.591  10.174 -0.2114  0.3197  0.0280
   71SLPC   O32 6141   0.776   0.641  10.189  0.1866  0.0661 -0.6279
   71SLPC   C32 6142   0.987   0.643  10.085  0.2042  0.8047 -0.2831
   71SLPC   H2X 6143   1.080   0.585  10.103 -0.6294 -0.5418 -0.2293
   71SLPC   H2Y 6144   0.992   0.752  10.103 -0.6039  0.8137 -0.0967
   71SLPC   C23 6145   0.731   0.035  10.125 -0.8585  0.0678 -0.4354
   71SLPC   H3R 6146   0.646   0.017  10.194 -0.6293  0.4967 -0.0414
   71SLPC   H3S 6147   0.740  -0.044  10.046 -0.9277 -0.1969 -0.1805
   71SLPC   C24 6148   0.678   0.166  10.059  0.1217 -1.1886 -0.4436
   71SLPC   H4R 6149   0.672   0.249  10.133 -1.1658  0.0478 -1.9136
   71SLPC   H4S 6150   0.575   0.142  10.028  0.0936  2.5461 -3.5672
   71SLPC   C25 6151   0.760   0.223   9.945  0.6463 -0.4869  0.0755
   71SLPC   H5R 6152   0.783   0.130   9.888  4.0701 -2.3813  4.2787
   71SLPC   H5S 6153   0.847   0.284   9.978 -0.9818  1.3256  1.0671
   71SLPC   C26 6154   0.674   0.312   9.844 -0.1976 -0.2708  0.3435
   71SLPC   H6R 6155   0.650   0.411   9.889 -1.1720 -0.2620 -0.1840
   71SLPC   H6S 6156   0.586   0.252   9.814 -0.5308 -1.0160  2.6838
   71SLPC   C27 6157   0.749   0.331   9.713  0.6051 -0.4190  0.4803
   71SLPC   H7R 6158   0.755   0.240   9.649  0.2790  1.1850 -1.8566
   71SLPC   H7S 6159   0.850   0.369   9.738  1.4638 -2.3061 -0.0562
   71SLPC   C28 6160   0.666   0.441   9.639 -0.5773  0.1296 -0.0387
   71SLPC   H8R 6161   0.645   0.529   9.705  1.7814  2.1858 -1.9479
   71SLPC   H8S 6162   0.569   0.389   9.620 -0.8740  0.5015  0.4195
   71SLPC   C29 6163   0.746   0.502   9.524  0.2255 -0.0565 -0.5141
   71SLPC   H9R 6164   0.824   0.572   9.556  0.7239 -0.0832 -1.6452
   71SLPC  C210 6165   0.724   0.486   9.394  0.2082 -0.1910  0.0654
   71SLPC  H10R 6166   0.786   0.544   9.325 -0.6393  2.0981  1.1965
   71SLPC  C211 6167   0.626   0.389   9.331 -0.2191  0.5002  0.0118
   71SLPC  H11R 6168   0.550   0.440   9.268 -0.0388  0.5408 -0.1709
   71SLPC  H11S 6169   0.580   0.333   9.415  1.2987 -1.7142 -0.5924
   71SLPC  C212 6170   0.697   0.284   9.252  0.0162 -0.4235  0.0136
   71SLPC  H12R 6171   0.732   0.196   9.308  0.5806 -1.7530 -2.3731
   71SLPC  C213 6172   0.723   0.285   9.122  0.2095  0.4300 -0.1711
   71SLPC  H13R 6173   0.772   0.195   9.082 -1.0815 -1.1832  1.7723
   71SLPC  C214 6174   0.679   0.390   9.022 -0.2655 -0.0782  0.0219
   71SLPC  H14R 6175   0.739   0.483   9.029 -0.8106  0.3703 -1.2105
   71SLPC  H14S 6176   0.572   0.417   9.035 -0.1753  0.4664 -0.3445
   71SLPC  C215 6177   0.700   0.326   8.888  0.2648  0.2609 -0.2406
   71SLPC  H15R 6178   0.636   0.239   8.862  2.0230 -0.9569 -0.6320
   71SLPC  H15S 6179   0.805   0.290   8.891 -0.0944 -0.9607 -1.2882
   71SLPC  C216 6180   0.685   0.427   8.777  0.4900  0.2196 -0.0519
   71SLPC  H16R 6181   0.582   0.469   8.770  0.5061  0.2241 -0.2517
   71SLPC  H16S 6182   0.708   0.369   8.686  1.1947 -0.5866  0.6299
   71SLPC  C217 6183   0.781   0.541   8.785 -0.5962 -0.6877  0.0446
   71SLPC  H17R 6184   0.880   0.493   8.799 -0.0240  0.1760 -0.9164
   71SLPC  H17S 6185   0.762   0.609   8.870 -2.3235 -0.4451 -0.5057
   71SLPC  C218 6186   0.788   0.624   8.656 -0.1871  0.0148 -0.1790
   71SLPC  H18R 6187   0.861   0.709   8.655  0.9560 -0.9394  0.6797
   71SLPC  H18S 6188   0.688   0.671   8.646 -1.0412 -1.6301  0.5668
   71SLPC  H18T 6189   0.804   0.561   8.567  3.3061 -1.1634  1.2042
   71SLPC   C33 6190   0.959   0.607   9.943  0.0925 -0.3091  0.3450
   71SLPC   H3X 6191   0.876   0.664   9.896  1.6935  0.4256 -1.6815
   71SLPC   H3Y 6192   0.931   0.503   9.917 -1.1086  0.7582 -2.9120
   71SLPC   C34 6193   1.083   0.647   9.860  0.1754  0.7967 -0.9924
   71SLPC   H4X 6194   1.173   0.583   9.875  0.1316  1.0955  0.6614
   71SLPC   H4Y 6195   1.119   0.749   9.883 -0.5296  0.3564  2.4491
   71SLPC   C35 6196   1.040   0.629   9.707  0.0429  0.2317 -0.3355
   71SLPC   H5X 6197   0.937   0.668   9.698  0.9445  2.2069 -2.7959
   71SLPC   H5Y 6198   1.032   0.519   9.695 -2.2539  0.2969  0.4840
   71SLPC   C36 6199   1.138   0.685   9.606 -0.9615  0.2935  0.1945
   71SLPC   H6X 6200   1.244   0.656   9.624 -1.3760 -1.9543 -0.8068
   71SLPC   H6Y 6201   1.128   0.796   9.601 -1.0323  0.3280  1.0145
   71SLPC   C37 6202   1.098   0.643   9.468 -0.7622 -0.8771  0.0918
   71SLPC   H7X 6203   1.011   0.710   9.453  1.1953  2.2299  1.9752
   71SLPC   H7Y 6204   1.060   0.538   9.471 -2.2021 -0.3924 -0.8620
   71SLPC   C38 6205   1.204   0.657   9.365 -0.2180 -0.3303  0.0311
   71SLPC   H8X 6206   1.290   0.590   9.387  0.0412  0.7237  2.3085
   71SLPC   H8Y 6207   1.242   0.761   9.355  0.1874 -0.6289 -1.8180
   71SLPC   C39 6208   1.150   0.625   9.227  0.4847 -0.1745  0.3672
   71SLPC   H9X 6209   1.073   0.701   9.204  0.1851 -0.1500  1.4425
   71SLPC   H9Y 6210   1.099   0.527   9.240  1.8390 -0.7333  1.5747
   71SLPC  C310 6211   1.259   0.612   9.120 -0.0074  0.3650  0.2101
   71SLPC  H10X 6212   1.199   0.598   9.027 -1.4069  1.5644  0.8969
   71SLPC  H10Y 6213   1.312   0.517   9.141 -0.6717 -0.4642 -1.7853
   71SLPC  C311 6214   1.350   0.738   9.101 -0.3996  0.2227 -0.0099
   71SLPC  H11X 6215   1.409   0.741   9.195  2.0004 -0.2519 -1.4422
   71SLPC  H11Y 6216   1.277   0.822   9.098  0.9581  1.3874 -1.1777
   71SLPC  C312 6217   1.447   0.731   8.980 -0.4322  0.0161  0.3391
   71SLPC  H12X 6218   1.523   0.651   8.989 -1.3764 -1.1091 -1.3890
   71SLPC  H12Y 6219   1.499   0.828   8.970  0.2731 -0.2916  0.9583
   71SLPC  C313 6220   1.376   0.720   8.841  0.5728  0.1396  0.7773
   71SLPC  H13X 6221   1.298   0.799   8.835 -1.1532 -1.6214 -0.5894
   71SLPC  H13Y 6222   1.323   0.624   8.825 -1.2678  1.1129  0.9441
   71SLPC  C314 6223   1.473   0.758   8.730  0.3308  0.5919 -0.8561
   71SLPC  H14X 6224   1.542   0.671   8.721  0.0865  0.2715  0.4316
   71SLPC  H14Y 6225   1.527   0.850   8.763 -0.6867  1.4887 -1.6461
   71SLPC  C315 6226   1.410   0.791   8.597  0.0374  0.3723  0.0489
   71SLPC  H15X 6227   1.319   0.853   8.610 -0.3394 -0.3334  0.9161
   71SLPC  H15Y 6228   1.365   0.698   8.555 -0.6269  0.9037 -0.4263
   71SLPC  C316 6229   1.513   0.850   8.491  0.7891  0.5926  0.1803
   71SLPC  H16X 6230   1.605   0.787   8.482  0.3704  0.0779 -0.5473
   71SLPC  H16Y 6231   1.540   0.955   8.515 -0.8676  1.2370 -0.7296
   71SLPC  C317 6232   1.460   0.832   8.350  0.0934  0.3773  0.3881
   71SLPC  H17X 6233   1.410   0.928   8.329  0.5382  0.6078  0.3722
   71SLPC  H17Y 6234   1.395   0.743   8.341 -1.6258  1.5009  1.4744
   71SLPC  C318 6235   1.572   0.839   8.246 -0.7134 -0.3665 -0.2366
   71SLPC  H18X 6236   1.533   0.809   8.147 -1.3551  0.1568 -0.1432
   71SLPC  H18Y 6237   1.664   0.779   8.264 -0.5037  0.2860  0.8923
   71SLPC  H18Z 6238   1.605   0.945   8.242  0.1064 -0.6335 -0.7276
   72SLPC     N 6239   2.418   4.940  11.171 -0.4537 -0.4102 -0.5859
   72SLPC   C13 6240   2.284   4.916  11.232  0.1799  0.1730  0.1087
   72SLPC  H13A 6241   2.250   4.814  11.228 -0.0460  0.0789  3.6775
   72SLPC  H13B 6242   2.298   4.940  11.336  0.2380 -0.8206  0.3280
   72SLPC  H13C 6243   2.211   4.979  11.183  1.4605  0.4224 -1.5685
   72SLPC   C14 6244   2.515   4.849  11.244  0.4268 -0.7741  0.7394
   72SLPC  H14A 6245   2.514   4.744  11.220 -1.0713 -1.9017  5.2689
   72SLPC  H14B 6246   2.617   4.882  11.231  0.3049 -0.6346  0.0909
   72SLPC  H14C 6247   2.482   4.840  11.346  0.0593 -1.5068  0.5604
   72SLPC   C15 6248   2.450   5.083  11.185 -0.1453  0.0465  0.3442
   72SLPC  H15A 6249   2.498   5.110  11.278 -0.6877  1.3417  0.2699
   72SLPC  H15B 6250   2.517   5.122  11.109  0.8303 -1.7254  0.2649
   72SLPC  H15C 6251   2.369   5.155  11.184  0.7274  1.0901  1.7394
   72SLPC   C12 6252   2.427   4.900  11.024  0.2933 -0.6538  0.1532
   72SLPC  H12A 6253   2.399   4.797  11.011 -0.4103 -0.2901 -1.3327
   72SLPC  H12B 6254   2.530   4.898  10.993  0.2126  2.9846 -0.6468
   72SLPC   C11 6255   2.346   4.978  10.920 -0.1629 -0.3368  0.2019
   72SLPC  H11A 6256   2.371   4.948  10.816 -0.5688  0.6106 -0.1743
   72SLPC  H11B 6257   2.372   5.085  10.924 -0.9528 -0.1377  0.1308
   72SLPC     P 6258   2.144   4.828  10.897 -0.1207 -0.2641  0.0708
   72SLPC   O13 6259   2.248   4.743  10.838 -0.6450 -0.3234  0.5553
   72SLPC   O14 6260   2.069   4.774  11.009 -0.4450 -0.2624  0.5747
   72SLPC   O12 6261   2.209   4.966  10.942 -0.2066  0.4037  0.4144
   72SLPC   O11 6262   2.050   4.876  10.779 -0.0381 -0.0244  0.1452
   72SLPC    C1 6263   2.084   4.967  10.676  0.2324  0.0088  0.3430
   72SLPC    HA 6264   2.001   5.036  10.652 -1.1873 -2.2048 -1.3293
   72SLPC    HB 6265   2.161   5.038  10.713  1.1661 -1.3942  1.1446
   72SLPC    C2 6266   2.139   4.893  10.552  0.0337  0.2498  0.1671
   72SLPC    HS 6267   2.193   4.810  10.603  0.4166 -0.6685 -1.6862
   72SLPC   O21 6268   2.234   4.971  10.476  0.6478  0.5835  0.1728
   72SLPC   C21 6269   2.341   4.907  10.436 -0.1767  0.2709  0.1978
   72SLPC   O22 6270   2.369   4.789  10.457  0.7766  0.4822 -0.0929
   72SLPC   C22 6271   2.420   4.999  10.350  0.6415  0.0929 -0.0043
   72SLPC   H2R 6272   2.368   5.096  10.332  1.7995  0.3709 -1.9551
   72SLPC   H2S 6273   2.515   5.025  10.401  0.8514 -1.5921  0.5065
   72SLPC    C3 6274   2.035   4.837  10.453  0.0428 -0.1347 -0.3023
   72SLPC    HX 6275   1.987   4.930  10.415 -0.9856 -0.4958  0.1148
   72SLPC    HY 6276   1.959   4.792  10.521 -0.5568  1.8866  0.4020
   72SLPC   O31 6277   2.070   4.749  10.349  0.4475  0.1019  0.1108
   72SLPC   C31 6278   1.960   4.703  10.285  0.0202 -0.3451 -0.3315
   72SLPC   O32 6279   1.843   4.734  10.318 -0.4591  0.1762  0.6537
   72SLPC   C32 6280   1.996   4.608  10.177 -0.6136 -0.5653 -0.2948
   72SLPC   H2X 6281   2.025   4.507  10.212 -0.2991  0.8042  3.6166
   72SLPC   H2Y 6282   2.097   4.642  10.142 -0.9860  1.1000  0.2066
   72SLPC   C23 6283   2.476   4.938  10.216  0.2750  0.7319  0.2135
   72SLPC   H3R 6284   2.526   4.839  10.224 -0.5018  0.3944  0.8924
   72SLPC   H3S 6285   2.543   5.016  10.173  0.0909  1.1651  0.7059
   72SLPC   C24 6286   2.362   4.913  10.111  0.0040 -0.2882 -0.6636
   72SLPC   H4R 6287   2.292   4.845  10.165  2.8896 -1.8271  1.2949
   72SLPC   H4S 6288   2.407   4.855  10.027 -1.6899 -2.2688 -0.2519
   72SLPC   C25 6289   2.290   5.039  10.073 -1.1314  0.2327  0.1189
   72SLPC   H5R 6290   2.357   5.126  10.058  0.4941 -0.6159  2.2162
   72SLPC   H5S 6291   2.219   5.061  10.156  1.0371  0.9381  1.8289
   72SLPC   C26 6292   2.217   5.027   9.938 -0.8297 -0.5004  0.0582
   72SLPC   H6R 6293   2.283   4.979   9.862 -0.3512  1.1322 -0.5742
   72SLPC   H6S 6294   2.202   5.131   9.904  0.2001 -0.6506 -0.8853
   72SLPC   C27 6295   2.091   4.942   9.945 -0.4243 -0.1764 -0.0049
   72SLPC   H7R 6296   2.013   5.011   9.986  1.3741  1.9172 -0.0456
   72SLPC   H7S 6297   2.091   4.879  10.037 -0.3582  1.3138  1.0428
   72SLPC   C28 6298   2.041   4.871   9.823 -0.4408  0.7220 -0.7168
   72SLPC   H8R 6299   1.941   4.830   9.848 -0.5675  1.1440 -0.5179
   72SLPC   H8S 6300   2.106   4.782   9.809 -1.4610 -0.3014  0.9494
   72SLPC   C29 6301   2.040   4.963   9.699 -0.5765 -0.7951 -0.5364
   72SLPC   H9R 6302   2.134   5.021   9.691  0.2818 -1.9966  0.6448
   72SLPC  C210 6303   1.946   4.998   9.608 -0.9526  0.2970  0.6055
   72SLPC  H10R 6304   1.978   5.062   9.524 -4.0272  1.2691  0.1173
   72SLPC  C211 6305   1.808   4.942   9.604 -1.0779 -0.0894  0.5267
   72SLPC  H11R 6306   1.782   4.879   9.692  0.7618 -2.1204 -0.3357
   72SLPC  H11S 6307   1.802   4.873   9.517  0.7122 -0.2392  0.4881
   72SLPC  C212 6308   1.703   5.051   9.596 -0.8357 -0.2581  0.7432
   72SLPC  H12R 6309   1.699   5.118   9.683 -0.6251  1.3095 -0.4324
   72SLPC  C213 6310   1.605   5.053   9.500 -0.1888 -1.0922 -0.3387
   72SLPC  H13R 6311   1.530   5.133   9.508 -0.1110 -0.9076 -1.3437
   72SLPC  C214 6312   1.589   4.957   9.378 -0.9438 -0.0300 -0.4344
   72SLPC  H14R 6313   1.484   4.919   9.377 -0.2297 -2.1905  1.8315
   72SLPC  H14S 6314   1.645   4.864   9.397  0.7645  0.8744 -0.9623
   72SLPC  C215 6315   1.639   5.036   9.254 -0.0631 -1.0338  0.7323
   72SLPC  H15R 6316   1.745   5.069   9.263 -0.4345  0.8181 -1.0913
   72SLPC  H15S 6317   1.576   5.126   9.233  0.7883 -0.8927 -1.3343
   72SLPC  C216 6318   1.624   4.969   9.122  0.7089  0.3880  1.4641
   72SLPC  H16R 6319   1.633   4.858   9.125 -0.7490  0.2888  2.7276
   72SLPC  H16S 6320   1.698   5.011   9.050  1.4840 -1.3521  1.1871
   72SLPC  C217 6321   1.490   4.983   9.047 -0.1730 -0.6403 -0.2121
   72SLPC  H17R 6322   1.431   5.070   9.085  1.8692  1.2538 -1.2553
   72SLPC  H17S 6323   1.432   4.898   9.088 -1.5158  0.4306  0.1700
   72SLPC  C218 6324   1.496   5.003   8.894  0.8001 -0.2884  0.0574
   72SLPC  H18R 6325   1.540   5.102   8.869  1.5202 -0.8474 -0.9119
   72SLPC  H18S 6326   1.394   5.000   8.850  0.7471 -1.0028  0.2100
   72SLPC  H18T 6327   1.555   4.923   8.844  0.4945 -1.2300  1.1810
   72SLPC   C33 6328   1.894   4.593  10.061  0.1776 -0.3388  0.0859
   72SLPC   H3X 6329   1.859   4.697  10.046  0.3117  0.1870  3.1377
   72SLPC   H3Y 6330   1.809   4.529  10.095  1.1422 -2.4986 -1.4423
   72SLPC   C34 6331   1.948   4.523   9.939 -0.0940 -0.0403  0.3715
   72SLPC   H4X 6332   1.990   4.427   9.978  1.9500  0.9825  0.7567
   72SLPC   H4Y 6333   2.017   4.594   9.888 -0.6543  0.9891  1.0217
   72SLPC   C35 6334   1.854   4.494   9.829  0.5419 -0.4443 -0.4248
   72SLPC   H5X 6335   1.809   4.588   9.792 -1.3521 -1.2338 -0.1579
   72SLPC   H5Y 6336   1.772   4.444   9.885  2.2472 -1.4707  1.2565
   72SLPC   C36 6337   1.919   4.409   9.711  0.4799 -0.4934 -0.6000
   72SLPC   H6X 6338   1.840   4.343   9.670  1.5507 -1.1580 -1.6345
   72SLPC   H6Y 6339   1.984   4.346   9.774 -0.0733  0.0372  0.5116
   72SLPC   C37 6340   1.982   4.489   9.588 -0.1651 -0.1958 -0.4491
   72SLPC   H7X 6341   2.055   4.562   9.628 -0.4079 -0.0770 -0.2182
   72SLPC   H7Y 6342   1.905   4.547   9.533 -2.2997 -0.9574  1.6540
   72SLPC   C38 6343   2.051   4.394   9.495 -0.0778  0.7674 -0.6004
   72SLPC   H8X 6344   2.126   4.332   9.548  0.6264  0.4331 -1.9720
   72SLPC   H8Y 6345   2.108   4.450   9.417  1.4479  1.4045  0.9346
   72SLPC   C39 6346   1.960   4.300   9.409 -0.0797  0.8659  0.2954
   72SLPC   H9X 6347   1.863   4.347   9.380  0.0950  2.3004  1.9235
   72SLPC   H9Y 6348   1.935   4.224   9.487  0.3290  0.4519  0.0244
   72SLPC  C310 6349   2.024   4.223   9.299  0.4037  0.1245  0.7477
   72SLPC  H10X 6350   1.976   4.124   9.282 -0.5916  0.9924 -1.6900
   72SLPC  H10Y 6351   2.120   4.187   9.342 -0.0335  0.7235  2.2299
   72SLPC  C311 6352   2.058   4.293   9.164 -0.0107  0.5374 -0.7436
   72SLPC  H11X 6353   2.144   4.246   9.111  1.4036 -1.0696  2.8137
   72SLPC  H11Y 6354   2.073   4.398   9.197 -0.5322  0.3024  0.2351
   72SLPC  C312 6355   1.940   4.301   9.064  0.3097  0.1118  0.0171
   72SLPC  H12X 6356   1.950   4.392   9.002 -0.3730  0.1732 -0.0091
   72SLPC  H12Y 6357   1.853   4.309   9.133 -0.4835  1.5836 -1.1467
   72SLPC  C313 6358   1.925   4.178   8.986  0.0877 -0.2738  0.2267
   72SLPC  H13X 6359   1.880   4.104   9.055  0.7950  0.7195  1.8086
   72SLPC  H13Y 6360   2.024   4.141   8.952  0.1708 -0.9237  1.1632
   72SLPC  C314 6361   1.828   4.207   8.873 -1.2425  0.1461 -0.2624
   72SLPC  H14X 6362   1.877   4.289   8.816  0.0435 -0.6787 -0.3593
   72SLPC  H14Y 6363   1.723   4.231   8.899 -0.6579  1.0143  1.3670
   72SLPC  C315 6364   1.820   4.098   8.768 -0.1726 -0.8146  0.4236
   72SLPC  H15X 6365   1.793   4.000   8.813 -0.5404 -1.0295 -0.2594
   72SLPC  H15Y 6366   1.923   4.087   8.727 -0.1729 -0.4244  0.3154
   72SLPC  C316 6367   1.732   4.149   8.652  0.8802  0.2506  0.1724
   72SLPC  H16X 6368   1.777   4.240   8.607 -0.4469  1.4290  1.1939
   72SLPC  H16Y 6369   1.633   4.177   8.693  0.0587  0.1505 -1.6927
   72SLPC  C317 6370   1.716   4.037   8.548  0.0165 -0.4371 -0.0410
   72SLPC  H17X 6371   1.814   3.995   8.515 -0.2827 -1.0073 -0.2172
   72SLPC  H17Y 6372   1.657   4.084   8.466  1.7535  0.1780 -0.9653
   72SLPC  C318 6373   1.626   3.920   8.594 -0.0907 -0.3366  1.0935
   72SLPC  H18X 6374   1.532   3.968   8.628 -0.5573 -0.0635 -0.5773
   72SLPC  H18Y 6375   1.670   3.871   8.684  0.5732  0.3777  1.1661
   72SLPC  H18Z 6376   1.605   3.846   8.515 -0.6297  2.0616 -1.0584
   73SLPC     N 6377   2.122   4.400  11.065 -0.4350 -0.1749  0.0939
   73SLPC   C13 6378   2.145   4.307  11.180  0.1992 -0.2051  0.2871
   73SLPC  H13A 6379   2.080   4.221  11.182 -1.3573  0.9312 -0.3262
   73SLPC  H13B 6380   2.244   4.269  11.161  1.1916  1.2686  2.3346
   73SLPC  H13C 6381   2.143   4.357  11.276 -0.5948 -2.7023  1.6373
   73SLPC   C14 6382   2.213   4.513  11.079  0.3303  0.3108 -0.6528
   73SLPC  H14A 6383   2.315   4.494  11.050  1.1138  0.8278  1.6816
   73SLPC  H14B 6384   2.190   4.597  11.014  0.8923  0.7274 -0.3164
   73SLPC  H14C 6385   2.205   4.548  11.181 -0.8229 -1.1058 -0.2476
   73SLPC   C15 6386   1.982   4.445  11.074 -0.3678  0.6385 -0.1972
   73SLPC  H15A 6387   1.921   4.355  11.076  1.4653 -0.7107 -2.3274
   73SLPC  H15B 6388   1.979   4.493  11.171 -1.0685 -0.8384  0.5382
   73SLPC  H15C 6389   1.949   4.512  10.997  2.2776  3.1204  0.7488
   73SLPC   C12 6390   2.155   4.329  10.936 -0.2554 -0.1861 -0.2263
   73SLPC  H12A 6391   2.248   4.276  10.948 -1.6691 -2.5105  0.8354
   73SLPC  H12B 6392   2.175   4.401  10.858 -1.6837  0.2617 -0.2067
   73SLPC   C11 6393   2.068   4.222  10.868 -0.0680  0.0571  0.3346
   73SLPC  H11A 6394   2.119   4.172  10.784 -0.2456 -1.0118  0.8579
   73SLPC  H11B 6395   1.982   4.283  10.831 -2.5997 -1.9221  2.7561
   73SLPC     P 6396   1.918   4.015  10.904 -0.2812 -0.1612 -0.5092
   73SLPC   O13 6397   1.847   3.959  11.022  1.0106  0.0658  0.3014
   73SLPC   O14 6398   1.839   4.067  10.791 -0.0657 -0.1431  0.0753
   73SLPC   O12 6399   2.023   4.121  10.956  0.6066  0.3096 -1.1226
   73SLPC   O11 6400   2.010   3.902  10.850  0.3565  0.1577  0.1658
   73SLPC    C1 6401   1.957   3.794  10.769 -0.3589  0.4301  0.4735
   73SLPC    HA 6402   1.983   3.700  10.822 -2.1347 -1.0771 -1.2527
   73SLPC    HB 6403   1.846   3.790  10.769 -0.3555  0.1632  1.1143
   73SLPC    C2 6404   2.033   3.774  10.632  0.0325 -0.1418  0.0828
   73SLPC    HS 6405   2.142   3.789  10.645 -0.0363 -0.0124  0.5016
   73SLPC   O21 6406   1.980   3.880  10.548 -0.4744  0.5241 -0.3600
   73SLPC   C21 6407   2.067   3.913  10.449  0.0905  0.4833  0.6846
   73SLPC   O22 6408   2.175   3.863  10.438  0.8692  0.7031  0.0916
   73SLPC   C22 6409   1.997   4.008  10.350 -0.0268 -0.7250  0.1768
   73SLPC   H2R 6410   1.889   3.981  10.352 -0.1709 -0.0594  1.8445
   73SLPC   H2S 6411   2.007   4.115  10.381 -2.3845 -1.3030  3.1437
   73SLPC    C3 6412   1.998   3.639  10.569  0.2759 -0.2187 -0.0468
   73SLPC    HX 6413   1.888   3.623  10.572  0.2968 -0.1466  2.5906
   73SLPC    HY 6414   2.037   3.562  10.640  3.2020 -1.2929 -2.7210
   73SLPC   O31 6415   2.054   3.612  10.440  0.1889  0.0208 -0.6602
   73SLPC   C31 6416   2.173   3.555  10.438  0.8638 -0.2100  0.4242
   73SLPC   O32 6417   2.236   3.539  10.542 -0.6675  0.1431  0.1442
   73SLPC   C32 6418   2.205   3.530  10.288  0.2288 -0.0264  0.5205
   73SLPC   H2X 6419   2.253   3.628  10.269  0.3313  0.1301  1.5819
   73SLPC   H2Y 6420   2.113   3.524  10.225  2.1081 -1.5285 -2.1464
   73SLPC   C23 6421   2.050   4.002  10.202 -0.7803  0.1109  0.0648
   73SLPC   H3R 6422   2.161   4.007  10.203 -0.6708 -1.9688  0.5418
   73SLPC   H3S 6423   2.021   4.092  10.144  2.4310  0.2346 -1.4101
   73SLPC   C24 6424   1.989   3.884  10.129  0.5435 -0.2021 -0.3676
   73SLPC   H4R 6425   1.886   3.919  10.103  0.4896  0.8939  1.2427
   73SLPC   H4S 6426   1.983   3.803  10.205 -1.3087  1.7210  1.6137
   73SLPC   C25 6427   2.072   3.829  10.012 -0.6015 -0.6184  0.7816
   73SLPC   H5R 6428   2.167   3.789  10.051  0.3445 -0.9167 -1.7142
   73SLPC   H5S 6429   2.099   3.896   9.928  0.9464 -0.9639  0.9998
   73SLPC   C26 6430   1.997   3.711   9.949  0.3923  0.7170  0.5461
   73SLPC   H6R 6431   1.897   3.748   9.921  0.2511  0.4206  0.6512
   73SLPC   H6S 6432   1.985   3.626  10.020 -3.4821  0.0495 -0.8325
   73SLPC   C27 6433   2.061   3.662   9.817  0.0625  0.9843 -0.4337
   73SLPC   H7R 6434   2.088   3.753   9.759  1.5644  0.4471 -0.5777
   73SLPC   H7S 6435   1.978   3.609   9.765  0.5426 -1.8410  1.5549
   73SLPC   C28 6436   2.185   3.581   9.841  0.1327 -0.7751 -0.1139
   73SLPC   H8R 6437   2.243   3.635   9.918  0.4830  2.0963 -2.2963
   73SLPC   H8S 6438   2.241   3.600   9.747  2.3359  2.1601  1.7168
   73SLPC   C29 6439   2.184   3.431   9.873 -0.1833 -0.5359 -0.1562
   73SLPC   H9R 6440   2.191   3.405   9.979  0.3229 -0.7430 -0.2422
   73SLPC  C210 6441   2.194   3.326   9.790  0.0454  0.4201  0.6355
   73SLPC  H10R 6442   2.203   3.225   9.832 -0.5535  0.3289  0.5420
   73SLPC  C211 6443   2.206   3.331   9.636  0.0808  0.5120 -0.4781
   73SLPC  H11R 6444   2.185   3.438   9.612  4.2653  1.7343  0.9620
   73SLPC  H11S 6445   2.124   3.279   9.582  0.0168 -2.4717  2.3650
   73SLPC  C212 6446   2.335   3.287   9.568  0.6067  0.5130 -0.7957
   73SLPC  H12R 6447   2.418   3.291   9.640 -1.3598  1.9306  1.4781
   73SLPC  C213 6448   2.354   3.256   9.437 -0.7031 -0.5885 -0.8325
   73SLPC  H13R 6449   2.454   3.239   9.394  0.5560  1.7268  1.0371
   73SLPC  C214 6450   2.244   3.276   9.336 -0.1616  0.1126 -0.2409
   73SLPC  H14R 6451   2.153   3.322   9.379  0.1915  1.8194 -1.2450
   73SLPC  H14S 6452   2.212   3.178   9.294  0.2961  0.9080 -2.5072
   73SLPC  C215 6453   2.286   3.361   9.209 -0.1193  0.2990 -0.2431
   73SLPC  H15R 6454   2.296   3.466   9.244 -0.6303  0.0971  0.5091
   73SLPC  H15S 6455   2.199   3.348   9.140 -0.8253  1.1392  0.4817
   73SLPC  C216 6456   2.408   3.289   9.137 -0.1043 -0.2310  0.0931
   73SLPC  H16R 6457   2.399   3.179   9.150 -2.2469 -0.0271  0.6948
   73SLPC  H16S 6458   2.506   3.321   9.179 -0.8104  0.9993  0.8685
   73SLPC  C217 6459   2.421   3.324   8.985 -0.3986  0.7903  0.5282
   73SLPC  H17R 6460   2.419   3.434   8.968  0.9829  0.9668  1.4007
   73SLPC  H17S 6461   2.326   3.283   8.943 -0.4330  1.4332 -0.0470
   73SLPC  C218 6462   2.532   3.256   8.923  0.6995 -1.2192  0.3736
   73SLPC  H18R 6463   2.573   3.315   8.839  0.2199 -0.2405  0.8214
   73SLPC  H18S 6464   2.501   3.158   8.879 -2.2166 -0.4170  0.5053
   73SLPC  H18T 6465   2.619   3.243   8.990  1.5653  0.5992 -0.3759
   73SLPC   C33 6466   2.291   3.408  10.270  0.0285 -0.2281  0.4349
   73SLPC   H3X 6467   2.376   3.399  10.342  0.0270  0.6808  0.5542
   73SLPC   H3Y 6468   2.346   3.415  10.173  2.1957  1.9829  1.7647
   73SLPC   C34 6469   2.209   3.282  10.278 -0.2589 -0.4259 -0.1614
   73SLPC   H4X 6470   2.130   3.289  10.200 -0.9892  3.3275  0.8341
   73SLPC   H4Y 6471   2.157   3.274  10.375  0.0518 -1.3849 -0.0719
   73SLPC   C35 6472   2.284   3.144  10.261 -0.1663  0.2859 -0.5359
   73SLPC   H5X 6473   2.207   3.066  10.277  1.0767 -1.0653 -1.0123
   73SLPC   H5Y 6474   2.373   3.136  10.326 -0.6400  2.3704  0.3796
   73SLPC   C36 6475   2.320   3.125  10.107 -0.0474  0.0861 -0.3059
   73SLPC   H6X 6476   2.370   3.216  10.066 -1.6946  0.7204 -0.9604
   73SLPC   H6Y 6477   2.221   3.112  10.059  0.5710  0.8162 -1.8286
   73SLPC   C37 6478   2.428   3.005  10.082 -0.8572 -0.0629 -0.7136
   73SLPC   H7X 6479   2.405   2.912  10.138  1.6942  0.5243  1.3928
   73SLPC   H7Y 6480   2.530   3.036  10.112 -0.1413 -4.1155  1.2589
   73SLPC   C38 6481   2.431   2.971   9.928 -1.3903  0.4656  0.4271
   73SLPC   H8X 6482   2.335   3.007   9.886 -1.3036  0.9532  0.6359
   73SLPC   H8Y 6483   2.450   2.863   9.915  1.2056  1.0036 -0.4694
   73SLPC   C39 6484   2.542   3.048   9.861  0.7743 -0.2140  0.3738
   73SLPC   H9X 6485   2.636   3.012   9.908  1.3808 -0.8352 -1.2921
   73SLPC   H9Y 6486   2.537   3.158   9.875  0.9925 -0.1463 -0.0726
   73SLPC  C310 6487   2.555   2.997   9.715 -0.0121 -0.2060  0.0162
   73SLPC  H10X 6488   2.480   3.038   9.644  0.1847  2.1884  1.1460
   73SLPC  H10Y 6489   2.553   2.886   9.712  1.2885 -0.2771  1.2354
   73SLPC  C311 6490   2.683   3.043   9.658 -0.0695 -0.0639 -1.0695
   73SLPC  H11X 6491   2.768   3.010   9.721  0.3540  1.5594 -0.7775
   73SLPC  H11Y 6492   2.687   3.154   9.657 -0.8271 -0.0219  0.3768
   73SLPC  C312 6493   2.701   2.995   9.512 -0.5651  0.1713  0.4824
   73SLPC  H12X 6494   2.611   3.021   9.452 -0.0204 -0.2144 -0.5187
   73SLPC  H12Y 6495   2.703   2.884   9.507 -3.6122  0.1438 -1.0911
   73SLPC  C313 6496   2.827   3.047   9.444  0.7154  0.1569 -0.4222
   73SLPC  H13X 6497   2.911   2.991   9.490  1.4209  1.7739  0.2956
   73SLPC  H13Y 6498   2.840   3.153   9.473  0.4865 -0.0086  0.2823
   73SLPC  C314 6499   2.825   3.036   9.286  0.2005 -0.6347 -0.4232
   73SLPC  H14X 6500   2.736   3.100   9.266 -1.2164 -1.8116  1.8847
   73SLPC  H14Y 6501   2.814   2.934   9.243  0.6446 -0.1432 -1.7118
   73SLPC  C315 6502   2.957   3.091   9.234 -0.2790 -0.0907  0.4951
   73SLPC  H15X 6503   3.038   3.022   9.263  0.3874  1.2505  1.9218
   73SLPC  H15Y 6504   2.981   3.188   9.284  0.0041  0.2427 -0.2732
   73SLPC  C316 6505   2.956   3.117   9.075  0.0309  0.5453  1.1896
   73SLPC  H16X 6506   2.916   3.032   9.016 -2.4933  0.9148  2.2856
   73SLPC  H16Y 6507   3.065   3.113   9.056 -0.3630 -0.3680 -0.9988
   73SLPC  C317 6508   2.920   3.258   9.028  0.1905  0.4308 -0.9330
   73SLPC  H17X 6509   2.970   3.327   9.099  0.0467  0.4235 -0.8243
   73SLPC  H17Y 6510   2.812   3.274   9.050  0.8945  2.0691  1.4121
   73SLPC  C318 6511   2.967   3.302   8.886  0.6069  0.1884 -0.5353
   73SLPC  H18X 6512   3.076   3.319   8.888  0.8274 -1.1980  0.6377
   73SLPC  H18Y 6513   2.918   3.389   8.838  1.4564  1.3608  0.6672
   73SLPC  H18Z 6514   2.959   3.207   8.828  1.8444  0.3958 -1.0514
   74SLPC     N 6515   3.337   4.858  10.850 -0.0425 -0.1332 -0.5071
   74SLPC   C13 6516   3.310   4.942  10.969  0.4099 -0.4743 -0.0848
   74SLPC  H13A 6517   3.250   4.895  11.046 -1.0524  2.0866  0.4192
   74SLPC  H13B 6518   3.399   4.979  11.017  1.3576  0.8163 -2.7122
   74SLPC  H13C 6519   3.252   5.028  10.939  2.1810  0.8730  0.3175
   74SLPC   C14 6520   3.214   4.789  10.814  0.4799  0.0751 -0.5678
   74SLPC  H14A 6521   3.151   4.850  10.751  1.7169  0.1216 -1.7791
   74SLPC  H14B 6522   3.227   4.701  10.753  0.4043 -0.3256 -0.0049
   74SLPC  H14C 6523   3.152   4.749  10.893  2.4993  1.9977  2.0871
   74SLPC   C15 6524   3.449   4.759  10.893  0.3236 -0.5142  0.0720
   74SLPC  H15A 6525   3.463   4.686  10.814  0.9645  0.9419 -1.2017
   74SLPC  H15B 6526   3.534   4.823  10.911  0.1509 -0.3125  0.1648
   74SLPC  H15C 6527   3.431   4.713  10.989  0.0293 -1.4310 -0.4176
   74SLPC   C12 6528   3.374   4.946  10.732  0.2211 -0.8088  0.4111
   74SLPC  H12A 6529   3.401   4.881  10.651 -0.2580 -0.0162 -0.3864
   74SLPC  H12B 6530   3.474   4.981  10.752  0.7707 -2.9994  1.6934
   74SLPC   C11 6531   3.280   5.063  10.688  0.4562 -0.3584 -0.5635
   74SLPC  H11A 6532   3.322   5.133  10.612  0.0702 -1.2505 -1.5981
   74SLPC  H11B 6533   3.266   5.131  10.775 -2.1451 -2.1717  0.5002
   74SLPC     P 6534   3.119   4.965  10.513 -0.2923  0.0749 -0.7200
   74SLPC   O13 6535   3.147   4.817  10.524 -0.1605 -0.4510  0.8636
   74SLPC   O14 6536   2.980   5.003  10.486 -0.2461 -0.4486  0.9602
   74SLPC   O12 6537   3.152   5.027  10.653  0.4825 -0.2872 -0.2326
   74SLPC   O11 6538   3.222   5.035  10.418 -0.4890  0.3677 -0.4970
   74SLPC    C1 6539   3.175   5.156  10.349 -0.5999  0.3314 -0.3884
   74SLPC    HA 6540   3.114   5.224  10.412  0.6358  0.1494  1.0446
   74SLPC    HB 6541   3.263   5.216  10.321 -1.4628  3.8483  3.8877
   74SLPC    C2 6542   3.097   5.125  10.217 -0.7891 -0.6060  0.8003
   74SLPC    HS 6543   3.004   5.078  10.256 -1.5706  0.4446  0.2000
   74SLPC   O21 6544   3.172   5.031  10.148  0.0424  0.4261  0.2110
   74SLPC   C21 6545   3.101   4.948  10.075 -0.8183 -0.4709  0.6133
   74SLPC   O22 6546   2.984   4.940  10.075 -0.4253 -0.3654 -0.0556
   74SLPC   C22 6547   3.199   4.875   9.989 -0.4324  0.1096  0.2539
   74SLPC   H2R 6548   3.298   4.924   9.986 -0.3309 -0.1107 -0.0212
   74SLPC   H2S 6549   3.204   4.774  10.035  3.1486  0.0997 -0.0645
   74SLPC    C3 6550   3.051   5.256  10.143  0.4491 -0.2974  0.4926
   74SLPC    HX 6551   3.152   5.300  10.134  0.2083 -0.0630 -1.2912
   74SLPC    HY 6552   2.988   5.317  10.211 -0.5301 -0.3133 -0.3859
   74SLPC   O31 6553   2.980   5.219  10.024  0.0098 -0.1073 -0.2161
   74SLPC   C31 6554   2.845   5.194  10.038 -0.5086 -0.6279  0.2656
   74SLPC   O32 6555   2.786   5.215  10.141 -0.0590  0.0430 -0.4553
   74SLPC   C32 6556   2.778   5.137   9.906 -0.1071 -0.3608 -0.8218
   74SLPC   H2X 6557   2.776   5.027   9.916  1.7554 -0.4184 -1.0272
   74SLPC   H2Y 6558   2.844   5.166   9.822 -1.3108  1.5027 -1.1694
   74SLPC   C23 6559   3.158   4.874   9.839 -0.4310  0.1945  0.0020
   74SLPC   H3R 6560   3.055   4.835   9.821 -0.2920 -0.1108 -0.1217
   74SLPC   H3S 6561   3.214   4.809   9.768 -0.0133  0.2858  0.2496
   74SLPC   C24 6562   3.175   5.016   9.779  0.0262 -0.1390  0.0708
   74SLPC   H4R 6563   3.282   5.044   9.779  0.4666 -1.6887  2.5437
   74SLPC   H4S 6564   3.115   5.084   9.843  0.0458 -1.3520  1.3873
   74SLPC   C25 6565   3.121   5.035   9.637 -0.1598  0.1022  0.1565
   74SLPC   H5R 6566   3.025   4.980   9.638 -1.2299  1.8545 -1.3912
   74SLPC   H5S 6567   3.189   4.989   9.562  0.1367  1.8601 -0.6932
   74SLPC   C26 6568   3.095   5.179   9.596  0.4772  0.1009  0.3331
   74SLPC   H6R 6569   3.185   5.243   9.604  1.1948 -1.0423  1.6052
   74SLPC   H6S 6570   3.025   5.218   9.673 -2.9246 -2.6725 -1.1983
   74SLPC   C27 6571   3.030   5.212   9.471 -0.3095  0.3476  0.0534
   74SLPC   H7R 6572   2.986   5.314   9.477 -0.0096  0.5346 -0.8101
   74SLPC   H7S 6573   2.943   5.143   9.460 -0.3235  0.4717 -0.6669
   74SLPC   C28 6574   3.123   5.194   9.343  0.1502  0.3100  0.0052
   74SLPC   H8R 6575   3.049   5.185   9.260  0.1628  0.4061 -0.0159
   74SLPC   H8S 6576   3.162   5.092   9.362 -2.2337 -0.5461  0.4694
   74SLPC   C29 6577   3.218   5.316   9.322  0.7420 -0.3550 -0.0574
   74SLPC   H9R 6578   3.303   5.327   9.390 -0.1865  0.4320  0.9927
   74SLPC  C210 6579   3.200   5.414   9.228 -0.3642 -0.2147 -0.5255
   74SLPC  H10R 6580   3.287   5.481   9.233 -0.6530  0.0952  0.4873
   74SLPC  C211 6581   3.092   5.428   9.126  0.7198  0.3080  0.4273
   74SLPC  H11R 6582   3.055   5.532   9.132  1.3365  0.6626 -1.5760
   74SLPC  H11S 6583   3.010   5.356   9.144  1.0380  0.6010  3.2965
   74SLPC  C212 6584   3.140   5.394   8.981 -0.1798 -0.3455  0.1285
   74SLPC  H12R 6585   3.107   5.296   8.944  0.1427 -0.3087 -0.2577
   74SLPC  C213 6586   3.213   5.477   8.896  0.4033  0.7420 -0.0710
   74SLPC  H13R 6587   3.241   5.436   8.798  1.3459  0.0136  0.4931
   74SLPC  C214 6588   3.264   5.617   8.919  0.2994  0.1121 -0.6651
   74SLPC  H14R 6589   3.235   5.646   9.022  1.5055  0.1206 -0.3326
   74SLPC  H14S 6590   3.222   5.697   8.854  2.6198  1.3173 -0.7330
   74SLPC  C215 6591   3.414   5.624   8.913  0.2709  0.1664 -0.1846
   74SLPC  H15R 6592   3.459   5.718   8.951 -0.1923  0.2565  0.1329
   74SLPC  H15S 6593   3.446   5.600   8.809  2.7281 -0.4102  0.6611
   74SLPC  C216 6594   3.482   5.513   8.991 -0.7471  0.5047 -0.1270
   74SLPC  H16R 6595   3.465   5.420   8.933 -0.3045 -2.0703  3.6730
   74SLPC  H16S 6596   3.442   5.505   9.094 -1.8040  0.2948 -0.5507
   74SLPC  C217 6597   3.629   5.547   9.010  0.2731  0.1214  0.0561
   74SLPC  H17R 6598   3.685   5.472   9.070  0.3432  1.4371  1.6601
   74SLPC  H17S 6599   3.636   5.639   9.072 -0.4223 -1.0112  1.8482
   74SLPC  C218 6600   3.714   5.577   8.885  0.7162 -0.3651  0.0005
   74SLPC  H18R 6601   3.821   5.590   8.912  0.3872  1.7877  0.3751
   74SLPC  H18S 6602   3.693   5.676   8.838  1.6913  0.2000  0.7382
   74SLPC  H18T 6603   3.718   5.498   8.806 -1.3449  0.7994 -1.3246
   74SLPC   C33 6604   2.630   5.185   9.890 -0.1208  0.4544  0.7831
   74SLPC   H3X 6605   2.626   5.295   9.871 -1.2753  0.6309  1.9898
   74SLPC   H3Y 6606   2.569   5.156   9.978  1.2911 -0.8245  1.3703
   74SLPC   C34 6607   2.571   5.108   9.772  0.0574  0.2716 -0.1205
   74SLPC   H4X 6608   2.469   5.146   9.751  0.5664 -0.2974 -4.0950
   74SLPC   H4Y 6609   2.567   5.001   9.801 -0.8559  0.6786  1.2963
   74SLPC   C35 6610   2.645   5.126   9.632  0.0448  0.2271 -0.0380
   74SLPC   H5X 6611   2.702   5.036   9.604  2.6496  2.3811 -1.9352
   74SLPC   H5Y 6612   2.716   5.212   9.644  1.6982 -1.4902  3.2407
   74SLPC   C36 6613   2.560   5.166   9.516  0.9908 -0.0684 -0.3114
   74SLPC   H6X 6614   2.502   5.260   9.528  0.9280  0.0912 -1.7635
   74SLPC   H6Y 6615   2.485   5.084   9.510 -1.4763  1.8531  2.2175
   74SLPC   C37 6616   2.633   5.169   9.386 -0.2392 -0.8947  0.7902
   74SLPC   H7X 6617   2.694   5.077   9.368 -0.0883 -0.6362 -0.0720
   74SLPC   H7Y 6618   2.706   5.252   9.401  0.7802 -1.5896 -0.2027
   74SLPC   C38 6619   2.547   5.206   9.265 -0.2098  0.3655 -0.2886
   74SLPC   H8X 6620   2.510   5.308   9.291 -0.7688 -0.4622  2.3779
   74SLPC   H8Y 6621   2.461   5.136   9.257 -0.6214  0.9330 -0.8775
   74SLPC   C39 6622   2.624   5.217   9.136 -0.1566  0.3547 -0.0778
   74SLPC   H9X 6623   2.670   5.119   9.111 -1.8519 -0.0613 -1.7986
   74SLPC   H9Y 6624   2.713   5.280   9.150  1.2404 -1.2480 -1.4298
   74SLPC  C310 6625   2.533   5.282   9.021 -0.1199 -0.4332 -0.8682
   74SLPC  H10X 6626   2.591   5.290   8.927 -0.1423  0.9061 -0.7807
   74SLPC  H10Y 6627   2.508   5.384   9.058 -1.4323 -0.1036 -2.6072
   74SLPC  C311 6628   2.404   5.202   8.994 -0.9463 -0.6218  0.2478
   74SLPC  H11X 6629   2.350   5.252   8.910  0.2143  1.7990  0.8935
   74SLPC  H11Y 6630   2.336   5.200   9.082  0.9307 -0.3365  1.7280
   74SLPC  C312 6631   2.419   5.050   8.960 -0.3261  0.0609  0.2694
   74SLPC  H12X 6632   2.429   4.982   9.047 -1.1939 -0.0586  0.2707
   74SLPC  H12Y 6633   2.509   5.037   8.895  1.4480 -0.3096  2.7189
   74SLPC  C313 6634   2.306   4.982   8.867 -0.9266 -1.4800 -0.3409
   74SLPC  H13X 6635   2.314   5.031   8.768 -0.7347  0.9389  0.8285
   74SLPC  H13Y 6636   2.211   5.012   8.915 -0.4506 -2.5348  1.2895
   74SLPC  C314 6637   2.319   4.830   8.859 -0.2463  0.1615 -0.0473
   74SLPC  H14X 6638   2.307   4.785   8.960  1.4336 -2.1184 -0.8163
   74SLPC  H14Y 6639   2.422   4.804   8.825 -0.9116 -1.6002 -0.8036
   74SLPC  C315 6640   2.214   4.776   8.761  0.1962  0.2135 -0.1764
   74SLPC  H15X 6641   2.228   4.825   8.663 -1.4674  1.2384  0.0781
   74SLPC  H15Y 6642   2.113   4.805   8.798 -0.2230 -1.1341 -0.2343
   74SLPC  C316 6643   2.225   4.628   8.732  1.1233  0.5233 -0.8972
   74SLPC  H16X 6644   2.312   4.618   8.664  2.1963  0.9360  0.3886
   74SLPC  H16Y 6645   2.133   4.604   8.675 -0.2955  4.2477 -0.3183
   74SLPC  C317 6646   2.237   4.529   8.848  0.1942  0.5560 -0.0398
   74SLPC  H17X 6647   2.166   4.564   8.926 -1.7947  0.0263 -1.5645
   74SLPC  H17Y 6648   2.339   4.545   8.888 -0.1300  2.2687  0.1650
   74SLPC  C318 6649   2.208   4.388   8.801  0.1174  0.0260  0.1678
   74SLPC  H18X 6650   2.244   4.322   8.884 -1.5395  1.4318  2.0508
   74SLPC  H18Y 6651   2.259   4.360   8.707 -2.4350  1.8871 -1.8206
   74SLPC  H18Z 6652   2.103   4.371   8.772  0.0181  1.6143 -0.4541
   75SLPC     N 6653   1.407   1.897   6.117  0.4198 -0.1100 -0.1336
   75SLPC   C13 6654   1.490   1.955   5.997 -0.5102  0.0317  0.2637
   75SLPC  H13A 6655   1.423   2.005   5.930 -0.2343 -1.0092 -0.7964
   75SLPC  H13B 6656   1.567   2.025   6.026  0.1832 -1.2409  1.5897
   75SLPC  H13C 6657   1.531   1.867   5.950  0.2876 -0.0573  1.0995
   75SLPC   C14 6658   1.333   1.779   6.047 -0.1547  0.1556  0.3113
   75SLPC  H14A 6659   1.391   1.738   5.966 -1.1791 -1.5543  0.4105
   75SLPC  H14B 6660   1.312   1.703   6.121 -0.8858 -0.8178 -0.8644
   75SLPC  H14C 6661   1.235   1.811   6.017  0.5539 -0.3220 -2.7075
   75SLPC   C15 6662   1.318   2.001   6.162 -0.7018 -0.3152 -0.2096
   75SLPC  H15A 6663   1.239   1.975   6.231 -0.1798 -0.7841  0.2277
   75SLPC  H15B 6664   1.380   2.078   6.205 -0.9908 -0.6066  0.7466
   75SLPC  H15C 6665   1.276   2.047   6.074 -1.3255  0.1895  0.3484
   75SLPC   C12 6666   1.498   1.851   6.231 -0.2882  0.3780 -0.6648
   75SLPC  H12A 6667   1.551   1.937   6.270 -0.3220  0.2717 -0.3850
   75SLPC  H12B 6668   1.570   1.782   6.189  1.1138  0.7313  1.0998
   75SLPC   C11 6669   1.443   1.762   6.348  0.0724 -0.4176 -0.1078
   75SLPC  H11A 6670   1.348   1.814   6.375  0.7816  0.9479 -0.1516
   75SLPC  H11B 6671   1.490   1.765   6.449 -2.6246  0.9072  1.1670
   75SLPC     P 6672   1.524   1.538   6.264 -0.5563  0.1386  0.3009
   75SLPC   O13 6673   1.466   1.426   6.182  0.1652 -0.0035  0.2329
   75SLPC   O14 6674   1.638   1.612   6.208 -0.1258  0.1858  0.4783
   75SLPC   O12 6675   1.405   1.631   6.296  0.4746 -0.1194 -0.5208
   75SLPC   O11 6676   1.567   1.485   6.406  0.2586 -0.0118 -0.4131
   75SLPC    C1 6677   1.481   1.398   6.473 -0.6991 -0.3560  0.4919
   75SLPC    HA 6678   1.414   1.340   6.406  0.4878 -1.4814  0.2566
   75SLPC    HB 6679   1.540   1.325   6.532  0.4203  0.0496 -0.1027
   75SLPC    C2 6680   1.390   1.470   6.569  0.5479  0.3144  0.3382
   75SLPC    HS 6681   1.344   1.549   6.506 -1.1304 -1.1847 -0.3268
   75SLPC   O21 6682   1.464   1.513   6.690 -0.4337  0.1386  0.5597
   75SLPC   C21 6683   1.469   1.637   6.720  0.1157 -0.4353  0.1356
   75SLPC   O22 6684   1.416   1.729   6.660  0.2271 -0.1835  0.4763
   75SLPC   C22 6685   1.564   1.649   6.835 -0.2396  0.5556 -0.0821
   75SLPC   H2R 6686   1.552   1.560   6.900 -3.8864 -0.9550 -2.5921
   75SLPC   H2S 6687   1.668   1.636   6.798  0.8255  0.5994  2.7715
   75SLPC    C3 6688   1.263   1.402   6.622  0.7661 -0.2389 -0.4623
   75SLPC    HX 6689   1.306   1.316   6.677 -0.2308 -0.1126  0.5156
   75SLPC    HY 6690   1.208   1.368   6.532 -1.3682 -0.7449  1.0010
   75SLPC   O31 6691   1.180   1.488   6.699  0.4117 -1.0020  0.1112
   75SLPC   C31 6692   1.134   1.425   6.810  0.0486  0.1202  1.1335
   75SLPC   O32 6693   1.144   1.307   6.832 -0.1482  0.3494  0.4420
   75SLPC   C32 6694   1.053   1.519   6.895 -0.7320  0.0655  0.2939
   75SLPC   H2X 6695   0.953   1.472   6.882 -0.5462  0.4799 -3.2423
   75SLPC   H2Y 6696   1.054   1.622   6.853 -0.0552 -0.1666 -0.2696
   75SLPC   C23 6697   1.550   1.781   6.910 -0.2095 -0.5009 -0.3111
   75SLPC   H3R 6698   1.463   1.784   6.980  1.2901  2.2087  1.5042
   75SLPC   H3S 6699   1.554   1.869   6.843  1.6768  0.2057  0.6957
   75SLPC   C24 6700   1.684   1.803   6.985 -0.1116  0.0561  0.4461
   75SLPC   H4R 6701   1.684   1.912   7.009 -1.0456 -0.4210  2.8112
   75SLPC   H4S 6702   1.770   1.775   6.921  3.4133  2.0136  4.0478
   75SLPC   C25 6703   1.695   1.733   7.123 -0.3950 -0.0118  0.0544
   75SLPC   H5R 6704   1.701   1.623   7.112  0.0932  0.1792 -1.9233
   75SLPC   H5S 6705   1.601   1.755   7.179 -0.3732 -0.4853  0.2763
   75SLPC   C26 6706   1.808   1.781   7.211  0.0231 -0.5159  0.0974
   75SLPC   H6R 6707   1.773   1.876   7.257 -0.7963 -0.1253 -1.3134
   75SLPC   H6S 6708   1.901   1.801   7.154  1.2222  0.1491  2.2205
   75SLPC   C27 6709   1.844   1.684   7.326  0.5771  0.7701  0.5577
   75SLPC   H7R 6710   1.938   1.724   7.369  0.7104  1.2479 -0.1603
   75SLPC   H7S 6711   1.850   1.581   7.285 -0.7147  1.0047 -0.2577
   75SLPC   C28 6712   1.746   1.690   7.440 -1.0492  0.4048 -0.0905
   75SLPC   H8R 6713   1.644   1.669   7.402 -0.4796  0.6911 -1.8071
   75SLPC   H8S 6714   1.750   1.796   7.474 -0.6642  0.5757 -0.6595
   75SLPC   C29 6715   1.777   1.585   7.546  0.3657  0.2508  0.7763
   75SLPC   H9R 6716   1.761   1.481   7.513  1.9623 -0.2735  1.6526
   75SLPC  C210 6717   1.815   1.598   7.673  0.6990 -0.1192  0.4511
   75SLPC  H10R 6718   1.844   1.504   7.721 -0.1238 -0.0664  1.0692
   75SLPC  C211 6719   1.849   1.726   7.749  0.2964  0.2316  0.1016
   75SLPC  H11R 6720   1.771   1.725   7.828  1.2555  0.0743  1.0546
   75SLPC  H11S 6721   1.831   1.818   7.689  0.7831 -0.1188 -0.5854
   75SLPC  C212 6722   1.986   1.732   7.810  0.5078  0.0314 -0.0022
   75SLPC  H12R 6723   2.059   1.761   7.733  0.7141  1.2270  0.6331
   75SLPC  C213 6724   2.021   1.679   7.926  0.0620  1.1459 -0.2808
   75SLPC  H13R 6725   2.123   1.705   7.958  0.4873  0.0234 -0.7134
   75SLPC  C214 6726   1.922   1.618   8.022  0.4221  0.4991 -0.2843
   75SLPC  H14R 6727   1.974   1.556   8.098 -1.9698 -2.2818 -0.8265
   75SLPC  H14S 6728   1.853   1.539   7.984  0.5543  0.6247 -0.7878
   75SLPC  C215 6729   1.827   1.717   8.092  0.2649 -0.3002  0.3673
   75SLPC  H15R 6730   1.740   1.745   8.029  0.6112 -0.6483 -0.2749
   75SLPC  H15S 6731   1.888   1.805   8.121 -0.2697 -0.3685  1.7134
   75SLPC  C216 6732   1.780   1.663   8.229  0.2948 -1.0018 -0.3052
   75SLPC  H16R 6733   1.685   1.709   8.262  1.6040  1.6875 -0.1944
   75SLPC  H16S 6734   1.847   1.707   8.306  0.3769  0.2359 -1.0680
   75SLPC  C217 6735   1.746   1.513   8.253  0.2648  0.4424  0.1001
   75SLPC  H17R 6736   1.836   1.448   8.250 -0.1045 -0.0329 -2.0627
   75SLPC  H17S 6737   1.682   1.475   8.171 -1.5033  2.3920  0.5376
   75SLPC  C218 6738   1.653   1.477   8.371  0.2629 -0.4647 -0.4170
   75SLPC  H18R 6739   1.648   1.366   8.376  2.8672 -0.5100  2.1190
   75SLPC  H18S 6740   1.557   1.532   8.355  1.3071  1.5037 -0.0507
   75SLPC  H18T 6741   1.687   1.524   8.466  0.5460  0.1167 -0.8004
   75SLPC   C33 6742   1.091   1.523   7.047  0.3261 -0.2157  0.1149
   75SLPC   H3X 6743   1.030   1.608   7.084 -0.6095 -0.1322 -1.5923
   75SLPC   H3Y 6744   1.071   1.429   7.104 -1.0874  0.7506  1.2355
   75SLPC   C34 6745   1.242   1.547   7.076  0.7942  0.5367 -0.6293
   75SLPC   H4X 6746   1.272   1.626   7.004  1.3368 -0.9751 -2.0983
   75SLPC   H4Y 6747   1.298   1.455   7.045 -1.2564 -0.8945 -0.1892
   75SLPC   C35 6748   1.266   1.608   7.218  0.0244 -0.7768  0.6630
   75SLPC   H5X 6749   1.191   1.687   7.237 -1.0294 -1.6876  0.3644
   75SLPC   H5Y 6750   1.366   1.655   7.224 -0.4142  0.2372  0.0069
   75SLPC   C36 6751   1.266   1.507   7.334  0.0796 -0.4858  0.0437
   75SLPC   H6X 6752   1.334   1.423   7.310 -0.0489 -0.5436 -0.1253
   75SLPC   H6Y 6753   1.167   1.458   7.350 -0.7535  1.0880 -0.2438
   75SLPC   C37 6754   1.320   1.576   7.462 -0.5736 -0.5206 -0.6231
   75SLPC   H7X 6755   1.248   1.651   7.501 -1.0722 -0.8881 -0.8273
   75SLPC   H7Y 6756   1.418   1.621   7.437  0.8226 -1.8328  2.2518
   75SLPC   C38 6757   1.337   1.473   7.582  0.5818 -0.3572  0.1506
   75SLPC   H8X 6758   1.388   1.386   7.537  2.0944  0.8691 -0.5227
   75SLPC   H8Y 6759   1.242   1.440   7.630  0.4214  1.9002  1.4680
   75SLPC   C39 6760   1.430   1.537   7.685 -0.0576 -0.4817  0.1403
   75SLPC   H9X 6761   1.494   1.612   7.634  1.5208 -2.1150 -0.3093
   75SLPC   H9Y 6762   1.517   1.482   7.727  2.6477  2.3940 -1.4819
   75SLPC  C310 6763   1.347   1.603   7.803 -0.1945 -0.1071 -0.2637
   75SLPC  H10X 6764   1.286   1.527   7.856  2.1350 -1.1312  1.0275
   75SLPC  H10Y 6765   1.272   1.668   7.753  0.2174  0.1677 -0.5362
   75SLPC  C311 6766   1.438   1.671   7.912  0.0105  0.8438  0.3296
   75SLPC  H11X 6767   1.508   1.755   7.891  0.2088  0.1139 -2.0565
   75SLPC  H11Y 6768   1.516   1.604   7.953 -1.2615 -0.0184  1.3533
   75SLPC  C312 6769   1.355   1.716   8.033  0.3710  0.2539  0.5463
   75SLPC  H12X 6770   1.432   1.750   8.105  0.0734 -1.0587  1.5010
   75SLPC  H12Y 6771   1.315   1.617   8.065  0.5004 -0.7443 -2.2065
   75SLPC  C313 6772   1.227   1.801   8.018 -0.6167  0.2927  0.2677
   75SLPC  H13X 6773   1.152   1.747   7.956  2.0336 -1.5222 -1.4736
   75SLPC  H13Y 6774   1.248   1.890   7.955 -2.8782  0.3453 -0.4552
   75SLPC  C314 6775   1.159   1.836   8.156 -0.1109  0.7419 -0.4576
   75SLPC  H14X 6776   1.091   1.753   8.185 -1.5732  1.5366 -1.5306
   75SLPC  H14Y 6777   1.098   1.927   8.141  0.4119  1.0048 -1.0181
   75SLPC  C315 6778   1.262   1.852   8.265 -0.1261  0.4106 -0.2165
   75SLPC  H15X 6779   1.333   1.930   8.229 -0.8530  1.8881  1.4172
   75SLPC  H15Y 6780   1.320   1.760   8.287  1.3823  1.7769  1.7904
   75SLPC  C316 6781   1.193   1.901   8.395  0.0980 -0.2708  0.0540
   75SLPC  H16X 6782   1.129   1.814   8.419  0.0359 -0.7874 -1.9214
   75SLPC  H16Y 6783   1.135   1.993   8.372  0.2062  0.4538  2.4913
   75SLPC  C317 6784   1.289   1.920   8.506  0.5280  0.0294 -0.0585
   75SLPC  H17X 6785   1.350   2.009   8.480  0.5566  0.0670  0.1346
   75SLPC  H17Y 6786   1.364   1.837   8.503 -0.3349 -0.8485  1.8306
   75SLPC  C318 6787   1.225   1.948   8.640 -0.2489  0.7431 -1.0406
   75SLPC  H18X 6788   1.146   2.026   8.635  1.3102  2.3289 -1.6754
   75SLPC  H18Y 6789   1.305   1.989   8.705 -1.4183  2.5162 -0.6887
   75SLPC  H18Z 6790   1.176   1.860   8.686 -0.2000  1.7013  0.8823
   76SLPC     N 6791   2.481   0.067   6.045  0.5943  0.4527 -0.0635
   76SLPC   C13 6792   2.431   0.039   6.182  0.3135 -0.4638 -0.0901
   76SLPC  H13A 6793   2.325   0.017   6.177  0.1776 -0.5419  2.3296
   76SLPC  H13B 6794   2.488  -0.039   6.231  1.0303  1.3643  2.0738
   76SLPC  H13C 6795   2.436   0.126   6.246  0.2511 -0.0143 -0.6902
   76SLPC   C14 6796   2.383   0.148   5.973  0.1680 -0.7628  0.5876
   76SLPC  H14A 6797   2.363   0.244   6.016 -1.2512 -0.1698 -1.3096
   76SLPC  H14B 6798   2.422   0.150   5.872  1.9972  1.2386  1.2971
   76SLPC  H14C 6799   2.292   0.091   5.965 -0.5583  0.4239  0.3442
   76SLPC   C15 6800   2.487  -0.072   5.977 -0.0599 -0.2880  0.0634
   76SLPC  H15A 6801   2.542  -0.139   6.042  1.4679  0.0926 -0.8179
   76SLPC  H15B 6802   2.388  -0.111   5.960 -0.3952  0.8205 -0.5778
   76SLPC  H15C 6803   2.536  -0.060   5.882 -0.3961  2.7917  0.2476
   76SLPC   C12 6804   2.612   0.131   6.056 -0.7037  0.3788  0.1438
   76SLPC  H12A 6805   2.643   0.151   5.954 -1.8982  2.1727  0.1136
   76SLPC  H12B 6806   2.682   0.055   6.087 -1.2036 -0.1380 -0.0004
   76SLPC   C11 6807   2.618   0.257   6.149 -0.1790  0.4901 -0.7240
   76SLPC  H11A 6808   2.545   0.330   6.109 -2.8504 -0.9066  1.3869
   76SLPC  H11B 6809   2.709   0.319   6.140 -0.9452  1.5616 -1.1807
   76SLPC     P 6810   2.710   0.165   6.376  0.1703  0.5925  0.1332
   76SLPC   O13 6811   2.654   0.136   6.507  0.0339  0.3393 -0.3094
   76SLPC   O14 6812   2.770   0.063   6.291 -0.1734  0.0303 -0.3697
   76SLPC   O12 6813   2.599   0.230   6.288  0.2744 -0.4830  0.1427
   76SLPC   O11 6814   2.823   0.279   6.402 -0.2686 -0.1320  0.4829
   76SLPC    C1 6815   2.789   0.416   6.384 -0.6420 -0.0564 -0.7638
   76SLPC    HA 6816   2.849   0.455   6.299  0.6722  1.1032  0.6685
   76SLPC    HB 6817   2.682   0.438   6.361 -1.5025 -2.0924  1.0418
   76SLPC    C2 6818   2.826   0.489   6.514  0.1049 -0.5179  0.0089
   76SLPC    HS 6819   2.779   0.590   6.518  0.7647 -0.2429  0.8581
   76SLPC   O21 6820   2.973   0.493   6.526 -0.1664 -0.8448 -0.0700
   76SLPC   C21 6821   3.039   0.596   6.474  0.6519 -0.5557 -0.5110
   76SLPC   O22 6822   2.989   0.683   6.410  0.3844 -0.3418 -0.0067
   76SLPC   C22 6823   3.189   0.588   6.493  0.5830 -0.5825 -0.4216
   76SLPC   H2R 6824   3.225   0.630   6.397  1.0075 -1.7655 -0.7867
   76SLPC   H2S 6825   3.218   0.651   6.580  3.3935 -1.2894 -0.8181
   76SLPC    C3 6826   2.766   0.420   6.636  0.3821 -0.6097 -0.1364
   76SLPC    HX 6827   2.792   0.312   6.632  0.9626 -0.4528 -0.6714
   76SLPC    HY 6828   2.655   0.419   6.635  0.3521 -0.6250  1.5487
   76SLPC   O31 6829   2.814   0.481   6.760 -0.4847 -0.6991  0.5992
   76SLPC   C31 6830   2.758   0.411   6.866  0.2338  0.4793  0.3664
   76SLPC   O32 6831   2.657   0.343   6.866  0.5900 -0.4675  0.2437
   76SLPC   C32 6832   2.830   0.438   6.998 -0.1696 -0.0026 -1.1962
   76SLPC   H2X 6833   2.848   0.547   7.001 -2.8755  0.4436  0.8807
   76SLPC   H2Y 6834   2.926   0.382   6.999  0.5205  1.1461  1.6135
   76SLPC   C23 6835   3.243   0.441   6.508  0.4451  0.2934  0.0909
   76SLPC   H3R 6836   3.221   0.390   6.411  0.2988 -0.5320  0.5518
   76SLPC   H3S 6837   3.177   0.388   6.579 -0.7766  2.0506  0.2992
   76SLPC   C24 6838   3.389   0.426   6.528  0.3138  0.1756  0.1781
   76SLPC   H4R 6839   3.429   0.477   6.619  1.8099 -0.0761 -0.3243
   76SLPC   H4S 6840   3.443   0.466   6.440 -2.3106 -1.7628 -2.4083
   76SLPC   C25 6841   3.417   0.276   6.533 -0.1124 -0.1636 -0.0888
   76SLPC   H5R 6842   3.393   0.232   6.434 -2.8115 -2.3039  1.4394
   76SLPC   H5S 6843   3.355   0.218   6.605 -0.4173  2.0396  1.5075
   76SLPC   C26 6844   3.563   0.258   6.567 -0.3437  0.3104 -0.5948
   76SLPC   H6R 6845   3.586   0.317   6.658  1.8392 -2.1168  0.4775
   76SLPC   H6S 6846   3.619   0.304   6.482 -1.7763 -0.9737 -2.2776
   76SLPC   C27 6847   3.598   0.113   6.582 -1.7907 -0.2264 -0.6794
   76SLPC   H7R 6848   3.594   0.060   6.484 -2.0534  0.0546 -0.8233
   76SLPC   H7S 6849   3.528   0.045   6.636 -0.0477 -1.1698  0.4243
   76SLPC   C28 6850   3.746   0.089   6.640 -0.4081 -0.1307 -0.3591
   76SLPC   H8R 6851   3.774  -0.017   6.624  0.3552 -0.0666  0.5363
   76SLPC   H8S 6852   3.816   0.158   6.588 -0.1619 -0.6803 -0.7738
   76SLPC   C29 6853   3.756   0.112   6.791  0.1056 -0.3657  0.5375
   76SLPC   H9R 6854   3.688   0.060   6.860  1.1806  0.3754  2.1624
   76SLPC  C210 6855   3.844   0.186   6.851 -0.2634 -0.7090  0.0414
   76SLPC  H10R 6856   3.858   0.184   6.960  1.1419 -2.4985 -0.1446
   76SLPC  C211 6857   3.951   0.281   6.798  0.7293 -0.3263  0.3637
   76SLPC  H11R 6858   3.955   0.369   6.866  3.4586 -0.3447  0.2783
   76SLPC  H11S 6859   3.908   0.321   6.704 -1.3655 -1.1193  0.9559
   76SLPC  C212 6860   4.085   0.210   6.780  0.2373  0.4833 -0.3692
   76SLPC  H12R 6861   4.080   0.123   6.713 -1.2580  1.4329 -1.5355
   76SLPC  C213 6862   4.205   0.240   6.834  0.1415 -0.2566 -0.2541
   76SLPC  H13R 6863   4.287   0.169   6.816  0.4074 -0.8235  2.8602
   76SLPC  C214 6864   4.228   0.361   6.918  0.0170 -0.1105 -0.5807
   76SLPC  H14R 6865   4.164   0.449   6.895  0.6595  1.1162  2.0759
   76SLPC  H14S 6866   4.328   0.406   6.901 -0.0195 -0.7175 -2.5505
   76SLPC  C215 6867   4.202   0.334   7.071 -0.1649  0.5055  0.6578
   76SLPC  H15R 6868   4.287   0.268   7.101  0.6615  2.4198  2.5975
   76SLPC  H15S 6869   4.108   0.278   7.092  1.0092 -1.9131 -0.3455
   76SLPC  C216 6870   4.220   0.455   7.166  0.0618 -0.4422  0.2194
   76SLPC  H16R 6871   4.142   0.533   7.156  0.6602  0.0737 -0.5255
   76SLPC  H16S 6872   4.320   0.493   7.135 -1.4927  3.1072 -0.7653
   76SLPC  C217 6873   4.223   0.420   7.316 -0.0076  0.1771 -0.3512
   76SLPC  H17R 6874   4.233   0.517   7.370 -2.0484  0.4331 -0.4111
   76SLPC  H17S 6875   4.311   0.357   7.340 -0.6406  0.1811  2.0872
   76SLPC  C218 6876   4.095   0.369   7.381 -1.1604  0.3178  0.8221
   76SLPC  H18R 6877   4.066   0.269   7.341  0.3929  0.2001 -0.0436
   76SLPC  H18S 6878   4.015   0.441   7.355 -0.0744  0.6275 -1.8360
   76SLPC  H18T 6879   4.091   0.362   7.492 -2.1364  1.7213  0.8746
   76SLPC   C33 6880   2.740   0.393   7.114  0.0733 -0.4465  0.3532
   76SLPC   H3X 6881   2.717   0.285   7.119 -0.5118 -0.2950  1.0281
   76SLPC   H3Y 6882   2.647   0.454   7.105  1.4041  2.2567  3.7805
   76SLPC   C34 6883   2.813   0.404   7.249  0.2499  0.5818  0.5801
   76SLPC   H4X 6884   2.862   0.502   7.265 -1.1397  1.2196  1.0524
   76SLPC   H4Y 6885   2.886   0.321   7.259  0.9170  1.3188  2.1095
   76SLPC   C35 6886   2.716   0.397   7.371  0.1424 -0.4089  0.1625
   76SLPC   H5X 6887   2.622   0.342   7.350  1.1550 -1.4895 -1.6831
   76SLPC   H5Y 6888   2.700   0.501   7.406  1.5498 -0.2965  0.5149
   76SLPC   C36 6889   2.773   0.323   7.493 -0.0365  0.6065 -0.0516
   76SLPC   H6X 6890   2.800   0.225   7.449  2.6187  1.1362  0.3361
   76SLPC   H6Y 6891   2.702   0.299   7.576 -0.7288 -1.0434 -1.1028
   76SLPC   C37 6892   2.909   0.374   7.540 -0.4187 -0.3684 -0.6343
   76SLPC   H7X 6893   2.884   0.470   7.591 -0.7297 -1.0275  0.4661
   76SLPC   H7Y 6894   2.976   0.401   7.456  1.3139 -1.8654  0.2364
   76SLPC   C38 6895   2.982   0.301   7.656  0.6691  0.1310 -0.4155
   76SLPC   H8X 6896   3.055   0.235   7.605  1.8924 -0.6741  2.2866
   76SLPC   H8Y 6897   2.917   0.230   7.712 -0.3126 -0.0820 -1.7971
   76SLPC   C39 6898   3.050   0.395   7.760  0.2071 -0.2978 -0.5577
   76SLPC   H9X 6899   2.967   0.427   7.827  0.0693  2.8433 -2.1411
   76SLPC   H9Y 6900   3.105   0.479   7.713 -1.7128  2.0246  1.1815
   76SLPC  C310 6901   3.155   0.314   7.849  0.9454  0.1413 -0.1175
   76SLPC  H10X 6902   3.238   0.274   7.788 -0.2908 -2.7998  0.0742
   76SLPC  H10Y 6903   3.102   0.236   7.908 -0.2504  1.2953  0.3641
   76SLPC  C311 6904   3.218   0.420   7.942 -0.4057 -0.0397  0.2072
   76SLPC  H11X 6905   3.138   0.450   8.013 -0.8588  0.2241 -0.4188
   76SLPC  H11Y 6906   3.246   0.513   7.887  1.0124 -1.3454 -1.3555
   76SLPC  C312 6907   3.332   0.359   8.023  0.1927 -0.9167 -0.8905
   76SLPC  H12X 6908   3.416   0.331   7.956  2.0375  3.1500 -0.4249
   76SLPC  H12Y 6909   3.305   0.258   8.061 -1.1412 -0.2566 -0.0297
   76SLPC  C313 6910   3.365   0.446   8.146  0.3509 -0.5985 -0.7492
   76SLPC  H13X 6911   3.269   0.481   8.191 -1.1257 -2.9026 -2.0793
   76SLPC  H13Y 6912   3.420   0.532   8.101  0.8041 -0.3617  0.2208
   76SLPC  C314 6913   3.459   0.372   8.244  1.0067 -0.2808  0.0850
   76SLPC  H14X 6914   3.521   0.306   8.180 -2.3939 -2.4132 -1.1449
   76SLPC  H14Y 6915   3.401   0.318   8.321 -0.0192 -3.3734 -2.7849
   76SLPC  C315 6916   3.552   0.474   8.311  0.3467 -0.2006  0.9825
   76SLPC  H15X 6917   3.481   0.549   8.353 -2.6894 -2.4729  0.1068
   76SLPC  H15Y 6918   3.615   0.537   8.244 -0.5678  0.0902  0.3839
   76SLPC  C316 6919   3.647   0.411   8.420  0.5469 -0.2910 -0.2737
   76SLPC  H16X 6920   3.585   0.334   8.470 -0.8820  1.0118  0.0025
   76SLPC  H16Y 6921   3.690   0.489   8.487  3.2753 -2.6904  0.8466
   76SLPC  C317 6922   3.772   0.357   8.360 -0.4460 -0.4982 -0.2708
   76SLPC  H17X 6923   3.814   0.422   8.281  0.8056 -0.2176  0.6143
   76SLPC  H17Y 6924   3.747   0.266   8.300  1.1273 -0.5655 -0.8550
   76SLPC  C318 6925   3.898   0.326   8.449  0.4284  1.0201  0.1255
   76SLPC  H18X 6926   3.985   0.299   8.386 -1.3814 -1.0184 -1.5631
   76SLPC  H18Y 6927   3.862   0.239   8.509  0.3287  1.6709  1.0226
   76SLPC  H18Z 6928   3.926   0.414   8.511  0.1186  1.7261 -0.7266
   77SLPC     N 6929   6.316   6.144   6.224  0.2414 -0.2613  0.0374
   77SLPC   C13 6930   6.394   6.184   6.106  0.5288 -0.3437 -0.3048
   77SLPC  H13A 6931   6.494   6.143   6.105  0.9913  0.4829  3.5987
   77SLPC  H13B 6932   6.349   6.143   6.017  0.8078  1.4883 -1.3143
   77SLPC  H13C 6933   6.409   6.290   6.093  3.4515 -0.4613  1.5071
   77SLPC   C14 6934   6.315   5.995   6.226  0.1548 -0.1768 -0.1052
   77SLPC  H14A 6935   6.407   5.958   6.183 -0.8765  0.1232 -2.6597
   77SLPC  H14B 6936   6.308   5.953   6.326  2.3863 -0.6127 -0.0949
   77SLPC  H14C 6937   6.233   5.960   6.165 -1.9299  1.9970  1.3804
   77SLPC   C15 6938   6.179   6.198   6.207  0.2396  0.9788 -0.0033
   77SLPC  H15A 6939   6.197   6.305   6.206 -1.0604  1.2050 -1.5832
   77SLPC  H15B 6940   6.128   6.168   6.117 -0.4332 -1.3463  1.1229
   77SLPC  H15C 6941   6.122   6.176   6.296 -0.2633 -0.9824 -0.7961
   77SLPC   C12 6942   6.387   6.201   6.349 -0.0380  0.5067 -0.4079
   77SLPC  H12A 6943   6.471   6.133   6.358  0.2051  0.8251 -0.2801
   77SLPC  H12B 6944   6.318   6.195   6.432 -0.1982  0.4312 -0.5461
   77SLPC   C11 6945   6.455   6.338   6.335 -0.2358 -0.1801  0.1951
   77SLPC  H11A 6946   6.535   6.323   6.259 -2.3720  0.9149 -2.3698
   77SLPC  H11B 6947   6.497   6.374   6.431 -1.2073 -0.9091  0.8936
   77SLPC     P 6948   6.380   6.592   6.258 -0.3283  0.0429  0.3515
   77SLPC   O13 6949   6.476   6.629   6.148  0.8914 -0.2455 -0.2140
   77SLPC   O14 6950   6.238   6.645   6.241 -0.1419  0.0109  0.1436
   77SLPC   O12 6951   6.361   6.433   6.277 -0.4250 -0.3793  0.1376
   77SLPC   O11 6952   6.437   6.658   6.388 -0.1139  0.3020  0.2271
   77SLPC    C1 6953   6.373   6.632   6.513 -0.4296 -1.4388  0.2715
   77SLPC    HA 6954   6.267   6.605   6.497 -0.7063 -1.8737  2.6871
   77SLPC    HB 6955   6.423   6.550   6.569  2.1028 -0.3839 -0.3638
   77SLPC    C2 6956   6.362   6.764   6.599  0.3596 -0.4447  0.3518
   77SLPC    HS 6957   6.341   6.847   6.528 -0.4385 -1.2459 -0.3622
   77SLPC   O21 6958   6.487   6.785   6.668 -0.5580 -0.7560  0.0841
   77SLPC   C21 6959   6.526   6.910   6.699 -0.8442 -0.1536  0.2550
   77SLPC   O22 6960   6.461   7.012   6.690  0.0542 -0.2189 -0.5742
   77SLPC   C22 6961   6.663   6.900   6.771 -0.0557  0.0764 -0.4978
   77SLPC   H2R 6962   6.732   6.850   6.699  2.2420  2.0650  0.2286
   77SLPC   H2S 6963   6.694   7.005   6.791  0.4692 -0.1174 -0.2903
   77SLPC    C3 6964   6.246   6.763   6.712  0.0589  0.1406 -0.8810
   77SLPC    HX 6965   6.147   6.742   6.667 -0.8779 -0.3275  1.3407
   77SLPC    HY 6966   6.243   6.867   6.751 -0.4139  1.6056 -4.6238
   77SLPC   O31 6967   6.271   6.671   6.815  0.0753 -0.3998 -0.3517
   77SLPC   C31 6968   6.171   6.666   6.906 -0.8849 -0.2760  0.0927
   77SLPC   O32 6969   6.063   6.714   6.891  0.0114  0.6413 -0.5529
   77SLPC   C32 6970   6.228   6.603   7.036  0.5918  0.0716 -0.1063
   77SLPC   H2X 6971   6.298   6.677   7.080 -0.9101  1.0090  0.7726
   77SLPC   H2Y 6972   6.298   6.518   7.019  1.4350  1.0157 -1.5071
   77SLPC   C23 6973   6.664   6.825   6.908 -0.1144  0.4923 -0.3817
   77SLPC   H3R 6974   6.763   6.825   6.958 -0.3389  0.5443  0.0658
   77SLPC   H3S 6975   6.650   6.715   6.895  3.1650  0.0219 -0.3073
   77SLPC   C24 6976   6.562   6.875   7.017 -0.1407 -0.3864 -0.3705
   77SLPC   H4R 6977   6.465   6.840   6.974 -0.4698 -1.1310  0.9754
   77SLPC   H4S 6978   6.564   6.986   7.027  1.4773 -0.2655 -1.8284
   77SLPC   C25 6979   6.580   6.808   7.152 -0.0452  0.1375 -0.2592
   77SLPC   H5R 6980   6.678   6.827   7.200 -0.9643  0.0215  1.7217
   77SLPC   H5S 6981   6.572   6.698   7.138  0.8444 -0.2203  1.9212
   77SLPC   C26 6982   6.476   6.853   7.261  1.2126 -0.2038  0.2503
   77SLPC   H6R 6983   6.490   6.775   7.339  0.9192 -0.1474  0.3572
   77SLPC   H6S 6984   6.379   6.850   7.208  2.3921 -0.3130 -1.9741
   77SLPC   C27 6985   6.490   6.993   7.324  0.8589  0.0030 -0.1074
   77SLPC   H7R 6986   6.401   7.013   7.387 -0.1784  0.5218 -1.7155
   77SLPC   H7S 6987   6.499   7.073   7.248  1.7379  0.5149  0.5243
   77SLPC   C28 6988   6.621   6.998   7.419 -0.2577  0.4252 -0.3709
   77SLPC   H8R 6989   6.703   6.978   7.346 -0.8157 -1.9818 -0.3946
   77SLPC   H8S 6990   6.620   6.909   7.486  0.4004  1.7426  1.4399
   77SLPC   C29 6991   6.650   7.133   7.499  0.6404  0.2372 -0.2137
   77SLPC   H9R 6992   6.680   7.219   7.437 -0.1065  0.5014 -0.2078
   77SLPC  C210 6993   6.666   7.135   7.634  0.6774 -0.1129  0.0181
   77SLPC  H10R 6994   6.700   7.231   7.676 -1.3040 -0.1843  1.8974
   77SLPC  C211 6995   6.644   7.027   7.738  0.7476  0.0200 -0.2059
   77SLPC  H11R 6996   6.658   7.075   7.836 -0.4751 -1.2638  0.6209
   77SLPC  H11S 6997   6.721   6.949   7.721  1.5962  0.7913  0.0986
   77SLPC  C212 6998   6.502   6.972   7.736  0.5491  0.4605  0.0643
   77SLPC  H12R 6999   6.462   6.926   7.645  0.0852 -0.2156  0.5959
   77SLPC  C213 7000   6.416   6.968   7.839  0.7264  0.4966 -1.6567
   77SLPC  H13R 7001   6.318   6.921   7.824  0.8169 -0.2486 -0.0341
   77SLPC  C214 7002   6.438   7.011   7.983 -0.3301  0.4690  0.2766
   77SLPC  H14R 7003   6.422   7.121   7.986  1.6719  0.8634 -1.8492
   77SLPC  H14S 7004   6.537   6.990   8.030 -0.2168 -0.2006 -0.2450
   77SLPC  C215 7005   6.337   6.955   8.088 -0.0199  0.2760 -0.2472
   77SLPC  H15R 7006   6.368   6.985   8.191 -1.1807 -1.1670  0.5377
   77SLPC  H15S 7007   6.338   6.844   8.084  0.7932  0.3346 -2.2617
   77SLPC  C216 7008   6.194   7.002   8.067 -0.3477 -0.3140  0.1606
   77SLPC  H16R 7009   6.164   6.972   7.965 -0.4404 -0.3335  0.1951
   77SLPC  H16S 7010   6.175   7.110   8.088  0.4126  0.1811 -1.6035
   77SLPC  C217 7011   6.088   6.926   8.145 -0.8248 -1.1961 -0.0446
   77SLPC  H17R 7012   6.017   7.000   8.187 -0.2600 -0.8859  0.3681
   77SLPC  H17S 7013   6.145   6.888   8.232 -1.1245 -0.9905  0.2361
   77SLPC  C218 7014   6.021   6.807   8.069  0.0715  0.2789 -0.8931
   77SLPC  H18R 7015   5.957   6.758   8.145  2.3532  0.0251  0.8994
   77SLPC  H18S 7016   6.093   6.737   8.022  1.4979  0.8051  0.4594
   77SLPC  H18T 7017   5.949   6.854   7.998 -0.7787 -1.7808 -1.4192
   77SLPC   C33 7018   6.122   6.555   7.137 -0.2756  0.0760  0.1342
   77SLPC   H3X 7019   6.053   6.637   7.162  2.0443  2.2241 -0.2851
   77SLPC   H3Y 7020   6.171   6.529   7.234  0.5204 -3.9815 -1.2277
   77SLPC   C34 7021   6.041   6.432   7.095  0.5073 -0.5976 -0.0618
   77SLPC   H4X 7022   6.110   6.345   7.097 -0.1403 -1.1440 -0.8198
   77SLPC   H4Y 7023   5.995   6.453   6.996 -1.8455 -1.4184  0.8188
   77SLPC   C35 7024   5.925   6.417   7.199  0.1793 -0.0545  0.4990
   77SLPC   H5X 7025   5.835   6.396   7.138  0.2436  0.6885  0.1345
   77SLPC   H5Y 7026   5.916   6.516   7.250  0.9354  0.0777  0.3904
   77SLPC   C36 7027   5.962   6.305   7.302  0.1626 -0.2533  0.2668
   77SLPC   H6X 7028   6.064   6.314   7.344 -0.1447 -2.7269  1.6295
   77SLPC   H6Y 7029   5.953   6.211   7.244  0.7662  0.1976 -0.5863
   77SLPC   C37 7030   5.880   6.301   7.428  0.2097  0.1830 -0.0241
   77SLPC   H7X 7031   5.774   6.279   7.405  0.3462 -3.0909  2.1176
   77SLPC   H7Y 7032   5.898   6.405   7.465  0.9488  0.0646 -0.0388
   77SLPC   C38 7033   5.936   6.198   7.528  0.3083 -0.6084 -0.5389
   77SLPC   H8X 7034   5.890   6.234   7.623 -1.3007  0.7891 -1.8200
   77SLPC   H8Y 7035   6.046   6.208   7.541  0.1176 -0.4903  1.2217
   77SLPC   C39 7036   5.908   6.044   7.507 -0.0491 -0.1399  0.7246
   77SLPC   H9X 7037   5.980   6.005   7.431  0.9380  1.7400  0.6498
   77SLPC   H9Y 7038   5.808   6.031   7.461 -0.0558 -0.4289  0.8195
   77SLPC  C310 7039   5.906   5.949   7.631  0.0887 -0.7054 -0.1261
   77SLPC  H10X 7040   5.900   5.842   7.599 -0.4758 -0.0158 -2.4667
   77SLPC  H10Y 7041   5.807   5.962   7.678  0.1203 -0.7392 -0.0515
   77SLPC  C311 7042   6.012   5.965   7.728 -0.0603 -0.7417  0.3566
   77SLPC  H11X 7043   6.031   6.071   7.754 -0.7256 -1.0672  2.2061
   77SLPC  H11Y 7044   6.110   5.923   7.695  0.1118  1.1038 -1.5970
   77SLPC  C312 7045   6.005   5.895   7.864  0.3551  0.2147  0.2922
   77SLPC  H12X 7046   6.088   5.944   7.919  1.5134 -1.5864  0.1819
   77SLPC  H12Y 7047   6.013   5.785   7.851  0.5594  0.1796  0.7052
   77SLPC  C313 7048   5.882   5.936   7.954  0.0953  0.4918  0.1065
   77SLPC  H13X 7049   5.839   6.035   7.925  1.3400  0.8426 -0.5800
   77SLPC  H13Y 7050   5.922   5.942   8.057  3.7646  4.3517 -1.3853
   77SLPC  C314 7051   5.771   5.829   7.932  0.2606 -0.0273  0.8510
   77SLPC  H14X 7052   5.811   5.726   7.939  0.5572  0.0978  0.9858
   77SLPC  H14Y 7053   5.724   5.845   7.832  1.7667  2.9763  0.5776
   77SLPC  C315 7054   5.668   5.849   8.044 -0.3738 -0.4504  0.5235
   77SLPC  H15X 7055   5.632   5.953   8.032  0.6339 -0.2153 -0.6372
   77SLPC  H15Y 7056   5.720   5.849   8.142  1.7883  0.2899 -0.5855
   77SLPC  C316 7057   5.559   5.743   8.026  0.1724 -0.6780  0.1969
   77SLPC  H16X 7058   5.599   5.640   8.013 -0.7919 -1.1737  1.0445
   77SLPC  H16Y 7059   5.500   5.765   7.935  0.4144 -4.7370 -1.0238
   77SLPC  C317 7060   5.451   5.735   8.135 -0.2448  0.5786 -0.2173
   77SLPC  H17X 7061   5.390   5.825   8.114 -0.5405  0.4224 -0.0285
   77SLPC  H17Y 7062   5.504   5.736   8.233 -1.1256 -0.4302  0.2809
   77SLPC  C318 7063   5.354   5.620   8.124  0.0705 -0.5612 -0.3991
   77SLPC  H18X 7064   5.395   5.519   8.140  0.1480 -0.9347 -2.7535
   77SLPC  H18Y 7065   5.311   5.620   8.021  2.5563  1.3191 -1.4680
   77SLPC  H18Z 7066   5.278   5.642   8.202  1.5647  0.5743  0.7543
   78SLPC     N 7067   1.385   6.587   6.149 -0.5638  0.4243  0.2934
   78SLPC   C13 7068   1.301   6.478   6.084 -0.1074  0.4806  0.2177
   78SLPC  H13A 7069   1.202   6.519   6.072 -0.5966 -0.3135  1.4020
   78SLPC  H13B 7070   1.345   6.430   5.997  0.6503  0.2470  0.7165
   78SLPC  H13C 7071   1.280   6.394   6.148 -5.1967  2.5067  1.3880
   78SLPC   C14 7072   1.370   6.715   6.067  0.3210  0.1369  0.4377
   78SLPC  H14A 7073   1.270   6.754   6.051  0.8308  0.7115 -1.5422
   78SLPC  H14B 7074   1.431   6.796   6.104  1.4612 -0.1892 -0.6980
   78SLPC  H14C 7075   1.398   6.698   5.964  0.1669 -2.0953  0.7351
   78SLPC   C15 7076   1.531   6.547   6.151  0.6929 -0.5584  0.0937
   78SLPC  H15A 7077   1.555   6.544   6.046 -2.2200 -0.2333 -0.6349
   78SLPC  H15B 7078   1.585   6.622   6.206  1.2938 -1.1288  0.2867
   78SLPC  H15C 7079   1.547   6.447   6.191 -1.5300 -0.6675  0.7915
   78SLPC   C12 7080   1.339   6.609   6.288  0.1452 -0.1533 -0.3051
   78SLPC  H12A 7081   1.318   6.518   6.341  1.7465 -0.2832  0.1443
   78SLPC  H12B 7082   1.247   6.663   6.275 -0.3498 -0.8111  0.4980
   78SLPC   C11 7083   1.428   6.709   6.378  0.3912  0.5775  0.0603
   78SLPC  H11A 7084   1.536   6.681   6.383  0.0907 -0.7522 -0.6593
   78SLPC  H11B 7085   1.394   6.692   6.482 -1.7422 -0.3089 -0.7521
   78SLPC     P 7086   1.298   6.934   6.382 -0.3769 -0.3278  0.0850
   78SLPC   O13 7087   1.277   7.049   6.294  0.4840 -0.2668 -0.3798
   78SLPC   O14 7088   1.178   6.856   6.418  0.5476 -0.0947 -0.0395
   78SLPC   O12 7089   1.420   6.848   6.329  0.0483 -0.0492 -0.1554
   78SLPC   O11 7090   1.367   6.979   6.516  0.5508  0.2229 -0.4333
   78SLPC    C1 7091   1.506   7.005   6.530 -0.4852 -0.4409 -0.1991
   78SLPC    HA 7092   1.566   6.932   6.471  2.1694  0.3163  1.4592
   78SLPC    HB 7093   1.530   7.112   6.514 -0.2543 -0.0800  2.2446
   78SLPC    C2 7094   1.538   6.985   6.678 -0.0594  0.5305  0.3342
   78SLPC    HS 7095   1.485   7.060   6.740  0.3271 -1.1425  2.7481
   78SLPC   O21 7096   1.675   6.990   6.710  0.5495  0.4212  0.2425
   78SLPC   C21 7097   1.713   7.108   6.752  0.0017 -0.1602  0.8112
   78SLPC   O22 7098   1.655   7.217   6.754 -0.6742  0.1587 -0.1633
   78SLPC   C22 7099   1.859   7.091   6.797 -1.1354  0.4786 -0.1856
   78SLPC   H2R 7100   1.863   7.004   6.865 -3.0764  1.3840  1.1490
   78SLPC   H2S 7101   1.910   7.073   6.700  0.4609  0.7771  0.5850
   78SLPC    C3 7102   1.497   6.852   6.724  0.1868  0.4496 -0.2633
   78SLPC    HX 7103   1.555   6.771   6.676 -0.4827 -0.0838 -0.1910
   78SLPC    HY 7104   1.390   6.830   6.701  0.6100 -0.1299 -1.7568
   78SLPC   O31 7105   1.516   6.840   6.870 -0.2358 -0.4989  0.1767
   78SLPC   C31 7106   1.618   6.768   6.911  0.2799  0.0366 -0.3123
   78SLPC   O32 7107   1.699   6.703   6.843  0.0830 -0.1941 -0.1653
   78SLPC   C32 7108   1.641   6.793   7.060 -0.0066  0.0313 -0.3550
   78SLPC   H2X 7109   1.550   6.764   7.116 -0.3845  0.7506 -0.5893
   78SLPC   H2Y 7110   1.667   6.901   7.071 -1.8070  0.2170  2.5929
   78SLPC   C23 7111   1.918   7.219   6.869 -0.5218 -0.6745 -0.3473
   78SLPC   H3R 7112   1.861   7.237   6.962 -0.9200 -0.9251 -0.5395
   78SLPC   H3S 7113   1.902   7.311   6.808  2.4643 -0.1639 -0.4777
   78SLPC   C24 7114   2.069   7.213   6.897 -0.1756  0.3630  0.4370
   78SLPC   H4R 7115   2.095   7.295   6.968 -0.7356 -0.7087  1.8941
   78SLPC   H4S 7116   2.136   7.227   6.810 -0.5604 -2.0309 -0.2520
   78SLPC   C25 7117   2.117   7.088   6.973  0.0004  0.6511  0.2441
   78SLPC   H5R 7118   2.225   7.110   6.990  0.3784 -0.1084 -1.1003
   78SLPC   H5S 7119   2.110   7.000   6.905  1.8827  1.8082 -1.5174
   78SLPC   C26 7120   2.054   7.061   7.108 -0.1097 -0.1620 -0.0891
   78SLPC   H6R 7121   1.948   7.036   7.091 -0.0408 -2.5226  2.6599
   78SLPC   H6S 7122   2.065   7.159   7.161 -0.3448  0.2646 -0.8220
   78SLPC   C27 7123   2.123   6.952   7.200  0.7740  0.4719 -0.1999
   78SLPC   H7R 7124   2.105   6.850   7.160  0.7512 -0.0016  1.0176
   78SLPC   H7S 7125   2.075   6.950   7.300  2.5366  3.1750  0.7411
   78SLPC   C28 7126   2.278   6.957   7.215  0.1112 -0.2824 -0.0638
   78SLPC   H8R 7127   2.323   6.961   7.113 -1.2988 -0.8784 -0.7208
   78SLPC   H8S 7128   2.309   6.859   7.259  1.1841  0.2751  0.4352
   78SLPC   C29 7129   2.331   7.080   7.283 -0.8478 -0.6054 -0.6536
   78SLPC   H9R 7130   2.323   7.176   7.232  1.5818  0.6276  1.1793
   78SLPC  C210 7131   2.372   7.075   7.411  0.6956 -0.2438 -0.1992
   78SLPC  H10R 7132   2.409   7.168   7.457 -2.3661  0.0225  1.9190
   78SLPC  C211 7133   2.372   6.954   7.505  0.0269  0.5087  0.0671
   78SLPC  H11R 7134   2.478   6.945   7.535  0.4430  1.3396 -1.1496
   78SLPC  H11S 7135   2.344   6.859   7.454 -1.6791  0.7476  0.5243
   78SLPC  C212 7136   2.272   6.960   7.627 -0.2739 -0.5100  0.2643
   78SLPC  H12R 7137   2.168   6.982   7.595 -0.3789  0.1107  1.0180
   78SLPC  C213 7138   2.305   6.963   7.760 -0.0591 -0.6747  0.2564
   78SLPC  H13R 7139   2.223   6.960   7.834 -0.2534 -1.5511  0.0136
   78SLPC  C214 7140   2.443   6.953   7.818 -0.4323 -0.0936 -0.2792
   78SLPC  H14R 7141   2.522   6.934   7.742  1.5177  0.8190  1.4804
   78SLPC  H14S 7142   2.456   6.875   7.895 -0.7528 -0.5215 -0.6600
   78SLPC  C215 7143   2.481   7.090   7.880 -0.1524 -0.1163 -0.3318
   78SLPC  H15R 7144   2.416   7.112   7.967  0.2404 -0.4416  0.0421
   78SLPC  H15S 7145   2.483   7.175   7.808  1.0261  0.2915  0.1749
   78SLPC  C216 7146   2.626   7.083   7.933  0.3014 -0.0649 -0.3147
   78SLPC  H16R 7147   2.704   7.049   7.861  1.8343 -0.5537  1.5310
   78SLPC  H16S 7148   2.635   7.007   8.014 -0.2443 -1.2563 -1.3513
   78SLPC  C217 7149   2.683   7.223   7.983  0.3864 -0.0189  0.1007
   78SLPC  H17R 7150   2.598   7.260   8.045  0.5471 -1.1747  1.0371
   78SLPC  H17S 7151   2.706   7.285   7.895 -1.0799  0.3407 -0.0472
   78SLPC  C218 7152   2.808   7.223   8.069  0.1450  0.4719 -0.0126
   78SLPC  H18R 7153   2.881   7.159   8.015  0.0117  0.9796 -0.8033
   78SLPC  H18S 7154   2.802   7.185   8.173 -3.1474  1.1943  0.1208
   78SLPC  H18T 7155   2.856   7.323   8.076  1.9810 -0.3987  0.1446
   78SLPC   C33 7156   1.757   6.707   7.118 -0.3477  0.2640  0.5105
   78SLPC   H3X 7157   1.847   6.730   7.058 -1.1803  2.0910 -0.0981
   78SLPC   H3Y 7158   1.749   6.597   7.113  1.6982  0.1459 -0.6922
   78SLPC   C34 7159   1.793   6.744   7.259  0.0516 -0.3152 -0.5108
   78SLPC   H4X 7160   1.823   6.851   7.269 -0.1726 -0.2800 -0.2091
   78SLPC   H4Y 7161   1.863   6.668   7.299  0.1065 -0.2383 -0.4591
   78SLPC   C35 7162   1.673   6.735   7.350  0.0128 -0.1203 -0.5714
   78SLPC   H5X 7163   1.625   6.636   7.337  1.4504 -0.8079 -0.6642
   78SLPC   H5Y 7164   1.602   6.814   7.316  1.6337  0.1457 -3.4965
   78SLPC   C36 7165   1.696   6.776   7.500 -0.0858 -0.2466  0.3270
   78SLPC   H6X 7166   1.798   6.742   7.529 -0.0964  0.5232  1.2722
   78SLPC   H6Y 7167   1.627   6.725   7.571 -0.4407 -1.8432 -1.1321
   78SLPC   C37 7168   1.675   6.924   7.512 -0.0598 -0.2606  0.1173
   78SLPC   H7X 7169   1.566   6.945   7.507  0.2046  0.9877 -0.6279
   78SLPC   H7Y 7170   1.723   6.984   7.433  1.1165  1.0520  1.7857
   78SLPC   C38 7171   1.716   6.989   7.650 -0.7004 -1.0764 -1.2705
   78SLPC   H8X 7172   1.700   6.923   7.738 -1.0371  0.9983  0.2697
   78SLPC   H8Y 7173   1.658   7.082   7.665  0.8603 -0.2129 -0.4297
   78SLPC   C39 7174   1.876   7.013   7.645 -0.3789  0.6914 -0.2953
   78SLPC   H9X 7175   1.890   7.083   7.560  2.7425 -0.6029 -0.9105
   78SLPC   H9Y 7176   1.924   6.914   7.632 -1.8544  0.1546 -1.8715
   78SLPC  C310 7177   1.937   7.071   7.782 -0.0299 -0.2233 -0.0621
   78SLPC  H10X 7178   1.888   7.167   7.813  1.4999  1.4544 -2.6518
   78SLPC  H10Y 7179   2.039   7.103   7.754 -0.9902  1.6198 -1.5811
   78SLPC  C311 7180   1.940   6.985   7.903 -0.0427 -0.5000  0.1941
   78SLPC  H11X 7181   2.000   6.896   7.874  1.9432  1.1408 -0.8804
   78SLPC  H11Y 7182   1.842   6.961   7.949 -0.5332 -1.2859 -1.2172
   78SLPC  C312 7183   2.031   7.042   8.017  0.5164  0.4316  0.5813
   78SLPC  H12X 7184   1.994   7.143   8.048 -2.1090 -0.9057  2.0391
   78SLPC  H12Y 7185   2.134   7.057   7.979  0.6327  0.1998  0.8059
   78SLPC  C313 7186   2.033   6.949   8.137 -0.0526 -0.2052  0.3212
   78SLPC  H13X 7187   2.074   6.848   8.114  2.1271  0.4370  1.2747
   78SLPC  H13Y 7188   1.933   6.923   8.179 -0.1192 -1.1563 -0.4027
   78SLPC  C314 7189   2.116   7.020   8.249 -0.0401  0.3170  0.6642
   78SLPC  H14X 7190   2.104   6.958   8.341 -1.3184 -0.3406  0.0675
   78SLPC  H14Y 7191   2.076   7.121   8.271  0.3203  0.9652 -1.6165
   78SLPC  C315 7192   2.261   7.038   8.211 -0.4574  0.5426 -0.1069
   78SLPC  H15X 7193   2.263   7.123   8.140 -1.9777 -0.8583 -1.8705
   78SLPC  H15Y 7194   2.298   6.942   8.170  1.7222  2.4578 -2.7361
   78SLPC  C316 7195   2.348   7.080   8.328  0.2740  0.1316  0.0396
   78SLPC  H16X 7196   2.328   7.013   8.414  1.1425  2.7354  2.3558
   78SLPC  H16Y 7197   2.331   7.181   8.370  2.0634  0.1557  0.7433
   78SLPC  C317 7198   2.495   7.070   8.293  0.7273 -0.4360  0.9168
   78SLPC  H17X 7199   2.527   7.136   8.210  1.1860  0.4134  1.7677
   78SLPC  H17Y 7200   2.510   6.963   8.266  2.2684  0.4870 -2.1044
   78SLPC  C318 7201   2.588   7.119   8.402 -0.5866 -0.1916 -0.4480
   78SLPC  H18X 7202   2.583   7.230   8.411  0.9968 -0.0396 -1.4009
   78SLPC  H18Y 7203   2.690   7.090   8.370 -0.4003  0.0156 -0.0538
   78SLPC  H18Z 7204   2.568   7.071   8.501 -0.1881  1.5346  0.4822
   79SLPC     N 7205   5.039   2.852   5.902  0.5222 -0.0798  0.2500
   79SLPC   C13 7206   4.990   3.000   5.902  0.7785 -0.2489  0.0121
   79SLPC  H13A 7207   4.892   3.002   5.857  0.0058  1.2433  1.7006
   79SLPC  H13B 7208   4.979   3.041   6.001  2.1059 -0.2338  0.1744
   79SLPC  H13C 7209   5.062   3.059   5.847  0.5943  0.0808  0.1291
   79SLPC   C14 7210   5.058   2.819   5.757  0.3249  0.5313  0.2185
   79SLPC  H14A 7211   5.100   2.720   5.745 -0.2728  0.0949  1.5741
   79SLPC  H14B 7212   4.967   2.822   5.699  0.8829 -0.8803 -0.7702
   79SLPC  H14C 7213   5.120   2.896   5.714  1.2321 -0.3149 -0.0016
   79SLPC   C15 7214   4.934   2.768   5.961  0.6616  0.0443  1.1399
   79SLPC  H15A 7215   4.957   2.664   5.980  2.0509 -0.2346 -1.7608
   79SLPC  H15B 7216   4.906   2.812   6.055 -1.5379  1.6250 -0.2251
   79SLPC  H15C 7217   4.846   2.758   5.899  1.3883  2.8689 -0.4583
   79SLPC   C12 7218   5.168   2.856   5.980  0.7022  0.5325 -0.7878
   79SLPC  H12A 7219   5.226   2.940   5.944  0.3652  0.1210 -2.3508
   79SLPC  H12B 7220   5.230   2.774   5.948  2.4375  1.1738  0.8520
   79SLPC   C11 7221   5.151   2.856   6.134 -0.3787 -0.2414 -0.3249
   79SLPC  H11A 7222   5.253   2.839   6.175 -0.4546 -1.2647 -0.5400
   79SLPC  H11B 7223   5.086   2.778   6.178  1.7663 -1.4762  0.7569
   79SLPC     P 7224   5.211   3.101   6.182  0.0839 -0.3572 -0.1852
   79SLPC   O13 7225   5.281   3.107   6.054 -1.0909  0.4234 -0.0423
   79SLPC   O14 7226   5.141   3.230   6.220 -0.1824 -0.1895 -0.0824
   79SLPC   O12 7227   5.103   2.984   6.181  0.6610  0.2747 -0.6370
   79SLPC   O11 7228   5.314   3.067   6.293  0.5648  0.3322  0.3349
   79SLPC    C1 7229   5.254   3.016   6.418  0.1435 -0.6986  0.3340
   79SLPC    HA 7230   5.152   3.058   6.436  0.6356  0.5341  0.3433
   79SLPC    HB 7231   5.242   2.906   6.416  0.4539 -0.7971  2.5030
   79SLPC    C2 7232   5.324   3.046   6.557  0.2387  0.1694  0.2111
   79SLPC    HS 7233   5.304   3.150   6.591 -0.2953  0.0119  0.3800
   79SLPC   O21 7234   5.464   3.016   6.545 -0.3517 -0.2804  0.5349
   79SLPC   C21 7235   5.546   3.103   6.596  1.2156 -0.5058  0.1021
   79SLPC   O22 7236   5.512   3.196   6.667 -0.0046 -0.1826  0.1166
   79SLPC   C22 7237   5.693   3.065   6.576  0.2069 -0.5534 -0.5853
   79SLPC   H2R 7238   5.696   2.964   6.529 -2.3272 -0.1742 -1.6571
   79SLPC   H2S 7239   5.740   3.133   6.501  0.8299 -1.4161 -0.9802
   79SLPC    C3 7240   5.260   2.951   6.667 -0.7215 -0.2579  0.0910
   79SLPC    HX 7241   5.266   2.845   6.635  0.1306  0.0081 -0.6494
   79SLPC    HY 7242   5.151   2.960   6.685 -0.5052  0.0280  1.3445
   79SLPC   O31 7243   5.328   2.966   6.797  0.4835 -0.6382  0.1878
   79SLPC   C31 7244   5.278   3.071   6.867  0.2466 -0.5226  0.4563
   79SLPC   O32 7245   5.193   3.146   6.820 -0.4293  0.3799 -0.2315
   79SLPC   C32 7246   5.329   3.085   7.006 -0.1581 -0.5886  0.1594
   79SLPC   H2X 7247   5.399   3.171   7.002  0.0074 -0.7296  0.0481
   79SLPC   H2Y 7248   5.389   2.996   7.035  0.0363 -0.6587 -0.4684
   79SLPC   C23 7249   5.779   3.056   6.705  0.6067 -0.5152  0.9322
   79SLPC   H3R 7250   5.784   3.152   6.761 -0.0708  0.6744 -0.9819
   79SLPC   H3S 7251   5.882   3.033   6.672  0.1471  1.6413 -2.2914
   79SLPC   C24 7252   5.722   2.967   6.812  0.3689  0.2021  0.1992
   79SLPC   H4R 7253   5.698   2.865   6.775 -0.7503  0.5413 -0.0330
   79SLPC   H4S 7254   5.625   3.003   6.851 -0.9340 -2.7330 -0.2262
   79SLPC   C25 7255   5.823   2.959   6.931  0.2734 -0.3072  0.5041
   79SLPC   H5R 7256   5.928   2.934   6.904  0.7256  2.8811 -0.9848
   79SLPC   H5S 7257   5.798   2.862   6.979 -1.0208 -0.7622 -1.0700
   79SLPC   C26 7258   5.815   3.082   7.017  0.0650 -0.0446 -0.1177
   79SLPC   H6R 7259   5.710   3.100   7.048  0.5839  3.8929 -0.3294
   79SLPC   H6S 7260   5.858   3.171   6.966  3.6687 -1.9180 -0.4983
   79SLPC   C27 7261   5.911   3.070   7.136  0.4400 -0.4633  0.3512
   79SLPC   H7R 7262   5.928   3.164   7.193  3.2070 -0.2257 -0.7829
   79SLPC   H7S 7263   6.010   3.041   7.097  0.5390 -0.5641  0.6792
   79SLPC   C28 7264   5.880   2.969   7.251 -0.1046 -0.4500  0.5473
   79SLPC   H8R 7265   5.966   2.958   7.320  1.2306  0.1504 -0.9895
   79SLPC   H8S 7266   5.894   2.872   7.198  0.9341 -0.0424  0.0627
   79SLPC   C29 7267   5.746   2.993   7.313 -0.3282 -0.6539  0.1297
   79SLPC   H9R 7268   5.660   2.987   7.244  2.4228  0.8233 -3.5931
   79SLPC  C210 7269   5.734   3.047   7.439  0.2163  0.0097 -0.7135
   79SLPC  H10R 7270   5.632   3.065   7.476  0.3231  0.9745 -0.8660
   79SLPC  C211 7271   5.846   3.093   7.539 -0.2302 -0.5178  0.5040
   79SLPC  H11R 7272   5.837   3.203   7.548 -1.6482 -0.5256 -0.5154
   79SLPC  H11S 7273   5.950   3.078   7.502 -0.3426  1.1470 -0.5523
   79SLPC  C212 7274   5.839   3.032   7.678 -0.3873 -0.1926  0.0581
   79SLPC  H12R 7275   5.782   2.938   7.682 -3.4976  1.6154  0.1870
   79SLPC  C213 7276   5.877   3.083   7.792 -0.4989  0.1082 -0.1240
   79SLPC  H13R 7277   5.875   3.024   7.885 -0.7953 -1.7613 -1.2876
   79SLPC  C214 7278   5.932   3.219   7.820 -0.0059  0.0546 -0.0908
   79SLPC  H14R 7279   5.937   3.268   7.721  2.0873 -1.6132 -0.8466
   79SLPC  H14S 7280   6.040   3.211   7.846  0.3376  0.0485 -1.5056
   79SLPC  C215 7281   5.852   3.300   7.922 -0.3772 -0.1250  0.3036
   79SLPC  H15R 7282   5.746   3.310   7.890 -0.5668 -0.9970  0.6370
   79SLPC  H15S 7283   5.890   3.404   7.916 -0.5305 -0.0052  1.2393
   79SLPC  C216 7284   5.870   3.253   8.064  0.0024 -0.6274  0.0685
   79SLPC  H16R 7285   5.972   3.215   8.084  0.3950  0.2445 -0.3002
   79SLPC  H16S 7286   5.791   3.175   8.073 -0.5650 -0.1752 -0.9070
   79SLPC  C217 7287   5.843   3.358   8.173  0.0737  0.0961  0.3055
   79SLPC  H17R 7288   5.738   3.397   8.167 -0.6217 -1.8576 -0.6902
   79SLPC  H17S 7289   5.906   3.449   8.164 -0.5920  0.6403  1.0498
   79SLPC  C218 7290   5.858   3.302   8.315  0.7779 -0.6402  0.4003
   79SLPC  H18R 7291   5.848   3.388   8.385 -1.1611  3.1433 -4.2707
   79SLPC  H18S 7292   5.961   3.263   8.322  2.0140  2.1865 -1.1639
   79SLPC  H18T 7293   5.790   3.218   8.341  1.5840 -1.7209 -0.9740
   79SLPC   C33 7294   5.215   3.097   7.109  0.5041  0.3934  0.6181
   79SLPC   H3X 7295   5.131   3.025   7.094  2.4965 -1.5765 -1.4956
   79SLPC   H3Y 7296   5.167   3.197   7.097  1.5474  0.8540  0.2784
   79SLPC   C34 7297   5.263   3.087   7.252 -0.4340  0.4436 -0.5118
   79SLPC   H4X 7298   5.326   3.172   7.287 -1.3674 -0.1841  2.9024
   79SLPC   H4Y 7299   5.338   3.009   7.278 -0.9476 -0.5285 -1.9393
   79SLPC   C35 7300   5.142   3.080   7.355 -0.5600 -0.2133  0.0736
   79SLPC   H5X 7301   5.067   3.000   7.335  1.8388 -1.8932 -2.5036
   79SLPC   H5Y 7302   5.083   3.173   7.341  0.9359  0.5803 -1.0070
   79SLPC   C36 7303   5.184   3.064   7.504  0.6381 -0.0709  0.6626
   79SLPC   H6X 7304   5.274   3.130   7.507  1.2632 -0.8468 -0.7344
   79SLPC   H6Y 7305   5.226   2.964   7.527 -2.4249 -1.6907 -0.5998
   79SLPC   C37 7306   5.081   3.098   7.609  0.1170 -1.1268 -0.5309
   79SLPC   H7X 7307   4.989   3.036   7.604 -1.4260  1.0749 -0.0413
   79SLPC   H7Y 7308   5.046   3.201   7.585 -1.7345 -1.6551 -0.1560
   79SLPC   C38 7309   5.141   3.092   7.755 -0.2695  0.4166 -0.1886
   79SLPC   H8X 7310   5.223   3.164   7.774 -2.3235  2.3495  1.6007
   79SLPC   H8Y 7311   5.179   2.987   7.757  0.5437  0.6704 -1.8198
   79SLPC   C39 7312   5.034   3.098   7.868 -0.2369  0.4247  0.1356
   79SLPC   H9X 7313   4.973   3.006   7.858  0.6673 -0.3754  1.8059
   79SLPC   H9Y 7314   4.985   3.197   7.864 -2.4435 -0.3861  4.2986
   79SLPC  C310 7315   5.092   3.085   8.014 -0.7119 -0.7491  0.6387
   79SLPC  H10X 7316   5.153   3.176   8.030 -1.0214 -0.5036  0.4136
   79SLPC  H10Y 7317   5.152   2.992   8.029  0.5600  0.4130  2.9462
   79SLPC  C311 7318   4.994   3.090   8.132 -0.3234 -0.4327 -0.3976
   79SLPC  H11X 7319   4.912   3.161   8.107  0.2412  0.6234  0.7180
   79SLPC  H11Y 7320   5.038   3.134   8.223  1.0366  1.0209 -1.7296
   79SLPC  C312 7321   4.921   2.960   8.163  0.6503  0.1361 -0.0120
   79SLPC  H12X 7322   4.993   2.876   8.171 -1.4584 -1.9681 -2.2104
   79SLPC  H12Y 7323   4.850   2.938   8.080 -0.2573  1.3808  0.4248
   79SLPC  C313 7324   4.834   2.957   8.291 -0.5606 -0.4487  0.3996
   79SLPC  H13X 7325   4.775   3.051   8.298  1.0658  0.7957 -1.8546
   79SLPC  H13Y 7326   4.898   2.941   8.381 -1.0777 -2.4253  0.4350
   79SLPC  C314 7327   4.754   2.819   8.314  0.6830  0.1245  0.6465
   79SLPC  H14X 7328   4.819   2.742   8.360  1.9155  0.7007 -0.1119
   79SLPC  H14Y 7329   4.714   2.785   8.216 -1.1178 -0.0118  1.4040
   79SLPC  C315 7330   4.632   2.834   8.409 -0.1706 -0.2202 -0.0828
   79SLPC  H15X 7331   4.569   2.743   8.400  1.6392 -1.5946  0.9268
   79SLPC  H15Y 7332   4.569   2.922   8.383 -1.8427 -0.1722  3.6945
   79SLPC  C316 7333   4.684   2.869   8.553  0.0226  0.4541 -0.0905
   79SLPC  H16X 7334   4.751   2.952   8.584 -0.3552  0.3975  0.8852
   79SLPC  H16Y 7335   4.758   2.790   8.578  0.8491  1.8251  1.9346
   79SLPC  C317 7336   4.574   2.884   8.669 -0.8719 -0.4839  0.0887
   79SLPC  H17X 7337   4.512   2.974   8.648 -1.0644 -0.5922  0.1841
   79SLPC  H17Y 7338   4.620   2.904   8.768 -1.8815 -0.1112  0.4908
   79SLPC  C318 7339   4.494   2.763   8.688  0.8954 -0.5718  0.3173
   79SLPC  H18X 7340   4.454   2.747   8.791  1.3373 -3.1237  0.1208
   79SLPC  H18Y 7341   4.558   2.674   8.670  2.9162  0.5731  1.6259
   79SLPC  H18Z 7342   4.406   2.780   8.623  2.0646 -0.0857 -1.1671
   80SLPC     N 7343   6.660   0.712   6.236  0.4282 -0.1424  1.0804
   80SLPC   C13 7344   6.558   0.804   6.279  0.6365  0.1855  0.6010
   80SLPC  H13A 7345   6.515   0.770   6.372  1.8130 -1.1649  0.6744
   80SLPC  H13B 7346   6.601   0.902   6.293  1.1403  0.1731 -0.7955
   80SLPC  H13C 7347   6.469   0.801   6.219  1.1219 -0.4572 -0.0906
   80SLPC   C14 7348   6.786   0.725   6.316 -0.0418  0.2338 -0.7952
   80SLPC  H14A 7349   6.860   0.651   6.290 -0.9207 -0.0872 -2.4456
   80SLPC  H14B 7350   6.835   0.821   6.308  0.1408  0.0993 -1.3159
   80SLPC  H14C 7351   6.765   0.698   6.419  1.6277  0.1798 -0.4473
   80SLPC   C15 7352   6.681   0.738   6.091 -0.4484  0.5510 -0.4214
   80SLPC  H15A 7353   6.747   0.822   6.077  2.5888 -1.1184  2.8593
   80SLPC  H15B 7354   6.747   0.666   6.043 -1.0478 -0.4326  0.2037
   80SLPC  H15C 7355   6.586   0.746   6.041 -1.4520  0.7843  1.4979
   80SLPC   C12 7356   6.598   0.576   6.255  0.2318 -0.6280 -0.2047
   80SLPC  H12A 7357   6.541   0.551   6.167  1.8635 -2.4736 -0.7757
   80SLPC  H12B 7358   6.530   0.574   6.339 -1.6405  0.9379 -1.6396
   80SLPC   C11 7359   6.686   0.451   6.284 -0.2598 -0.0864 -0.0800
   80SLPC  H11A 7360   6.612   0.368   6.283 -0.9536  0.5199  0.5771
   80SLPC  H11B 7361   6.735   0.461   6.383 -0.2129 -0.5239 -0.0586
   80SLPC     P 7362   6.932   0.381   6.213  0.2279 -0.2544  0.3058
   80SLPC   O13 7363   6.918   0.252   6.279 -0.0623  0.0740 -0.4467
   80SLPC   O14 7364   7.010   0.385   6.088  0.3580  0.0707 -0.2477
   80SLPC   O12 7365   6.785   0.436   6.181  0.1224 -0.2364 -0.3682
   80SLPC   O11 7366   6.994   0.481   6.317  0.2307 -0.3180 -0.9241
   80SLPC    C1 7367   7.127   0.444   6.366  0.2757 -0.3624 -0.2324
   80SLPC    HA 7368   7.191   0.380   6.302 -0.1101 -0.4088 -0.5750
   80SLPC    HB 7369   7.183   0.538   6.386 -1.4427  0.5080  0.6229
   80SLPC    C2 7370   7.118   0.390   6.513 -0.0033  0.7621  0.2116
   80SLPC    HS 7371   7.099   0.281   6.502  1.2747  0.4158  1.2517
   80SLPC   O21 7372   7.019   0.461   6.581 -0.6161 -0.2590 -0.2838
   80SLPC   C21 7373   6.945   0.392   6.664 -0.2022  0.0443  0.3278
   80SLPC   O22 7374   6.954   0.274   6.698 -0.1549  0.6124 -0.5840
   80SLPC   C22 7375   6.831   0.478   6.715 -0.0073 -0.2645 -0.1878
   80SLPC   H2R 7376   6.849   0.587   6.717 -0.1065 -0.2622  0.5873
   80SLPC   H2S 7377   6.742   0.456   6.652 -0.5304 -0.0347  0.4614
   80SLPC    C3 7378   7.258   0.398   6.576  0.6625 -0.2315 -0.7884
   80SLPC    HX 7379   7.299   0.501   6.567  0.2019 -0.1616 -2.4058
   80SLPC    HY 7380   7.332   0.347   6.511  1.8606  1.3671 -0.7171
   80SLPC   O31 7381   7.279   0.346   6.710  1.1059  0.4037  0.4226
   80SLPC   C31 7382   7.298   0.213   6.713 -0.2456 -0.8357 -0.0175
   80SLPC   O32 7383   7.287   0.133   6.623  0.0696 -0.2531 -0.5810
   80SLPC   C32 7384   7.354   0.182   6.852  0.1037 -0.0485 -0.3081
   80SLPC   H2X 7385   7.438   0.255   6.858  1.4509 -1.7208  2.1596
   80SLPC   H2Y 7386   7.386   0.075   6.854 -0.3992 -0.1924  0.3918
   80SLPC   C23 7387   6.813   0.466   6.863  0.3893  0.9213  0.7643
   80SLPC   H3R 7388   6.824   0.359   6.893  3.0329  1.2500  1.0540
   80SLPC   H3S 7389   6.710   0.485   6.901  1.2799  1.6543  2.9048
   80SLPC   C24 7390   6.916   0.557   6.940  0.2828  0.2596 -0.0916
   80SLPC   H4R 7391   6.889   0.665   6.938  2.3941  0.8131 -0.2947
   80SLPC   H4S 7392   7.020   0.536   6.906 -0.3455  0.3312 -2.1002
   80SLPC   C25 7393   6.924   0.523   7.094  0.1669  0.0315  0.8523
   80SLPC   H5R 7394   6.982   0.431   7.120 -1.4258 -1.2432 -0.0087
   80SLPC   H5S 7395   6.823   0.516   7.139  0.0668  2.3848  1.0341
   80SLPC   C26 7396   6.997   0.635   7.168 -0.1043  0.3623 -0.3874
   80SLPC   H6R 7397   6.962   0.733   7.128 -1.2113 -0.8797 -2.5192
   80SLPC   H6S 7398   7.102   0.624   7.136  0.0244  1.5971 -0.4253
   80SLPC   C27 7399   7.005   0.629   7.323  0.4910 -0.4673 -0.5231
   80SLPC   H7R 7400   7.063   0.536   7.338  1.3477  0.1112 -0.2073
   80SLPC   H7S 7401   6.906   0.610   7.369  0.6218 -0.9138 -0.4254
   80SLPC   C28 7402   7.082   0.746   7.375 -0.2234  0.5155 -0.3384
   80SLPC   H8R 7403   7.179   0.747   7.321 -0.0416  1.6237 -0.0115
   80SLPC   H8S 7404   7.098   0.719   7.481  1.2366 -0.3113 -0.7484
   80SLPC   C29 7405   7.027   0.882   7.368 -0.9138 -0.7924  0.3157
   80SLPC   H9R 7406   7.066   0.936   7.280  0.2925 -3.5569 -0.9065
   80SLPC  C210 7407   6.946   0.944   7.459 -0.0185  0.5077 -0.4788
   80SLPC  H10R 7408   6.922   1.049   7.437 -0.5520  0.9480  2.0123
   80SLPC  C211 7409   6.897   0.882   7.583 -0.1514  0.4373 -0.3881
   80SLPC  H11R 7410   6.857   0.957   7.654 -1.6003 -0.2726 -0.4423
   80SLPC  H11S 7411   6.980   0.835   7.640 -0.2903  1.2515  0.4838
   80SLPC  C212 7412   6.790   0.774   7.565 -0.1177  0.5357 -0.4487
   80SLPC  H12R 7413   6.759   0.766   7.459  1.1071  1.7047 -0.9156
   80SLPC  C213 7414   6.719   0.711   7.663 -0.5287  1.0866 -0.6270
   80SLPC  H13R 7415   6.649   0.630   7.639 -1.5796  1.1451  2.0478
   80SLPC  C214 7416   6.729   0.736   7.812  0.6175 -1.3206  0.7605
   80SLPC  H14R 7417   6.625   0.747   7.851  1.0190  0.4640  1.3421
   80SLPC  H14S 7418   6.789   0.825   7.841  0.4780 -0.8761 -0.3012
   80SLPC  C215 7419   6.776   0.614   7.890 -0.1698  0.2816 -0.9866
   80SLPC  H15R 7420   6.865   0.563   7.847 -1.0696 -1.2793 -1.0687
   80SLPC  H15S 7421   6.693   0.539   7.889  1.6823 -1.8148 -2.6758
   80SLPC  C216 7422   6.808   0.645   8.037  0.5642  0.5508  0.0419
   80SLPC  H16R 7423   6.736   0.722   8.072  1.4643  0.9768  0.9862
   80SLPC  H16S 7424   6.908   0.692   8.049  2.8537 -4.1890  0.6381
   80SLPC  C217 7425   6.809   0.522   8.127 -0.0363 -0.3638 -0.8692
   80SLPC  H17R 7426   6.711   0.469   8.122 -1.0521  1.0299  2.8580
   80SLPC  H17S 7427   6.817   0.562   8.230 -1.0686  3.9523 -2.3930
   80SLPC  C218 7428   6.934   0.438   8.112  0.2744 -0.0169  0.4348
   80SLPC  H18R 7429   6.928   0.335   8.153 -0.8066 -0.5206 -0.9583
   80SLPC  H18S 7430   7.023   0.499   8.138 -0.0322  1.2854 -1.4430
   80SLPC  H18T 7431   6.930   0.406   8.006 -1.2318  0.7010  0.2556
   80SLPC   C33 7432   7.243   0.202   6.964  0.4595  0.4285  0.5749
   80SLPC   H3X 7433   7.170   0.284   6.946  0.0375  0.3404  1.7871
   80SLPC   H3Y 7434   7.296   0.203   7.062 -0.9256 -2.0754  1.3982
   80SLPC   C34 7435   7.154   0.074   6.972 -0.4204 -0.4577  0.6886
   80SLPC   H4X 7436   7.213   0.003   7.034  0.8867 -0.9449 -1.0721
   80SLPC   H4Y 7437   7.133   0.031   6.872  1.5369 -1.2099  0.5834
   80SLPC   C35 7438   7.012   0.102   7.020 -0.2623  0.1204 -0.9719
   80SLPC   H5X 7439   6.957   0.005   7.026 -2.9361  1.7181  1.4007
   80SLPC   H5Y 7440   6.964   0.172   6.949 -0.7626 -0.2620 -1.0186
   80SLPC   C36 7441   7.008   0.164   7.162 -0.2834 -0.1064  0.4517
   80SLPC   H6X 7442   6.905   0.207   7.162  1.0643  3.2480 -0.0056
   80SLPC   H6Y 7443   7.082   0.245   7.176  1.1971 -0.7569 -3.0981
   80SLPC   C37 7444   7.023   0.063   7.280  0.3148 -0.0957  0.2522
   80SLPC   H7X 7445   7.124   0.017   7.273  0.5336  0.3754  0.2863
   80SLPC   H7Y 7446   6.955  -0.023   7.264  0.8181 -0.7752  1.6568
   80SLPC   C38 7447   7.008   0.122   7.420 -0.6931  0.6857 -0.0070
   80SLPC   H8X 7448   7.043   0.043   7.490  0.8068 -0.3606 -1.9065
   80SLPC   H8Y 7449   6.899   0.139   7.432 -0.8212  0.1772 -0.4511
   80SLPC   C39 7450   7.093   0.250   7.448  0.5753  0.4629  0.9690
   80SLPC   H9X 7451   7.047   0.331   7.387  3.7872  1.7807  0.1934
   80SLPC   H9Y 7452   7.199   0.229   7.423  0.4336 -1.6749  2.0004
   80SLPC  C310 7453   7.078   0.318   7.587  0.0743  0.0782  0.3752
   80SLPC  H10X 7454   7.110   0.250   7.669  0.5147  0.0318  0.1690
   80SLPC  H10Y 7455   6.977   0.358   7.610  0.5520  1.3753  0.2624
   80SLPC  C311 7456   7.176   0.442   7.614 -0.2850  0.3805 -0.0552
   80SLPC  H11X 7457   7.194   0.499   7.520  1.6706  0.6719  0.4690
   80SLPC  H11Y 7458   7.277   0.410   7.648 -0.4213  1.5346  1.5026
   80SLPC  C312 7459   7.111   0.541   7.711 -0.4313  0.9663  0.0783
   80SLPC  H12X 7460   7.069   0.485   7.797 -1.3352  3.2242  1.1622
   80SLPC  H12Y 7461   7.025   0.591   7.660 -0.5672  0.2295 -0.4135
   80SLPC  C313 7462   7.206   0.657   7.757 -0.3819 -0.0058 -0.0475
   80SLPC  H13X 7463   7.249   0.716   7.674  0.6426  0.9173  1.1185
   80SLPC  H13Y 7464   7.296   0.606   7.796 -0.1219 -0.9644 -1.8400
   80SLPC  C314 7465   7.146   0.732   7.875 -0.6134 -0.5769  0.2267
   80SLPC  H14X 7466   7.105   0.660   7.950  1.8094 -2.4162 -0.1317
   80SLPC  H14Y 7467   7.065   0.801   7.844 -1.0932 -0.9792  0.5836
   80SLPC  C315 7468   7.244   0.827   7.943  0.2958 -0.2509 -0.2797
   80SLPC  H15X 7469   7.239   0.921   7.883 -0.0693  0.5290  0.9589
   80SLPC  H15Y 7470   7.349   0.791   7.942  1.2788  2.5240 -1.0783
   80SLPC  C316 7471   7.201   0.874   8.086  0.1171 -0.6341 -0.8697
   80SLPC  H16X 7472   7.093   0.897   8.099  0.5540 -0.1657  2.1246
   80SLPC  H16Y 7473   7.251   0.971   8.108  0.2008 -0.6635 -0.9309
   80SLPC  C317 7474   7.238   0.764   8.191 -0.6642 -0.5991  0.3480
   80SLPC  H17X 7475   7.184   0.673   8.156 -1.7077 -0.3952  1.3840
   80SLPC  H17Y 7476   7.186   0.785   8.287 -3.1676 -1.9253 -0.6525
   80SLPC  C318 7477   7.387   0.745   8.208  0.8023 -0.4425 -0.1269
   80SLPC  H18X 7478   7.439   0.836   8.242 -1.1252  0.6531 -0.0025
   80SLPC  H18Y 7479   7.441   0.717   8.116 -0.7819  0.5958 -1.4113
   80SLPC  H18Z 7480   7.408   0.674   8.291 -1.8670 -1.1270  0.0148
   81SAPS     N 7481   0.394   2.665  11.083 -0.1358 -0.3112 -0.6276
   81SAPS   HN1 7482   0.494   2.641  11.100 -0.4635 -0.5738  1.0591
   81SAPS   HN2 7483   0.341   2.729  11.145  1.0980 -0.7198  0.8902
   81SAPS   HN3 7484   0.343   2.575  11.087  0.3838 -0.6695 -1.7312
   81SAPS   C12 7485   0.383   2.707  10.939 -0.7761 -0.1642 -0.2272
   81SAPS  H12A 7486   0.427   2.803  10.917  2.8332 -1.6866  0.0557
   81SAPS   C13 7487   0.448   2.599  10.848 -0.4257  0.4817 -0.2510
   81SAPS  O13A 7488   0.529   2.522  10.902  0.0599 -0.2546 -0.1092
   81SAPS  O13B 7489   0.434   2.607  10.721  0.0631  0.4729 -0.1873
   81SAPS   C11 7490   0.239   2.733  10.906 -0.1984  0.2479 -0.1888
   81SAPS  H11A 7491   0.168   2.650  10.928  0.0347  0.1549  0.2121
   81SAPS  H11B 7492   0.220   2.748  10.797 -2.5047  1.2341  0.3140
   81SAPS     P 7493   0.095   2.947  10.940 -0.0231  0.4092  0.0438
   81SAPS   O13 7494  -0.027   2.866  10.908 -0.5511  0.2809  0.5510
   81SAPS   O14 7495   0.080   3.062  11.034  0.8846 -0.4290  0.2208
   81SAPS   O12 7496   0.205   2.850  10.991  0.0921  0.2628  0.1399
   81SAPS   O11 7497   0.165   2.992  10.812 -0.1877  0.6691  0.5173
   81SAPS    C1 7498   0.102   3.045  10.701 -0.3832 -0.6785  0.1700
   81SAPS    HA 7499   0.004   3.094  10.718  0.0358  0.6454 -1.1448
   81SAPS    HB 7500   0.173   3.111  10.649 -2.4629  1.5200  0.0457
   81SAPS    C2 7501   0.070   2.945  10.589 -0.5755  0.2780 -0.1290
   81SAPS    HS 7502   0.024   2.853  10.632 -0.3336 -0.4872 -1.4857
   81SAPS   O21 7503   0.186   2.904  10.518  0.5021  0.4334  0.3637
   81SAPS   C21 7504   0.188   2.784  10.465 -0.0992 -0.5884  0.8727
   81SAPS   O22 7505   0.121   2.687  10.489  0.1400  0.3609 -0.1733
   81SAPS   C22 7506   0.289   2.796  10.352 -0.3800 -0.9689  0.0258
   81SAPS   H2R 7507   0.256   2.875  10.282 -0.8924 -2.3110 -1.2949
   81SAPS   H2S 7508   0.391   2.827  10.384  0.2310 -0.8142 -1.9590
   81SAPS    C3 7509  -0.024   3.007  10.481 -0.3706 -0.0064 -0.4568
   81SAPS    HX 7510   0.037   3.051  10.399  0.9387 -0.8917  0.0341
   81SAPS    HY 7511  -0.082   3.093  10.521 -0.2130  0.3631 -1.0161
   81SAPS   O31 7512  -0.119   2.908  10.432  0.2893  0.5103  0.3308
   81SAPS   C31 7513  -0.187   2.953  10.329  0.7618  0.0351 -0.2997
   81SAPS   O32 7514  -0.187   3.070  10.292  0.7898 -0.0484  0.0135
   81SAPS   C32 7515  -0.274   2.850  10.259 -0.3062 -1.2839  0.2849
   81SAPS   H2X 7516  -0.379   2.886  10.258  0.8968  2.4650 -1.5679
   81SAPS   H2Y 7517  -0.272   2.767  10.332  0.4745 -1.1507  0.4196
   81SAPS   C23 7518   0.322   2.661  10.278  0.2764  0.0978  0.1788
   81SAPS   H3R 7519   0.339   2.584  10.356  0.4013  0.6428  0.6905
   81SAPS   H3S 7520   0.407   2.663  10.206  0.9597 -2.2624  0.8774
   81SAPS   C24 7521   0.208   2.612  10.189 -0.1168  0.2975  0.0905
   81SAPS   H4R 7522   0.197   2.687  10.108 -2.0072 -0.5765 -0.4848
   81SAPS   H4S 7523   0.108   2.607  10.236 -0.5469  0.0694 -0.8434
   81SAPS   C25 7524   0.236   2.474  10.140 -0.2022  0.2939  1.6030
   81SAPS   H5R 7525   0.235   2.390  10.211  1.0723 -1.1931 -0.0810
   81SAPS   C26 7526   0.292   2.448  10.018 -0.1403  0.9962 -0.0796
   81SAPS   H6R 7527   0.300   2.340   9.997  1.9944  0.9232  1.0412
   81SAPS   C27 7528   0.323   2.553   9.905 -0.9489 -0.3776 -0.2576
   81SAPS   H7R 7529   0.433   2.556   9.893 -0.7763 -3.0378  0.2898
   81SAPS   H7S 7530   0.293   2.658   9.923  0.4180 -0.0892  0.4124
   81SAPS   C28 7531   0.258   2.505   9.782  1.0107  0.0407  0.1112
   81SAPS   H8R 7532   0.157   2.462   9.788  1.3593 -1.4806 -3.7612
   81SAPS   C29 7533   0.304   2.529   9.658  0.0849  0.8628 -0.3262
   81SAPS   H9R 7534   0.246   2.487   9.574 -1.6757 -0.2427  1.3965
   81SAPS  C210 7535   0.426   2.610   9.628  0.1001  0.3887  0.3353
   81SAPS  H10R 7536   0.509   2.537   9.618 -0.1083  0.3112 -0.8854
   81SAPS  H10S 7537   0.454   2.680   9.709  0.1828 -1.2691  1.7720
   81SAPS  C211 7538   0.410   2.687   9.502 -0.0130 -0.5350 -0.4745
   81SAPS  H11R 7539   0.380   2.792   9.515 -1.7333 -1.3178  2.5246
   81SAPS  C212 7540   0.427   2.639   9.379 -0.4906  0.1448  0.8529
   81SAPS  H12R 7541   0.390   2.702   9.296  0.7639 -0.1017  0.0922
   81SAPS  C213 7542   0.468   2.498   9.336 -0.3790  0.4407 -0.3064
   81SAPS  H13R 7543   0.469   2.429   9.424  1.3303  0.7155 -0.0935
   81SAPS  H13S 7544   0.577   2.508   9.321 -0.2818  1.0022  0.7204
   81SAPS  C214 7545   0.387   2.438   9.224 -0.3185  0.0714  0.1743
   81SAPS  H14R 7546   0.285   2.402   9.243 -1.4437  2.3366 -1.3481
   81SAPS  C215 7547   0.432   2.416   9.097 -0.0848  0.2229 -0.1326
   81SAPS  H15R 7548   0.372   2.356   9.027 -0.0945  1.9155 -1.6015
   81SAPS  C216 7549   0.564   2.453   9.049 -0.5738  0.0211  0.0624
   81SAPS  H16R 7550   0.631   2.481   9.133 -0.4964 -0.8448  0.2968
   81SAPS  H16S 7551   0.560   2.542   8.983  0.2370  0.2022  0.2478
   81SAPS  C217 7552   0.640   2.341   8.972 -0.1081 -0.2700 -0.3766
   81SAPS  H17R 7553   0.580   2.310   8.883  1.4095 -0.7147 -1.2732
   81SAPS  H17S 7554   0.642   2.249   9.033  3.0007  1.0457  1.6176
   81SAPS  C218 7555   0.773   2.389   8.928  0.1735  0.0900  0.5630
   81SAPS  H18R 7556   0.821   2.466   8.992  2.5444 -0.3560 -0.6017
   81SAPS  H18S 7557   0.774   2.446   8.833 -1.2018  0.4425  0.7437
   81SAPS  C219 7558   0.862   2.268   8.893 -0.0290 -0.0111  0.0091
   81SAPS  H19R 7559   0.857   2.199   8.980 -1.1255  2.1317  1.7003
   81SAPS  H19S 7560   0.967   2.301   8.876  1.0894 -2.6528  1.4901
   81SAPS  C220 7561   0.822   2.203   8.763 -0.2102  0.1275 -0.3067
   81SAPS  H20R 7562   0.865   2.258   8.677  2.0180 -1.9977 -0.5983
   81SAPS  H20S 7563   0.712   2.191   8.750 -0.4237  0.6024  1.0014
   81SAPS  H20T 7564   0.850   2.096   8.766  0.2177  0.0068 -4.9663
   81SAPS   C33 7565  -0.225   2.830  10.120  0.2509 -0.5612 -0.6277
   81SAPS   H3X 7566  -0.221   2.922  10.059  2.3935 -0.0520  0.2216
   81SAPS   H3Y 7567  -0.288   2.757  10.065  0.6678 -0.2651 -1.5031
   81SAPS   C34 7568  -0.083   2.763  10.119  0.7552 -0.4693  0.3050
   81SAPS   H4X 7569  -0.086   2.683  10.197  0.0526 -0.9730 -0.2394
   81SAPS   H4Y 7570   0.003   2.831  10.138 -0.4400  0.8351  1.1247
   81SAPS   C35 7571  -0.051   2.702   9.984 -0.1112  0.0812 -0.1533
   81SAPS   H5X 7572  -0.132   2.630   9.962 -0.7451  1.1033 -1.1600
   81SAPS   H5Y 7573   0.048   2.652   9.993 -0.4482 -0.4711  0.5893
   81SAPS   C36 7574  -0.049   2.814   9.875  0.0437  0.0509  0.0268
   81SAPS   H6X 7575   0.031   2.888   9.900 -0.9077  1.6798 -1.6129
   81SAPS   H6Y 7576  -0.147   2.865   9.872  0.1661  0.2668 -0.3338
   81SAPS   C37 7577  -0.020   2.757   9.740  0.0023 -0.2854  0.2313
   81SAPS   H7X 7578  -0.106   2.689   9.725  0.7521 -1.6546  1.9456
   81SAPS   H7Y 7579   0.072   2.695   9.742  1.2113  1.3986 -1.1977
   81SAPS   C38 7580  -0.011   2.856   9.627 -0.4140 -0.6658 -0.3662
   81SAPS   H8X 7581   0.060   2.938   9.651 -0.9414 -0.3358  0.0851
   81SAPS   H8Y 7582  -0.115   2.892   9.608 -0.5560 -1.3372 -0.8671
   81SAPS   C39 7583   0.036   2.790   9.502  0.0760  0.2956  0.4019
   81SAPS   H9X 7584  -0.032   2.706   9.474  1.8359 -1.7781  2.1605
   81SAPS   H9Y 7585   0.138   2.751   9.523  0.1841  0.2334 -0.2108
   81SAPS  C310 7586   0.046   2.883   9.387 -0.5966  0.4586  0.6509
   81SAPS  H10X 7587   0.092   2.981   9.410 -0.9281  1.3392 -2.2154
   81SAPS  H10Y 7588  -0.059   2.903   9.357 -1.8152 -0.7690  3.8840
   81SAPS  C311 7589   0.117   2.821   9.269 -0.0374 -0.4330 -0.0483
   81SAPS  H11X 7590   0.092   2.713   9.258 -1.8488  0.0665 -1.0778
   81SAPS  H11Y 7591   0.225   2.811   9.291 -0.2367 -0.5040  0.9353
   81SAPS  C312 7592   0.096   2.909   9.146 -0.2604  0.0178  0.2176
   81SAPS  H12X 7593   0.156   3.002   9.158  2.2654 -1.3572 -1.2751
   81SAPS  H12Y 7594  -0.007   2.941   9.122 -0.7616 -1.5335  0.2774
   81SAPS  C313 7595   0.152   2.829   9.025 -0.8246  0.3377 -0.2723
   81SAPS  H13X 7596   0.077   2.754   8.990 -0.8844  1.3387 -2.4064
   81SAPS  H13Y 7597   0.249   2.779   9.046 -1.4825 -0.8700 -0.0879
   81SAPS  C314 7598   0.184   2.903   8.894  0.5755  0.4953  0.6655
   81SAPS  H14X 7599   0.087   2.951   8.866  1.0056 -0.3762 -2.5957
   81SAPS  H14Y 7600   0.205   2.827   8.816 -3.0249  1.4310 -1.3796
   81SAPS  C315 7601   0.286   3.013   8.901  0.1119 -0.1970 -0.4128
   81SAPS  H15X 7602   0.349   2.980   8.986  0.4255  0.8032 -0.2521
   81SAPS  H15Y 7603   0.238   3.112   8.919 -0.5218 -0.5779  0.0198
   81SAPS  C316 7604   0.374   3.032   8.779 -0.0340  0.5832  0.9017
   81SAPS  H16X 7605   0.296   3.052   8.704 -0.9038 -0.4602  1.5041
   81SAPS  H16Y 7606   0.424   2.935   8.755 -0.1656  0.8021 -0.2632
   81SAPS  C317 7607   0.471   3.146   8.801 -0.0861 -0.4792 -0.1278
   81SAPS  H17X 7608   0.533   3.125   8.890 -0.2890 -1.3879 -0.1959
   81SAPS  H17Y 7609   0.417   3.239   8.830  2.0232  0.2871  1.4557
   81SAPS  C318 7610   0.559   3.187   8.687  0.0816 -0.1964 -0.4972
   81SAPS  H18X 7611   0.629   3.105   8.660  0.0057 -0.6632  0.7232
   81SAPS  H18Y 7612   0.621   3.277   8.702 -4.2081  2.5549  1.8088
   81SAPS  H18Z 7613   0.494   3.213   8.600  1.6831  1.9536 -1.0791
   82SAPS     N 7614   6.408   1.360  10.863 -0.1816  0.5402 -0.3189
   82SAPS   HN1 7615   6.466   1.441  10.832  0.4354  0.3395  0.2694
   82SAPS   HN2 7616   6.478   1.301  10.913 -0.3760 -0.2690 -1.0162
   82SAPS   HN3 7617   6.369   1.308  10.783  1.1670  2.7920 -2.5010
   82SAPS   C12 7618   6.296   1.408  10.954  0.3510  0.4412 -0.5271
   82SAPS  H12A 7619   6.204   1.413  10.897 -1.1920 -0.8194  1.8016
   82SAPS   C13 7620   6.261   1.311  11.067  0.0515 -0.0405 -0.0113
   82SAPS  O13A 7621   6.314   1.202  11.075 -0.5768  0.2457  0.5943
   82SAPS  O13B 7622   6.155   1.331  11.130 -0.2599 -0.2472 -0.7852
   82SAPS   C11 7623   6.329   1.547  11.016  0.1890  0.0241  0.2756
   82SAPS  H11A 7624   6.424   1.538  11.072 -0.3897  0.2360  1.3014
   82SAPS  H11B 7625   6.253   1.578  11.091 -1.5447  0.0088 -1.4066
   82SAPS     P 7626   6.200   1.708  10.859  0.0015 -0.1277 -0.5217
   82SAPS   O13 7627   6.102   1.725  10.969 -0.0060 -0.8478 -0.8427
   82SAPS   O14 7628   6.225   1.830  10.783  0.8377 -0.3564  0.0318
   82SAPS   O12 7629   6.339   1.657  10.923  0.1515 -0.2156  0.5151
   82SAPS   O11 7630   6.168   1.597  10.760 -0.0018  0.5030  1.0163
   82SAPS    C1 7631   6.251   1.562  10.651  0.7971 -0.1143 -0.0730
   82SAPS    HA 7632   6.357   1.575  10.684  1.1001 -1.3406 -0.5460
   82SAPS    HB 7633   6.240   1.452  10.636 -0.9477 -0.1041  1.0038
   82SAPS    C2 7634   6.231   1.647  10.525  0.1201 -0.6235  0.8635
   82SAPS    HS 7635   6.228   1.756  10.550 -0.6970 -0.5720  0.5700
   82SAPS   O21 7636   6.113   1.594  10.459  0.3581 -1.1821 -0.1172
   82SAPS   C21 7637   6.051   1.680  10.389  0.2535 -0.8122 -0.2195
   82SAPS   O22 7638   6.073   1.803  10.383  1.1689 -0.4845  0.5913
   82SAPS   C22 7639   5.949   1.602  10.315 -0.1300 -0.8917  0.3716
   82SAPS   H2R 7640   6.004   1.536  10.245  3.6873  1.7594  0.7069
   82SAPS   H2S 7641   5.891   1.540  10.386  0.2087 -0.4401  1.0493
   82SAPS    C3 7642   6.359   1.644  10.433 -0.4772  0.0031  0.0285
   82SAPS    HX 7643   6.379   1.535  10.427 -0.1114  0.1342 -1.3003
   82SAPS    HY 7644   6.450   1.692  10.476 -0.3424  0.6648 -0.9675
   82SAPS   O31 7645   6.329   1.688  10.297 -0.6157 -0.0500  0.1371
   82SAPS   C31 7646   6.369   1.821  10.272 -0.4673 -0.3620  0.5062
   82SAPS   O32 7647   6.392   1.896  10.363  0.0501 -0.0823  0.1220
   82SAPS   C32 7648   6.379   1.854  10.120  0.2016 -0.1066 -0.3910
   82SAPS   H2X 7649   6.306   1.792  10.063 -0.7943 -0.4186  1.2035
   82SAPS   H2Y 7650   6.478   1.816  10.088  1.1862 -2.1119  4.6402
   82SAPS   C23 7651   5.867   1.690  10.221  0.9780  0.2662 -0.6428
   82SAPS   H3R 7652   5.933   1.752  10.155 -0.5502  1.5804 -0.9534
   82SAPS   H3S 7653   5.807   1.771  10.268 -0.4019 -1.1633  0.0899
   82SAPS   C24 7654   5.776   1.612  10.120  0.4472  0.7217 -0.4509
   82SAPS   H4R 7655   5.836   1.529  10.076 -1.1598 -0.2344 -0.8748
   82SAPS   H4S 7656   5.744   1.685  10.042  0.2777 -1.2484 -2.2542
   82SAPS   C25 7657   5.650   1.555  10.190  0.4890 -0.1645 -0.2221
   82SAPS   H5R 7658   5.625   1.585  10.292 -1.0737  1.8761 -1.1722
   82SAPS   C26 7659   5.562   1.472  10.136  0.5129  0.2738  0.2781
   82SAPS   H6R 7660   5.473   1.443  10.194 -0.8686 -0.2001 -1.9686
   82SAPS   C27 7661   5.558   1.418   9.989 -0.3951  0.2729  0.6223
   82SAPS   H7R 7662   5.649   1.464   9.945  0.2551  0.1840  1.8355
   82SAPS   H7S 7663   5.473   1.467   9.937  1.7942  1.3572 -2.0508
   82SAPS   C28 7664   5.554   1.270   9.966  0.1945  0.3570 -0.3800
   82SAPS   H8R 7665   5.514   1.213  10.051  1.0459  0.6083  0.2017
   82SAPS   C29 7666   5.600   1.198   9.860  0.0356 -0.1956  0.0305
   82SAPS   H9R 7667   5.600   1.088   9.857 -2.8207 -0.2460 -4.3739
   82SAPS  C210 7668   5.669   1.255   9.738 -0.0587 -0.8298  0.2477
   82SAPS  H10R 7669   5.628   1.348   9.694 -0.8846 -3.0336 -3.9366
   82SAPS  H10S 7670   5.657   1.192   9.647 -1.3739  0.5621 -0.5802
   82SAPS  C211 7671   5.819   1.269   9.767 -0.2051  0.7588 -0.6365
   82SAPS  H11R 7672   5.848   1.327   9.856  0.6682 -1.4036  0.5373
   82SAPS  C212 7673   5.919   1.209   9.698 -0.0786  0.1342 -0.2626
   82SAPS  H12R 7674   6.021   1.230   9.734  0.6319  1.3065 -2.8577
   82SAPS  C213 7675   5.908   1.112   9.585  0.2316  0.2345  0.0495
   82SAPS  H13R 7676   5.806   1.108   9.539  1.1118  0.3253 -1.9862
   82SAPS  H13S 7677   5.942   1.012   9.619 -1.2405 -0.0964  0.6085
   82SAPS  C214 7678   6.004   1.153   9.472 -0.3757 -0.4337  0.0540
   82SAPS  H14R 7679   6.012   1.261   9.456 -0.6480 -0.5217 -0.6928
   82SAPS  C215 7680   6.099   1.078   9.417  0.5960 -0.6137 -0.3732
   82SAPS  H15R 7681   6.171   1.123   9.348 -1.1534  3.3428  0.2236
   82SAPS  C216 7682   6.119   0.921   9.428 -0.3964 -0.0407 -0.1105
   82SAPS  H16R 7683   6.053   0.872   9.502 -0.0204 -1.4108 -0.6610
   82SAPS  H16S 7684   6.222   0.897   9.462 -0.0334  0.6986 -0.6633
   82SAPS  C217 7685   6.113   0.855   9.289  0.3213  0.2957 -0.0177
   82SAPS  H17R 7686   6.161   0.755   9.300  0.4229  0.3427 -0.0327
   82SAPS  H17S 7687   6.178   0.906   9.215 -0.8709 -0.8333 -1.8890
   82SAPS  C218 7688   5.965   0.840   9.242  0.1992 -0.6413  0.0028
   82SAPS  H18R 7689   5.887   0.847   9.321 -1.6722  1.1141 -1.9355
   82SAPS  H18S 7690   5.943   0.741   9.195 -0.9050 -1.4587  2.1948
   82SAPS  C219 7691   5.918   0.945   9.133 -0.1722  0.4314  0.2925
   82SAPS  H19R 7692   5.940   1.048   9.168  2.2305 -0.1482  0.5614
   82SAPS  H19S 7693   5.809   0.930   9.113 -0.2349 -1.1553  1.6770
   82SAPS  C220 7694   5.987   0.930   8.990 -0.2523  0.7045 -0.0109
   82SAPS  H20R 7695   5.963   0.829   8.950  2.8105  0.0436 -0.2956
   82SAPS  H20S 7696   6.097   0.944   9.000  0.0749  0.5494 -3.1177
   82SAPS  H20T 7697   5.947   1.007   8.922  1.8897 -0.0384 -2.1943
   82SAPS   C33 7698   6.364   2.006  10.079 -0.9065 -0.1197 -0.4541
   82SAPS   H3X 7699   6.462   2.056  10.065 -1.1946  0.7153  0.3822
   82SAPS   H3Y 7700   6.305   2.058  10.158 -1.8172 -2.0594  0.1594
   82SAPS   C34 7701   6.285   2.032   9.949 -0.7341 -0.0007  0.0858
   82SAPS   H4X 7702   6.233   2.130   9.943 -0.4388  0.1819  0.4380
   82SAPS   H4Y 7703   6.197   1.965   9.945 -0.4451 -0.5501  2.2567
   82SAPS   C35 7704   6.369   2.001   9.824 -0.5772  0.1891 -0.3401
   82SAPS   H5X 7705   6.387   1.893   9.804 -0.6233  0.5885 -2.7605
   82SAPS   H5Y 7706   6.473   2.041   9.827 -0.5524  0.2985 -2.0069
   82SAPS   C36 7707   6.305   2.045   9.691  0.1224 -0.9378  0.2363
   82SAPS   H6X 7708   6.304   2.156   9.697  2.4414 -0.9372  1.2819
   82SAPS   H6Y 7709   6.200   2.010   9.700  0.2930 -2.1189 -2.0069
   82SAPS   C37 7710   6.392   1.993   9.575 -0.2151 -0.4339 -0.6385
   82SAPS   H7X 7711   6.382   1.883   9.566  2.0004 -0.8000  0.9509
   82SAPS   H7Y 7712   6.501   1.993   9.599 -0.0257 -3.0835 -1.4133
   82SAPS   C38 7713   6.357   2.067   9.448  0.2388  0.3495 -0.0804
   82SAPS   H8X 7714   6.393   2.172   9.455  0.6220  0.1661  0.7668
   82SAPS   H8Y 7715   6.246   2.072   9.438  0.3505  0.3205 -1.3089
   82SAPS   C39 7716   6.400   1.983   9.319  0.2302 -0.0231  0.5715
   82SAPS   H9X 7717   6.353   1.883   9.332  0.4436  0.1144  2.5457
   82SAPS   H9Y 7718   6.509   1.965   9.310  0.1898 -0.9761  1.9290
   82SAPS  C310 7719   6.344   2.051   9.193 -0.2486 -1.2043 -0.4645
   82SAPS  H10X 7720   6.400   2.147   9.191 -0.5819 -1.0342 -2.8414
   82SAPS  H10Y 7721   6.236   2.054   9.216  0.5071  1.7954  3.1309
   82SAPS  C311 7722   6.374   1.971   9.074 -0.2913 -0.5662 -0.6084
   82SAPS  H11X 7723   6.280   1.913   9.062 -0.6213 -0.2478  0.3479
   82SAPS  H11Y 7724   6.465   1.914   9.099  1.0970  1.0836 -1.7673
   82SAPS  C312 7725   6.399   2.046   8.938 -0.2036  0.7129 -0.0518
   82SAPS  H12X 7726   6.331   2.134   8.933 -2.0577 -0.6087  0.8879
   82SAPS  H12Y 7727   6.375   1.984   8.849 -0.1776  0.9189 -0.2015
   82SAPS  C313 7728   6.543   2.100   8.916 -0.3408  0.1321 -0.1628
   82SAPS  H13X 7729   6.610   2.012   8.908  1.3667  1.4545 -0.6811
   82SAPS  H13Y 7730   6.574   2.153   9.009 -0.3897 -0.5426  0.2387
   82SAPS  C314 7731   6.549   2.201   8.803  0.1714 -0.8648  0.1499
   82SAPS  H14X 7732   6.642   2.262   8.806  1.4912 -2.6816 -1.4729
   82SAPS  H14Y 7733   6.462   2.269   8.807 -0.7141 -1.9974  0.4549
   82SAPS  C315 7734   6.545   2.129   8.666  0.4733 -0.3129  0.3232
   82SAPS  H15X 7735   6.512   2.202   8.588 -0.8126 -0.1503  1.0133
   82SAPS  H15Y 7736   6.453   2.066   8.669  0.0040  0.1765 -2.4510
   82SAPS  C316 7737   6.666   2.053   8.609 -0.3379 -0.3005 -0.0541
   82SAPS  H16X 7738   6.724   2.011   8.694  1.1252 -0.7198 -1.2338
   82SAPS  H16Y 7739   6.725   2.124   8.547 -0.7971 -0.8684 -1.1672
   82SAPS  C317 7740   6.619   1.947   8.511 -0.0668  0.6133  0.0566
   82SAPS  H17X 7741   6.549   1.997   8.441  0.5923  1.5381  0.0516
   82SAPS  H17Y 7742   6.564   1.864   8.561 -2.3831 -0.2050 -3.6894
   82SAPS  C318 7743   6.730   1.887   8.429 -0.1609 -0.4453 -0.4299
   82SAPS  H18X 7744   6.798   1.823   8.489 -1.4685 -0.7437  0.7549
   82SAPS  H18Y 7745   6.789   1.968   8.381 -1.7104  0.5445 -0.7078
   82SAPS  H18Z 7746   6.680   1.829   8.349 -1.9910  2.2011 -1.2716
   83SAPS     N 7747   1.104   3.063  11.364 -0.5006 -0.4544  0.2206
   83SAPS   HN1 7748   1.172   3.093  11.438 -2.1601 -0.1097  1.6324
   83SAPS   HN2 7749   1.128   3.132  11.290 -0.8600 -2.0595 -1.4076
   83SAPS   HN3 7750   1.009   3.081  11.402 -0.3025 -0.9070  0.9299
   83SAPS   C12 7751   1.111   2.925  11.317 -0.5368  0.4077  0.4071
   83SAPS  H12A 7752   1.214   2.907  11.291  0.0281  2.1999  1.3163
   83SAPS   C13 7753   1.066   2.817  11.422 -0.2172  0.7509 -0.5815
   83SAPS  O13A 7754   1.013   2.839  11.537 -0.3031  0.2276  0.7004
   83SAPS  O13B 7755   1.085   2.701  11.383  0.4641 -0.1326  0.0517
   83SAPS   C11 7756   1.025   2.903  11.193 -0.5169 -0.8062 -0.2670
   83SAPS  H11A 7757   1.056   2.807  11.146 -1.0240 -1.4112  0.6138
   83SAPS  H11B 7758   1.061   2.978  11.119  1.8947  0.0298  1.7075
   83SAPS     P 7759   0.769   2.825  11.172  0.2732 -0.1981  0.1155
   83SAPS   O13 7760   0.828   2.719  11.085 -0.4948  0.0846 -0.1164
   83SAPS   O14 7761   0.701   2.782  11.296 -0.8618 -0.2090 -0.0123
   83SAPS   O12 7762   0.885   2.923  11.209  0.5449 -0.6813 -0.0278
   83SAPS   O11 7763   0.663   2.909  11.081 -0.1026  0.6737 -0.0588
   83SAPS    C1 7764   0.652   3.052  11.085 -0.7269  0.4103 -0.4300
   83SAPS    HA 7765   0.542   3.065  11.099 -0.5632  0.3926  0.9270
   83SAPS    HB 7766   0.694   3.106  11.172  0.9285 -1.7183  0.1120
   83SAPS    C2 7767   0.705   3.117  10.953  1.3169 -0.4944  0.6148
   83SAPS    HS 7768   0.684   3.226  10.961  0.0596 -0.4717 -2.4406
   83SAPS   O21 7769   0.656   3.057  10.831 -0.3695  0.5763 -0.3058
   83SAPS   C21 7770   0.525   3.060  10.817 -0.2023 -0.3783 -0.4957
   83SAPS   O22 7771   0.434   3.108  10.884  0.1400 -0.2446 -0.0146
   83SAPS   C22 7772   0.491   2.993  10.681  0.1881 -0.0103 -0.1450
   83SAPS   H2R 7773   0.588   2.954  10.642 -0.0041 -0.3944 -0.2402
   83SAPS   H2S 7774   0.411   2.916  10.689  0.9737 -0.7858  0.3842
   83SAPS    C3 7775   0.858   3.119  10.950  0.1545  0.3737 -0.6638
   83SAPS    HX 7776   0.898   3.017  10.969  1.1963  0.6549 -1.3187
   83SAPS    HY 7777   0.880   3.171  11.046 -0.6571 -1.1756  0.3976
   83SAPS   O31 7778   0.906   3.194  10.839 -0.2243 -0.5108 -0.2471
   83SAPS   C31 7779   0.930   3.134  10.721 -0.0527  0.2863  0.1126
   83SAPS   O32 7780   0.934   3.016  10.708 -0.4417  0.1308 -0.2835
   83SAPS   C32 7781   0.954   3.235  10.607 -0.2097  0.0633 -0.2389
   83SAPS   H2X 7782   1.049   3.288  10.628 -0.4732  0.6997 -0.6325
   83SAPS   H2Y 7783   0.872   3.309  10.594 -0.3839 -0.2461 -0.9590
   83SAPS   C23 7784   0.460   3.108  10.581 -0.4051  0.0585  0.8428
   83SAPS   H3R 7785   0.376   3.173  10.611  0.8508  2.3356 -0.4256
   83SAPS   H3S 7786   0.422   3.060  10.488 -1.1137  1.5848  0.3351
   83SAPS   C24 7787   0.585   3.202  10.544 -1.5183  0.4712 -0.0314
   83SAPS   H4R 7788   0.654   3.129  10.496 -0.7265  0.2999  1.3518
   83SAPS   H4S 7789   0.630   3.238  10.639 -0.3950 -1.6675  0.2871
   83SAPS   C25 7790   0.541   3.306  10.457  0.8425  0.7542  0.7482
   83SAPS   H5R 7791   0.523   3.408  10.494  1.2316  1.6776 -1.5446
   83SAPS   C26 7792   0.538   3.296  10.322  0.0846  0.3502  0.1327
   83SAPS   H6R 7793   0.526   3.383  10.256 -1.4968 -1.2331 -1.7703
   83SAPS   C27 7794   0.570   3.169  10.247  0.2436 -0.3177 -0.1337
   83SAPS   H7R 7795   0.485   3.102  10.272 -0.4430  0.9332  0.9502
   83SAPS   H7S 7796   0.670   3.128  10.271  0.0930 -0.6247 -0.0250
   83SAPS   C28 7797   0.581   3.176  10.102 -0.1351 -0.7263 -0.2512
   83SAPS   H8R 7798   0.670   3.228  10.063 -1.7077  1.3171 -1.2219
   83SAPS   C29 7799   0.492   3.133  10.007 -0.3712 -0.4342 -0.4461
   83SAPS   H9R 7800   0.529   3.138   9.903 -0.4698 -2.1562 -0.5692
   83SAPS  C210 7801   0.358   3.068  10.017 -0.4068 -0.5783  0.5834
   83SAPS  H10R 7802   0.288   3.150   9.992  0.1020 -0.3248 -0.0552
   83SAPS  H10S 7803   0.351   3.050  10.126 -0.4165  1.0856  0.8690
   83SAPS  C211 7804   0.328   2.946   9.930  0.2988 -0.0655  0.5104
   83SAPS  H11R 7805   0.311   2.856   9.991  0.3959  0.4122  1.2472
   83SAPS  C212 7806   0.328   2.939   9.792  0.3249  0.5603 -0.0009
   83SAPS  H12R 7807   0.303   2.840   9.750 -0.6415  0.5714  0.5366
   83SAPS  C213 7808   0.354   3.043   9.686 -0.1096 -0.2771 -0.6358
   83SAPS  H13R 7809   0.339   3.137   9.744  1.1227 -0.2705 -0.3050
   83SAPS  H13S 7810   0.279   3.042   9.604 -2.6436  1.2531  1.5518
   83SAPS  C214 7811   0.501   3.050   9.644 -0.4851  0.4080 -0.2075
   83SAPS  H14R 7812   0.562   3.024   9.731 -1.0317 -0.0664  0.0393
   83SAPS  C215 7813   0.554   3.091   9.531 -0.4002 -0.1716  0.3230
   83SAPS  H15R 7814   0.664   3.093   9.528 -0.4051  1.1475  0.5665
   83SAPS  C216 7815   0.475   3.147   9.412  0.8056 -0.2378 -0.7397
   83SAPS  H16R 7816   0.458   3.256   9.426 -1.4761 -0.4855 -1.5234
   83SAPS  H16S 7817   0.376   3.099   9.402  1.0295 -0.8439 -0.1172
   83SAPS  C217 7818   0.557   3.119   9.285  0.7559  0.8164  0.4181
   83SAPS  H17R 7819   0.658   3.164   9.300  0.2962  1.6718  0.9479
   83SAPS  H17S 7820   0.527   3.181   9.198 -0.1199  1.1311  0.9463
   83SAPS  C218 7821   0.575   2.972   9.250  0.0747  0.1790  0.2872
   83SAPS  H18R 7822   0.473   2.929   9.262 -0.8111  1.7712 -1.2407
   83SAPS  H18S 7823   0.653   2.943   9.322 -0.4784  0.5624  1.0514
   83SAPS  C219 7824   0.619   2.942   9.110 -0.5989  0.4305  0.4539
   83SAPS  H19R 7825   0.709   3.000   9.079 -2.3821  2.2647 -1.5024
   83SAPS  H19S 7826   0.535   2.981   9.048 -0.8061  0.9293  1.0413
   83SAPS  C220 7827   0.656   2.799   9.086 -0.1020 -0.2675 -0.4180
   83SAPS  H20R 7828   0.695   2.775   8.985  3.5780 -1.8634  1.2779
   83SAPS  H20S 7829   0.573   2.728   9.106  1.5265 -2.1036 -0.0092
   83SAPS  H20T 7830   0.736   2.769   9.156 -0.3057 -0.8019 -0.4083
   83SAPS   C33 7831   0.971   3.163  10.474  0.9402 -0.3335  0.4039
   83SAPS   H3X 7832   0.879   3.113  10.440  1.3699  0.0794 -1.4245
   83SAPS   H3Y 7833   1.035   3.072  10.479 -1.7085 -2.2541  0.0786
   83SAPS   C34 7834   1.018   3.255  10.354  0.5874  0.6604 -0.9253
   83SAPS   H4X 7835   1.120   3.295  10.373  0.0010  0.9935  1.6895
   83SAPS   H4Y 7836   0.937   3.330  10.343 -0.8164 -0.1539  2.9961
   83SAPS   C35 7837   1.026   3.174  10.226  0.1436 -0.1480  0.0354
   83SAPS   H5X 7838   0.932   3.116  10.216  0.2675 -0.1256 -1.3701
   83SAPS   H5Y 7839   1.110   3.103  10.242  0.7646  1.1931  3.0302
   83SAPS   C36 7840   1.050   3.244  10.092 -0.8240  0.2560 -0.1780
   83SAPS   H6X 7841   0.955   3.302  10.090  0.3254  2.2481  1.4457
   83SAPS   H6Y 7842   1.042   3.163  10.017 -1.0068 -2.9172  3.1208
   83SAPS   C37 7843   1.179   3.331  10.080  0.5315  0.0424 -0.2468
   83SAPS   H7X 7844   1.182   3.404  10.163  1.8502  0.9834 -1.1157
   83SAPS   H7Y 7845   1.177   3.386   9.984 -0.9502  1.2717  0.4517
   83SAPS   C38 7846   1.314   3.247  10.094 -0.1903  1.0115  0.2353
   83SAPS   H8X 7847   1.314   3.194  10.192 -2.5903  3.0665  1.4243
   83SAPS   H8Y 7848   1.399   3.316  10.081  1.5496 -1.0765  0.2321
   83SAPS   C39 7849   1.316   3.140   9.982 -0.0102 -0.1571  0.3096
   83SAPS   H9X 7850   1.232   3.068   9.993 -0.0018  0.0609  1.9610
   83SAPS   H9Y 7851   1.414   3.087   9.987 -0.5293 -1.0799  0.8757
   83SAPS  C310 7852   1.310   3.195   9.840 -0.1270 -0.7645  0.4319
   83SAPS  H10X 7853   1.385   3.277   9.843  2.2222 -2.8530  2.1968
   83SAPS  H10Y 7854   1.220   3.245   9.799 -0.5019  0.0790  2.2340
   83SAPS  C311 7855   1.372   3.099   9.731 -0.3408  0.2069  1.0131
   83SAPS  H11X 7856   1.307   3.009   9.726 -1.0153  0.7634 -0.7845
   83SAPS  H11Y 7857   1.478   3.076   9.756 -0.3429 -1.7061 -0.5634
   83SAPS  C312 7858   1.369   3.166   9.596  0.8687 -0.0017 -0.0658
   83SAPS  H12X 7859   1.444   3.248   9.603 -1.1809  2.0820 -1.6405
   83SAPS  H12Y 7860   1.270   3.210   9.575  0.4261 -2.1747 -2.8286
   83SAPS  C313 7861   1.405   3.059   9.489  0.6834  0.5736  0.2697
   83SAPS  H13X 7862   1.373   2.956   9.515 -0.0293  0.5684 -0.5966
   83SAPS  H13Y 7863   1.515   3.046   9.494  0.9420  2.8112  0.9779
   83SAPS  C314 7864   1.357   3.087   9.350  0.1252 -0.4983  0.4983
   83SAPS  H14X 7865   1.344   3.194   9.324 -0.7190 -0.9519 -1.0134
   83SAPS  H14Y 7866   1.252   3.058   9.328  0.0693 -0.5515  0.8392
   83SAPS  C315 7867   1.447   3.030   9.245 -0.4682  0.4774 -0.5591
   83SAPS  H15X 7868   1.488   2.932   9.277 -0.3206  1.2977  1.9296
   83SAPS  H15Y 7869   1.534   3.099   9.250 -1.4775  1.7410 -0.1525
   83SAPS  C316 7870   1.381   3.012   9.104 -0.4668  0.2230 -0.0390
   83SAPS  H16X 7871   1.312   3.096   9.082 -0.4492  0.1991 -0.1809
   83SAPS  H16Y 7872   1.322   2.919   9.091 -0.4760  0.0501  1.1778
   83SAPS  C317 7873   1.488   3.004   8.989 -0.1063 -0.0821  0.0889
   83SAPS  H17X 7874   1.564   2.924   9.001  0.8722  1.2564  3.3404
   83SAPS  H17Y 7875   1.540   3.102   8.983 -1.6789  0.7165 -0.8849
   83SAPS  C318 7876   1.423   2.989   8.852  0.0160  1.0941 -0.5685
   83SAPS  H18X 7877   1.496   3.012   8.772 -0.7227 -0.0669 -1.6005
   83SAPS  H18Y 7878   1.336   3.057   8.838 -0.5023  0.2797 -1.3939
   83SAPS  H18Z 7879   1.387   2.884   8.849 -1.0330  1.4580 -4.7496
   84SAPS     N 7880   2.622   2.002  11.200  0.8079  0.1196 -0.1248
   84SAPS   HN1 7881   2.575   1.940  11.269 -0.7713 -1.2708 -2.4003
   84SAPS   HN2 7882   2.560   2.069  11.151 -1.2875 -1.0807  0.8167
   84SAPS   HN3 7883   2.658   1.938  11.126 -0.4772  0.2126 -0.8349
   84SAPS   C12 7884   2.743   2.072  11.271  0.1510 -0.1938 -0.6255
   84SAPS  H12A 7885   2.716   2.171  11.306 -0.9754 -0.3837 -0.9376
   84SAPS   C13 7886   2.794   1.993  11.392  0.6984  0.3592  0.1962
   84SAPS  O13A 7887   2.742   1.880  11.410  0.5855  0.0361  0.1794
   84SAPS  O13B 7888   2.886   2.031  11.462 -0.1665  0.1039  0.5313
   84SAPS   C11 7889   2.851   2.089  11.171  0.0045  0.5076 -0.1545
   84SAPS  H11A 7890   2.887   1.999  11.117  0.4146  0.2278  0.5811
   84SAPS  H11B 7891   2.941   2.137  11.214 -0.4229 -1.5171  3.1121
   84SAPS     P 7892   2.843   2.202  10.935  0.0046 -0.1791  0.5412
   84SAPS   O13 7893   2.970   2.277  10.928  0.0286 -0.0463 -0.0580
   84SAPS   O14 7894   2.854   2.076  10.861 -0.0981  0.1872  0.3603
   84SAPS   O12 7895   2.797   2.191  11.086 -0.2251  0.1284 -0.8550
   84SAPS   O11 7896   2.731   2.280  10.866 -0.5986  0.0808  1.2372
   84SAPS    C1 7897   2.621   2.235  10.788 -0.1599  0.2639  0.4785
   84SAPS    HA 7898   2.563   2.155  10.838  0.1766 -1.4307 -1.7412
   84SAPS    HB 7899   2.555   2.319  10.757  1.3216  1.4326  0.4201
   84SAPS    C2 7900   2.673   2.185  10.645  0.2654  0.4562  1.0841
   84SAPS    HS 7901   2.770   2.133  10.661  0.6071  0.1929 -1.5548
   84SAPS   O21 7902   2.688   2.307  10.560  0.1528 -0.0023  0.0979
   84SAPS   C21 7903   2.811   2.313  10.501 -0.0257  0.1315 -0.3440
   84SAPS   O22 7904   2.903   2.234  10.514  0.1165 -0.1585 -0.4500
   84SAPS   C22 7905   2.811   2.442  10.409  0.2148 -0.3016 -0.6531
   84SAPS   H2R 7906   2.710   2.486  10.423  0.1609 -0.5960 -0.1085
   84SAPS   H2S 7907   2.897   2.505  10.442 -0.4741  0.5889 -0.5434
   84SAPS    C3 7908   2.577   2.081  10.576 -0.2637 -0.5177 -0.5874
   84SAPS    HX 7909   2.467   2.100  10.584 -0.2707  0.3616 -2.4190
   84SAPS    HY 7910   2.581   1.993  10.643  1.8394  2.4544  3.4098
   84SAPS   O31 7911   2.606   2.051  10.438 -0.6682 -0.0194  0.3433
   84SAPS   C31 7912   2.699   1.962  10.415 -0.1977 -0.1129  0.3659
   84SAPS   O32 7913   2.770   1.908  10.498  0.4357 -0.2947  0.3196
   84SAPS   C32 7914   2.721   1.930  10.266 -0.3829 -0.4371  0.3120
   84SAPS   H2X 7915   2.825   1.894  10.247 -0.0876 -0.1895  1.4028
   84SAPS   H2Y 7916   2.711   2.016  10.197  3.3699 -0.3592 -0.2293
   84SAPS   C23 7917   2.827   2.391  10.264 -0.0857 -0.2136 -0.2782
   84SAPS   H3R 7918   2.745   2.318  10.247 -0.8572  0.8809 -1.2655
   84SAPS   H3S 7919   2.924   2.336  10.262 -0.0257 -0.0727 -2.3880
   84SAPS   C24 7920   2.810   2.510  10.160  0.4945  0.6698 -0.1138
   84SAPS   H4R 7921   2.855   2.474  10.065  2.2412 -0.8449  1.2355
   84SAPS   H4S 7922   2.879   2.582  10.209  1.7830 -0.8446  0.3382
   84SAPS   C25 7923   2.671   2.561  10.136 -0.3499 -0.6276  0.7717
   84SAPS   H5R 7924   2.618   2.609  10.220 -1.2556  0.5111 -0.4452
   84SAPS   C26 7925   2.612   2.574  10.019 -0.4954 -0.2792 -0.0925
   84SAPS   H6R 7926   2.510   2.617  10.013 -0.4125 -0.1057 -0.2690
   84SAPS   C27 7927   2.665   2.515   9.887  0.3073  0.1152  0.2771
   84SAPS   H7R 7928   2.693   2.411   9.914  0.8866 -0.4167 -2.2225
   84SAPS   H7S 7929   2.761   2.560   9.855 -1.2526  0.3770 -4.3984
   84SAPS   C28 7930   2.568   2.504   9.771  0.1193  1.1033 -0.1243
   84SAPS   H8R 7931   2.462   2.514   9.799  0.4248  1.4350  0.9373
   84SAPS   C29 7932   2.592   2.481   9.640  0.0990  0.3481 -0.1755
   84SAPS   H9R 7933   2.508   2.475   9.570 -1.0826 -0.8892  1.3077
   84SAPS  C210 7934   2.728   2.460   9.573  0.2766  0.1900  0.2978
   84SAPS  H10R 7935   2.731   2.367   9.513 -1.2907  0.3460 -0.0488
   84SAPS  H10S 7936   2.808   2.436   9.646  1.3349  0.3602 -0.7885
   84SAPS  C211 7937   2.768   2.583   9.491 -0.8456 -0.3398 -0.2881
   84SAPS  H11R 7938   2.786   2.671   9.554  0.3270 -1.4491  0.9717
   84SAPS  C212 7939   2.812   2.593   9.360  0.1682  0.4820 -0.0856
   84SAPS  H12R 7940   2.861   2.688   9.333  2.8414 -1.9960 -4.4420
   84SAPS  C213 7941   2.822   2.480   9.262 -0.1843  0.0576 -0.2267
   84SAPS  H13R 7942   2.800   2.521   9.160 -2.6170 -2.0460 -0.5958
   84SAPS  H13S 7943   2.739   2.407   9.260  0.3342 -0.5208 -1.3711
   84SAPS  C214 7944   2.954   2.401   9.267 -0.3339  0.0856 -0.5308
   84SAPS  H14R 7945   2.979   2.365   9.368  1.5598 -1.2320 -1.4303
   84SAPS  C215 7946   3.021   2.347   9.161  0.5612 -0.1228 -0.2639
   84SAPS  H15R 7947   3.114   2.296   9.189 -0.1796 -1.7489 -0.6870
   84SAPS  C216 7948   2.981   2.349   9.020  0.0675 -0.4972 -1.0916
   84SAPS  H16R 7949   3.061   2.393   8.956  0.8907 -1.3759 -0.6790
   84SAPS  H16S 7950   2.890   2.410   9.006  1.5917  1.9244 -0.8451
   84SAPS  C217 7951   2.940   2.209   8.960  0.4475  0.3401  0.8026
   84SAPS  H17R 7952   2.911   2.227   8.854 -0.9161  1.1327  1.3064
   84SAPS  H17S 7953   2.846   2.181   9.012  0.4477  0.9437  1.1362
   84SAPS  C218 7954   3.037   2.097   8.969  0.3906  0.0718  0.3583
   84SAPS  H18R 7955   2.990   1.997   8.960  0.2552  0.1575  0.1335
   84SAPS  H18S 7956   3.074   2.102   9.074  3.0260 -1.0631 -0.4795
   84SAPS  C219 7957   3.152   2.107   8.875 -0.2382 -0.7074  0.2479
   84SAPS  H19R 7958   3.229   2.033   8.905  1.6204  1.0941 -0.0436
   84SAPS  H19S 7959   3.197   2.205   8.899 -0.6197 -0.3356 -0.5460
   84SAPS  C220 7960   3.112   2.093   8.726 -0.1368 -0.5771  0.2491
   84SAPS  H20R 7961   3.198   2.097   8.655  0.2184 -1.3622  0.6389
   84SAPS  H20S 7962   3.034   2.165   8.693 -1.7239 -1.9781  0.8924
   84SAPS  H20T 7963   3.084   1.992   8.692  4.0684 -1.1261 -2.0161
   84SAPS   C33 7964   2.615   1.838  10.218 -0.5641 -0.4368  0.1023
   84SAPS   H3X 7965   2.512   1.864  10.252 -0.2356  1.3105 -0.2123
   84SAPS   H3Y 7966   2.641   1.736  10.254  1.1385 -0.3161 -0.7473
   84SAPS   C34 7967   2.602   1.852  10.071 -0.5865  0.4142  0.2066
   84SAPS   H4X 7968   2.701   1.853  10.020 -0.1053  2.7387  1.1377
   84SAPS   H4Y 7969   2.571   1.957  10.051  2.2261  1.8309  2.8980
   84SAPS   C35 7970   2.496   1.752  10.013 -0.4602  0.0019  0.6711
   84SAPS   H5X 7971   2.412   1.757  10.086 -1.9677  0.2142 -1.0373
   84SAPS   H5Y 7972   2.541   1.651  10.002 -0.3694  0.3820 -3.2569
   84SAPS   C36 7973   2.446   1.800   9.873 -0.1541 -0.3498 -0.1211
   84SAPS   H6X 7974   2.443   1.910   9.861 -0.5864 -0.3851 -0.3543
   84SAPS   H6Y 7975   2.345   1.761   9.845 -0.4381 -0.4128  0.9450
   84SAPS   C37 7976   2.534   1.755   9.752  0.1648 -0.6304  0.3419
   84SAPS   H7X 7977   2.520   1.645   9.751  1.0165 -0.7478 -2.2045
   84SAPS   H7Y 7978   2.640   1.782   9.772  0.4506 -1.1481 -0.4670
   84SAPS   C38 7979   2.474   1.809   9.621 -0.3648 -0.1592  0.1269
   84SAPS   H8X 7980   2.542   1.894   9.601  0.4507 -1.2137 -1.7211
   84SAPS   H8Y 7981   2.368   1.843   9.625 -0.1416  0.5380  0.2732
   84SAPS   C39 7982   2.484   1.706   9.509  0.1536  0.7138  0.3496
   84SAPS   H9X 7983   2.432   1.612   9.538 -2.2292  1.6125 -0.8796
   84SAPS   H9Y 7984   2.585   1.667   9.485 -1.0904 -1.6200 -1.2862
   84SAPS  C310 7985   2.419   1.763   9.385  0.0840 -0.3703  0.5263
   84SAPS  H10X 7986   2.473   1.849   9.339 -0.6407  1.1618  2.4641
   84SAPS  H10Y 7987   2.314   1.787   9.411 -0.4915 -0.7465 -1.4172
   84SAPS  C311 7988   2.408   1.662   9.260 -0.1086  0.5849  0.3408
   84SAPS  H11X 7989   2.328   1.591   9.290  0.4361 -0.1605  0.0410
   84SAPS  H11Y 7990   2.503   1.606   9.245  0.0165  1.2062 -1.2019
   84SAPS  C312 7991   2.354   1.729   9.132 -0.7551 -0.2022 -0.0033
   84SAPS  H12X 7992   2.431   1.799   9.092 -0.7899 -1.3092 -2.0493
   84SAPS  H12Y 7993   2.262   1.790   9.149  0.1357  1.7660 -2.0131
   84SAPS  C313 7994   2.340   1.618   9.029 -0.2716  0.0616  0.1913
   84SAPS  H13X 7995   2.265   1.538   9.050 -0.2943  0.2547  0.8606
   84SAPS  H13Y 7996   2.436   1.564   9.023 -0.3752 -0.1099  0.0915
   84SAPS  C314 7997   2.322   1.692   8.892  0.8229  0.0165 -0.6766
   84SAPS  H14X 7998   2.391   1.777   8.875 -1.0200  1.9746  1.2966
   84SAPS  H14Y 7999   2.221   1.737   8.899  1.0410  0.5125 -0.6762
   84SAPS  C315 8000   2.318   1.600   8.771 -0.1914  0.3724  0.8100
   84SAPS  H15X 8001   2.274   1.663   8.691  3.1241 -0.6733 -1.9858
   84SAPS  H15Y 8002   2.261   1.506   8.786 -1.5449  1.6124  3.8832
   84SAPS  C316 8003   2.460   1.578   8.709 -0.3384 -0.3393  0.3106
   84SAPS  H16X 8004   2.520   1.539   8.794 -0.3676 -2.4970 -0.6350
   84SAPS  H16Y 8005   2.510   1.675   8.688 -2.2141  1.2978  3.0429
   84SAPS  C317 8006   2.451   1.502   8.582 -0.2349  0.5425 -0.1455
   84SAPS  H17X 8007   2.385   1.548   8.505 -0.9676 -0.3981 -0.0973
   84SAPS  H17Y 8008   2.407   1.401   8.598 -0.3437  0.6828  0.4536
   84SAPS  C318 8009   2.595   1.480   8.511 -0.5599 -0.1152 -0.2803
   84SAPS  H18X 8010   2.634   1.571   8.462 -0.6515  1.5321  2.6158
   84SAPS  H18Y 8011   2.590   1.394   8.440 -0.9190 -1.5161  1.4008
   84SAPS  H18Z 8012   2.666   1.445   8.588 -0.4616  1.3238  0.2950
   85SAPS     N 8013   6.362   4.251  11.187 -0.2004  0.2339 -0.2399
   85SAPS   HN1 8014   6.307   4.310  11.252  0.6249  0.1547  0.5488
   85SAPS   HN2 8015   6.459   4.249  11.226 -0.8880 -2.6890  1.4599
   85SAPS   HN3 8016   6.383   4.290  11.093  0.8127 -1.2877 -0.6693
   85SAPS   C12 8017   6.329   4.107  11.195 -0.0651  0.7540  0.0406
   85SAPS  H12A 8018   6.411   4.049  11.156 -0.8804 -0.3246 -0.1115
   85SAPS   C13 8019   6.306   4.051  11.334  0.3153 -0.0373  0.3038
   85SAPS  O13A 8020   6.346   4.116  11.431 -0.1002 -0.1070  0.0771
   85SAPS  O13B 8021   6.275   3.926  11.341 -0.0734 -0.0386  0.1745
   85SAPS   C11 8022   6.194   4.079  11.110 -0.0256 -0.3112  0.3347
   85SAPS  H11A 8023   6.107   4.135  11.149  0.5477  1.5457 -0.9921
   85SAPS  H11B 8024   6.169   3.972  11.125 -2.0915 -0.1184 -1.4832
   85SAPS     P 8025   6.152   4.030  10.856 -0.0313 -0.1248 -0.1005
   85SAPS   O13 8026   6.152   3.886  10.889  0.1325 -0.5386 -0.1565
   85SAPS   O14 8027   6.017   4.083  10.833  0.1926 -0.3335 -0.1625
   85SAPS   O12 8028   6.212   4.115  10.975  0.1062  0.0032  0.1126
   85SAPS   O11 8029   6.234   4.061  10.728  0.1751 -0.2492  0.3039
   85SAPS    C1 8030   6.378   4.058  10.729 -0.0447  0.9977 -0.0784
   85SAPS    HA 8031   6.415   4.161  10.747 -0.3539  1.0052  0.5412
   85SAPS    HB 8032   6.425   3.996  10.809 -0.8571  0.1246 -0.2662
   85SAPS    C2 8033   6.441   4.010  10.593 -0.9546 -0.4273 -0.1971
   85SAPS    HS 8034   6.541   4.058  10.591 -0.9037 -0.3622  2.3344
   85SAPS   O21 8035   6.354   4.034  10.476 -0.7396 -0.0535  0.0381
   85SAPS   C21 8036   6.348   4.163  10.444 -0.1945  0.0675 -0.8469
   85SAPS   O22 8037   6.402   4.257  10.503 -0.0202  0.4755  0.6251
   85SAPS   C22 8038   6.251   4.178  10.331  0.3067  0.0501  0.4531
   85SAPS   H2R 8039   6.188   4.087  10.320  1.9892 -1.1855  0.8400
   85SAPS   H2S 8040   6.181   4.261  10.357  0.8246  0.7607 -0.4079
   85SAPS    C3 8041   6.457   3.852  10.603  0.3746 -0.0473 -0.8576
   85SAPS    HX 8042   6.364   3.800  10.632  1.1479  0.3608  2.5544
   85SAPS    HY 8043   6.523   3.835  10.691 -0.0459  0.9024 -0.3596
   85SAPS   O31 8044   6.514   3.801  10.478  0.0179  0.2496 -0.5256
   85SAPS   C31 8045   6.435   3.733  10.403 -0.7989 -0.6380  0.5007
   85SAPS   O32 8046   6.317   3.712  10.412 -0.2521 -0.2992 -0.3851
   85SAPS   C32 8047   6.532   3.677  10.289 -0.0067 -0.9849  0.7321
   85SAPS   H2X 8048   6.488   3.587  10.241 -0.6813 -1.7282  2.6524
   85SAPS   H2Y 8049   6.608   3.632  10.356  0.1940 -0.7122  0.6873
   85SAPS   C23 8050   6.327   4.210  10.200 -0.2037  0.2421  0.5591
   85SAPS   H3R 8051   6.378   4.117  10.167  1.8639  0.3994  3.1647
   85SAPS   H3S 8052   6.411   4.280  10.219  1.4562 -1.2328 -1.0784
   85SAPS   C24 8053   6.235   4.272  10.094 -0.0955 -0.3310 -0.1528
   85SAPS   H4R 8054   6.142   4.215  10.111 -0.1438  0.2602  1.6684
   85SAPS   H4S 8055   6.272   4.255   9.991  0.7858  0.9142 -0.0626
   85SAPS   C25 8056   6.219   4.419  10.107 -0.0426  0.0719 -0.1629
   85SAPS   H5R 8057   6.137   4.467  10.162 -0.3481 -1.0619  0.3742
   85SAPS   C26 8058   6.311   4.508  10.058  0.1031 -0.7855  0.2186
   85SAPS   H6R 8059   6.299   4.616  10.071  1.0645 -0.8748  1.9579
   85SAPS   C27 8060   6.439   4.479   9.987  0.2708 -0.2261 -0.0216
   85SAPS   H7R 8061   6.463   4.556   9.909 -0.3194  1.0855  1.0690
   85SAPS   H7S 8062   6.431   4.388   9.924 -1.0850 -1.2865  1.6293
   85SAPS   C28 8063   6.558   4.479  10.080  0.7247  0.7672  0.2239
   85SAPS   H8R 8064   6.551   4.555  10.160 -0.6544  0.2891  0.5910
   85SAPS   C29 8065   6.664   4.402  10.072  0.1989 -0.3336 -0.2919
   85SAPS   H9R 8066   6.745   4.419  10.145 -1.0424 -0.1331  1.0570
   85SAPS  C210 8067   6.690   4.299   9.962  0.3810  0.3461 -0.0997
   85SAPS  H10R 8068   6.610   4.306   9.886  1.3783 -0.9915 -1.2887
   85SAPS  H10S 8069   6.686   4.199  10.011 -1.2355  0.4548  0.0032
   85SAPS  C211 8070   6.824   4.316   9.901  0.4752  0.1037 -0.1442
   85SAPS  H11R 8071   6.905   4.322   9.975 -0.8867 -1.3230  1.5112
   85SAPS  C212 8072   6.852   4.304   9.768  0.1370  0.0343 -0.1514
   85SAPS  H12R 8073   6.957   4.318   9.737  0.2158  1.7270  0.7988
   85SAPS  C213 8074   6.766   4.282   9.650 -0.9837 -0.0077  0.4686
   85SAPS  H13R 8075   6.688   4.211   9.683 -0.0315 -0.0711  2.6465
   85SAPS  H13S 8076   6.831   4.221   9.584 -0.0903  0.5939  0.7865
   85SAPS  C214 8077   6.697   4.398   9.579 -0.7828 -0.4366  0.8047
   85SAPS  H14R 8078   6.652   4.461   9.657 -0.5726  1.8712 -0.8634
   85SAPS  C215 8079   6.691   4.429   9.450 -0.9706 -0.8633 -0.4330
   85SAPS  H15R 8080   6.621   4.502   9.408 -0.5199  0.2150  0.6678
   85SAPS  C216 8081   6.752   4.346   9.337  0.2884 -0.5267 -0.0119
   85SAPS  H16R 8082   6.679   4.318   9.258  0.0124 -1.3776  0.5373
   85SAPS  H16S 8083   6.783   4.252   9.386 -1.0701 -1.1372 -0.2995
   85SAPS  C217 8084   6.866   4.417   9.262  0.2357  0.1473 -0.0602
   85SAPS  H17R 8085   6.926   4.330   9.226 -0.4168  0.3869 -1.7857
   85SAPS  H17S 8086   6.924   4.471   9.340  1.5852 -0.3183 -0.7321
   85SAPS  C218 8087   6.818   4.514   9.152  0.2359 -0.2443 -0.5683
   85SAPS  H18R 8088   6.809   4.607   9.212 -0.2962 -0.6496 -0.0160
   85SAPS  H18S 8089   6.721   4.496   9.100 -0.7820  1.6013  0.6368
   85SAPS  C219 8090   6.926   4.528   9.045 -0.3207  0.3048  0.5291
   85SAPS  H19R 8091   6.926   4.430   8.995 -0.4376 -0.2888  1.6673
   85SAPS  H19S 8092   7.027   4.535   9.093 -0.8050 -2.1809  1.9679
   85SAPS  C220 8093   6.903   4.642   8.941 -0.3461  0.9811 -0.7220
   85SAPS  H20R 8094   6.898   4.733   9.005  0.2790  0.6822 -0.2472
   85SAPS  H20S 8095   6.804   4.626   8.893 -0.3763  0.8810 -0.6250
   85SAPS  H20T 8096   6.978   4.640   8.859  1.1983  1.4916  0.6618
   85SAPS   C33 8097   6.582   3.785  10.190 -0.3918  0.0230 -0.1857
   85SAPS   H3X 8098   6.660   3.736  10.128  0.7778  0.7023  0.7356
   85SAPS   H3Y 8099   6.638   3.865  10.243  0.0429 -0.1078 -0.4485
   85SAPS   C34 8100   6.464   3.835  10.114 -0.3257  0.1216 -1.2102
   85SAPS   H4X 8101   6.409   3.893  10.191  0.9455  0.7028 -0.7397
   85SAPS   H4Y 8102   6.409   3.748  10.072 -1.1389  0.0431 -0.0104
   85SAPS   C35 8103   6.514   3.921  10.006  0.3373 -0.9111 -0.0222
   85SAPS   H5X 8104   6.600   3.876   9.951  0.3760 -0.7651 -0.0823
   85SAPS   H5Y 8105   6.546   4.022  10.039 -3.2805  0.8395 -1.5695
   85SAPS   C36 8106   6.406   3.933   9.893 -0.1034  0.5154  0.5891
   85SAPS   H6X 8107   6.312   3.964   9.942 -0.3950 -0.9654  0.9965
   85SAPS   H6Y 8108   6.406   3.828   9.856 -1.5252 -0.0525  2.1494
   85SAPS   C37 8109   6.447   4.027   9.783  0.5100  0.2421 -0.2516
   85SAPS   H7X 8110   6.552   4.016   9.748  0.0160  1.3231 -2.1798
   85SAPS   H7Y 8111   6.437   4.126   9.831 -1.8326 -0.9877  1.9019
   85SAPS   C38 8112   6.356   4.029   9.654  0.5332 -1.0405  0.0530
   85SAPS   H8X 8113   6.256   4.019   9.703  0.4615  0.5763  0.2459
   85SAPS   H8Y 8114   6.366   3.943   9.585 -1.5627  0.8870 -2.7559
   85SAPS   C39 8115   6.370   4.161   9.589 -0.7047 -0.4306  0.2924
   85SAPS   H9X 8116   6.472   4.200   9.610 -0.9159  1.0139 -1.2706
   85SAPS   H9Y 8117   6.305   4.228   9.649 -1.0565 -2.1765  1.8952
   85SAPS  C310 8118   6.326   4.162   9.442 -0.1792 -1.0478  0.0991
   85SAPS  H10X 8119   6.355   4.262   9.402  0.8405 -1.5104 -0.3383
   85SAPS  H10Y 8120   6.217   4.144   9.434 -0.5256  0.9490  0.1276
   85SAPS  C311 8121   6.390   4.052   9.356 -0.2541 -0.0166  0.6602
   85SAPS  H11X 8122   6.378   4.073   9.248  1.5836 -0.2321  0.3919
   85SAPS  H11Y 8123   6.339   3.954   9.357  2.6262 -1.6043 -1.0266
   85SAPS  C312 8124   6.541   4.028   9.378 -0.0574 -0.0460 -0.0834
   85SAPS  H12X 8125   6.556   4.012   9.487  0.9443  0.0096 -0.2045
   85SAPS  H12Y 8126   6.589   4.124   9.349  1.7949 -1.0742 -0.5095
   85SAPS  C313 8127   6.591   3.905   9.302 -0.1348 -0.0528 -0.2036
   85SAPS  H13X 8128   6.515   3.825   9.319  0.3882 -0.4843  0.1337
   85SAPS  H13Y 8129   6.693   3.872   9.332 -0.1105  0.3667  0.1810
   85SAPS  C314 8130   6.597   3.927   9.150  0.8680  0.2770  0.5150
   85SAPS  H14X 8131   6.671   4.007   9.127  0.5635  0.1625 -0.9435
   85SAPS  H14Y 8132   6.494   3.963   9.127  0.3818 -1.5188 -0.2140
   85SAPS  C315 8133   6.612   3.808   9.063 -0.3706 -0.4182  0.2495
   85SAPS  H15X 8134   6.520   3.747   9.072 -0.4227 -0.7703 -2.4190
   85SAPS  H15Y 8135   6.700   3.749   9.097 -0.1066 -0.5333 -0.6130
   85SAPS  C316 8136   6.629   3.837   8.912 -0.2927  0.4075  0.0718
   85SAPS  H16X 8137   6.651   3.745   8.853 -0.6235 -0.3585  1.1367
   85SAPS  H16Y 8138   6.711   3.912   8.908 -0.6033  0.9058  2.2875
   85SAPS  C317 8139   6.500   3.906   8.854 -0.5338 -0.1346 -0.6001
   85SAPS  H17X 8140   6.470   3.996   8.913  2.3710  0.5101 -0.0323
   85SAPS  H17Y 8141   6.421   3.828   8.852  0.2757 -0.9160 -2.7144
   85SAPS  C318 8142   6.524   3.963   8.714  0.1876  0.3964  0.5745
   85SAPS  H18X 8143   6.440   4.019   8.666  1.3713  1.1654 -0.6470
   85SAPS  H18Y 8144   6.559   3.873   8.660 -0.1582  0.2240  0.6382
   85SAPS  H18Z 8145   6.611   4.031   8.725  0.1996  0.1421  2.0372
   86SAPS     N 8146   1.601   4.609  11.134  0.6437  0.3374  0.5317
   86SAPS   HN1 8147   1.605   4.707  11.170  0.0423  0.8137 -0.6436
   86SAPS   HN2 8148   1.642   4.536  11.195 -2.4367 -2.0552 -0.1582
   86SAPS   HN3 8149   1.640   4.610  11.038 -2.2718  1.0296 -0.7228
   86SAPS   C12 8150   1.450   4.600  11.122 -0.3221  0.6914 -0.0767
   86SAPS  H12A 8151   1.419   4.537  11.040  2.3299 -0.8818  0.0848
   86SAPS   C13 8152   1.380   4.532  11.241  0.3398 -0.2367 -0.4142
   86SAPS  O13A 8153   1.449   4.508  11.349 -0.6101 -0.0307 -0.1448
   86SAPS  O13B 8154   1.256   4.510  11.241 -0.5753 -0.2379  0.2148
   86SAPS   C11 8155   1.386   4.735  11.090 -0.0778  0.2001 -0.3440
   86SAPS  H11A 8156   1.414   4.810  11.167  0.2816 -0.9605  0.6877
   86SAPS  H11B 8157   1.277   4.714  11.084 -0.3075  1.9955 -3.0984
   86SAPS     P 8158   1.351   4.872  10.870  0.3636 -0.0328 -0.0163
   86SAPS   O13 8159   1.291   4.975  10.956  0.1312 -0.3260 -0.0716
   86SAPS   O14 8160   1.439   4.917  10.761  0.5512 -0.6681 -0.3177
   86SAPS   O12 8161   1.438   4.781  10.961 -0.1852 -0.0834  0.4130
   86SAPS   O11 8162   1.245   4.771  10.817 -0.5300 -0.0935 -0.0395
   86SAPS    C1 8163   1.289   4.640  10.773  0.4240 -0.0993 -0.0636
   86SAPS    HA 8164   1.384   4.604  10.819 -0.7924 -0.1318  2.5567
   86SAPS    HB 8165   1.214   4.559  10.782 -2.0852  2.0598 -1.0690
   86SAPS    C2 8166   1.316   4.628  10.622 -0.0214 -0.0028  0.1702
   86SAPS    HS 8167   1.387   4.709  10.596 -1.0450  0.5559 -0.8994
   86SAPS   O21 8168   1.191   4.642  10.546 -0.4986  0.1356  0.1118
   86SAPS   C21 8169   1.207   4.715  10.437 -0.6483  0.1161 -0.7343
   86SAPS   O22 8170   1.307   4.769  10.392 -0.0486 -0.3290 -0.1860
   86SAPS   C22 8171   1.066   4.716  10.373 -0.6068 -0.0005  0.9645
   86SAPS   H2R 8172   1.020   4.616  10.386 -0.3303 -0.4022 -0.8969
   86SAPS   H2S 8173   1.007   4.787  10.435  0.8438 -1.7238  4.4015
   86SAPS    C3 8174   1.398   4.503  10.581 -0.1220 -1.0023  0.3588
   86SAPS    HX 8175   1.334   4.412  10.584 -0.8560 -0.5473 -1.0090
   86SAPS    HY 8176   1.475   4.493  10.661 -0.2854  3.7603  1.2767
   86SAPS   O31 8177   1.457   4.518  10.449 -0.0775 -0.7603  0.0773
   86SAPS   C31 8178   1.546   4.414  10.437  0.0350  0.5446  0.0775
   86SAPS   O32 8179   1.552   4.322  10.515 -0.2859 -0.3466 -0.5099
   86SAPS   C32 8180   1.647   4.440  10.330  0.4460  0.2537 -0.0805
   86SAPS   H2X 8181   1.739   4.486  10.371  0.1003 -1.3326  2.5586
   86SAPS   H2Y 8182   1.611   4.507  10.249  1.6309 -0.5158 -1.2566
   86SAPS   C23 8183   1.075   4.769  10.225 -0.2581 -0.7050  0.3258
   86SAPS   H3R 8184   1.162   4.718  10.179  0.7570  0.3209  1.0776
   86SAPS   H3S 8185   1.119   4.868  10.251 -0.1747 -0.3791 -0.9923
   86SAPS   C24 8186   0.942   4.767  10.151 -0.1467  0.3804 -0.2100
   86SAPS   H4R 8187   0.958   4.824  10.057  0.1691 -3.4401 -2.5826
   86SAPS   H4S 8188   0.876   4.823  10.219  1.2204 -0.1294  1.5644
   86SAPS   C25 8189   0.885   4.630  10.135  0.2726 -0.1301  0.8296
   86SAPS   H5R 8190   0.881   4.568  10.226  0.5374  1.3001  1.8437
   86SAPS   C26 8191   0.860   4.570  10.021  0.3259 -0.4247 -0.1696
   86SAPS   H6R 8192   0.831   4.464  10.027 -0.9928 -0.1431 -1.1793
   86SAPS   C27 8193   0.871   4.634   9.892 -0.1341  0.0168 -0.0192
   86SAPS   H7R 8194   0.979   4.649   9.875 -0.6072  4.5228  0.4091
   86SAPS   H7S 8195   0.811   4.725   9.871 -1.7512 -1.0690 -0.2384
   86SAPS   C28 8196   0.834   4.534   9.782 -0.7690 -0.6804 -0.1925
   86SAPS   H8R 8197   0.780   4.446   9.818 -1.4960  0.5605  1.8202
   86SAPS   C29 8198   0.858   4.549   9.649  0.1968  0.0530 -0.7064
   86SAPS   H9R 8199   0.814   4.471   9.585  0.8570 -1.7548  1.0025
   86SAPS  C210 8200   0.929   4.662   9.577  0.2225 -0.0618 -0.1957
   86SAPS  H10R 8201   1.020   4.618   9.532  0.3333 -1.2313  1.1397
   86SAPS  H10S 8202   0.969   4.743   9.642  1.6329 -0.5465 -0.4411
   86SAPS  C211 8203   0.845   4.735   9.477  0.2549 -0.0135 -0.0657
   86SAPS  H11R 8204   0.738   4.749   9.497  0.3936  0.1901  0.5452
   86SAPS  C212 8205   0.891   4.804   9.374  0.1635  0.0808 -0.4782
   86SAPS  H12R 8206   0.824   4.859   9.306  0.5444  0.6454 -0.3940
   86SAPS  C213 8207   1.040   4.817   9.336 -0.1366 -0.0793  0.6364
   86SAPS  H13R 8208   1.102   4.803   9.427  0.5346 -0.1980  0.1713
   86SAPS  H13S 8209   1.047   4.922   9.301 -0.1990 -0.1615  0.3740
   86SAPS  C214 8210   1.070   4.712   9.225 -0.5895  0.5269  0.1801
   86SAPS  H14R 8211   1.053   4.610   9.262 -0.3515  0.8623  1.2150
   86SAPS  C215 8212   1.100   4.721   9.091 -0.3676  0.1114  0.3830
   86SAPS  H15R 8213   1.109   4.632   9.028  1.4099  0.0028  0.7711
   86SAPS  C216 8214   1.106   4.850   9.015  0.2849 -0.4322  0.1391
   86SAPS  H16R 8215   1.205   4.853   8.965  0.0124  0.1460 -0.3573
   86SAPS  H16S 8216   1.104   4.935   9.086  1.8392 -0.1900 -0.0806
   86SAPS  C217 8217   0.990   4.871   8.918  0.5976 -0.1126 -0.7088
   86SAPS  H17R 8218   0.897   4.902   8.969  2.3120  4.1408 -0.0127
   86SAPS  H17S 8219   0.964   4.776   8.866  2.6626 -0.8070 -0.5184
   86SAPS  C218 8220   1.040   4.981   8.823 -0.0292 -0.6797 -0.3989
   86SAPS  H18R 8221   1.137   4.946   8.782  1.0745 -0.0103  1.5883
   86SAPS  H18S 8222   1.056   5.074   8.882  1.1486 -0.2001 -1.4546
   86SAPS  C219 8223   0.953   4.998   8.694  0.0353 -0.8193 -0.0319
   86SAPS  H19R 8224   0.913   4.902   8.657  1.9339 -2.6124  2.4041
   86SAPS  H19S 8225   1.019   5.027   8.610 -0.0085 -1.5387 -0.3116
   86SAPS  C220 8226   0.838   5.095   8.710 -0.3852  0.4192 -0.2277
   86SAPS  H20R 8227   0.770   5.064   8.793  0.2549 -3.0076 -0.8965
   86SAPS  H20S 8228   0.775   5.094   8.618  3.3312  3.6954 -2.9410
   86SAPS  H20T 8229   0.859   5.202   8.728 -1.4119  0.4841  0.7167
   86SAPS   C33 8230   1.697   4.304  10.264  0.4708  0.8713 -0.8684
   86SAPS   H3X 8231   1.731   4.225  10.334 -0.7084  0.6787 -0.4983
   86SAPS   H3Y 8232   1.786   4.322  10.201  2.1907 -1.7504  0.7234
   86SAPS   C34 8233   1.591   4.239  10.170  0.3481 -0.0439  0.1896
   86SAPS   H4X 8234   1.550   4.311  10.096  0.0602 -2.1246 -1.7004
   86SAPS   H4Y 8235   1.503   4.212  10.232  0.0341 -1.4817 -0.8532
   86SAPS   C35 8236   1.647   4.116  10.092 -0.3295 -0.3532 -0.2379
   86SAPS   H5X 8237   1.557   4.056  10.065 -0.6312  0.5922 -1.3623
   86SAPS   H5Y 8238   1.711   4.061  10.165 -0.6859 -0.8468 -0.2998
   86SAPS   C36 8239   1.712   4.155   9.960 -0.8537  0.0615  0.2394
   86SAPS   H6X 8240   1.821   4.174   9.968 -1.0353  0.5587  1.5260
   86SAPS   H6Y 8241   1.665   4.242   9.910 -0.4529  0.6664  0.9175
   86SAPS   C37 8242   1.702   4.046   9.852  0.3255  0.2981  0.0345
   86SAPS   H7X 8243   1.608   3.987   9.862 -0.6690  2.1021  1.4298
   86SAPS   H7Y 8244   1.788   3.982   9.883 -1.4344 -0.9155  2.6589
   86SAPS   C38 8245   1.720   4.082   9.696 -0.2001 -0.3776 -0.2955
   86SAPS   H8X 8246   1.817   4.133   9.681 -0.8884  0.8532 -0.7282
   86SAPS   H8Y 8247   1.632   4.145   9.669 -0.1282  0.4220  1.2497
   86SAPS   C39 8248   1.698   3.949   9.622 -0.0036 -0.2761  0.0704
   86SAPS   H9X 8249   1.597   3.908   9.642  1.2258 -3.2044  0.4485
   86SAPS   H9Y 8250   1.765   3.878   9.676 -0.9700 -1.8616 -0.7757
   86SAPS  C310 8251   1.725   3.982   9.478  0.4045  0.3757 -0.1013
   86SAPS  H10X 8252   1.830   4.017   9.479  0.6245 -0.0420 -3.0300
   86SAPS  H10Y 8253   1.669   4.075   9.457  1.9801  0.6185 -3.5147
   86SAPS  C311 8254   1.672   3.874   9.379 -0.2173 -0.0432  0.2638
   86SAPS  H11X 8255   1.575   3.841   9.421 -0.6522  0.6107 -0.2268
   86SAPS  H11Y 8256   1.722   3.775   9.373 -1.1761 -0.4519 -1.0123
   86SAPS  C312 8257   1.662   3.928   9.228  0.5641 -0.1807 -0.4181
   86SAPS  H12X 8258   1.756   3.973   9.189  0.1822  1.8975  0.9880
   86SAPS  H12Y 8259   1.599   4.018   9.238  2.3746  1.0964 -0.2363
   86SAPS  C313 8260   1.610   3.813   9.148 -0.1048  0.7963  0.7466
   86SAPS  H13X 8261   1.584   3.847   9.045 -1.1394  0.9521  1.0569
   86SAPS  H13Y 8262   1.515   3.785   9.198  0.0149  1.4906  1.3735
   86SAPS  C314 8263   1.703   3.692   9.135 -0.3496  0.7585  0.1784
   86SAPS  H14X 8264   1.726   3.650   9.235  1.5088  0.7670 -0.2360
   86SAPS  H14Y 8265   1.799   3.728   9.094 -1.1414  0.4411 -2.0045
   86SAPS  C315 8266   1.653   3.588   9.039  0.0633  0.0652  0.0806
   86SAPS  H15X 8267   1.635   3.640   8.942 -0.9613 -0.2715  0.0819
   86SAPS  H15Y 8268   1.552   3.552   9.068  0.2993  0.3085  1.2260
   86SAPS  C316 8269   1.745   3.471   9.002  0.2749 -0.1574  1.0403
   86SAPS  H16X 8270   1.776   3.424   9.097  5.2415 -1.6556 -1.1250
   86SAPS  H16Y 8271   1.843   3.491   8.954  0.7032 -0.6795  1.6935
   86SAPS  C317 8272   1.671   3.367   8.915 -0.5291  0.2343 -0.3148
   86SAPS  H17X 8273   1.632   3.411   8.821 -1.4667 -0.2524 -0.1595
   86SAPS  H17Y 8274   1.588   3.329   8.978 -0.6902  1.7368  0.3975
   86SAPS  C318 8275   1.754   3.239   8.879  0.0094 -0.1958  0.6158
   86SAPS  H18X 8276   1.858   3.267   8.851 -0.1084 -1.0037 -0.6730
   86SAPS  H18Y 8277   1.697   3.173   8.811  1.7205  0.4635 -1.4890
   86SAPS  H18Z 8278   1.766   3.191   8.979 -0.3166 -1.5957  0.0037
   87SAPS     N 8279   1.880   5.592  11.139 -0.1055  0.5332  0.3743
   87SAPS   HN1 8280   1.833   5.535  11.212  0.7198 -0.8648 -0.1794
   87SAPS   HN2 8281   1.962   5.642  11.179 -0.4602  1.5963 -0.1867
   87SAPS   HN3 8282   1.814   5.666  11.105  1.3931  0.8649 -1.9175
   87SAPS   C12 8283   1.940   5.502  11.026 -1.0450  0.0760  0.4658
   87SAPS  H12A 8284   2.036   5.470  11.064 -0.9973  0.8908  1.0290
   87SAPS   C13 8285   1.865   5.375  11.007  0.0683  0.3258  0.6860
   87SAPS  O13A 8286   1.764   5.357  11.081  0.0002  0.2509 -0.3701
   87SAPS  O13B 8287   1.904   5.282  10.928 -0.1393  0.3250  0.7766
   87SAPS   C11 8288   1.956   5.577  10.900  0.1480  0.2754  0.4250
   87SAPS  H11A 8289   1.864   5.613  10.851 -0.3027  0.1545  1.1816
   87SAPS  H11B 8290   2.005   5.510  10.826 -0.3032 -1.4896  1.6942
   87SAPS     P 8291   2.178   5.715  10.928 -0.2708  0.1204  0.0165
   87SAPS   O13 8292   2.220   5.856  10.921  0.1239 -0.0989 -0.4664
   87SAPS   O14 8293   2.217   5.649  11.051  0.1610  0.3966 -0.2571
   87SAPS   O12 8294   2.022   5.700  10.918  0.6067  0.2754  0.1561
   87SAPS   O11 8295   2.238   5.629  10.814  0.3704  0.0680  0.0350
   87SAPS    C1 8296   2.272   5.693  10.684 -0.1680 -0.4383 -0.0931
   87SAPS    HA 8297   2.297   5.802  10.689 -3.5358  0.4071 -0.5587
   87SAPS    HB 8298   2.364   5.643  10.647  1.6679  2.3772  0.4177
   87SAPS    C2 8299   2.143   5.680  10.595 -0.1365 -0.3867  0.2632
   87SAPS    HS 8300   2.067   5.723  10.663 -0.6322 -0.6091 -0.1506
   87SAPS   O21 8301   2.121   5.544  10.555 -0.1614 -0.2791  0.3694
   87SAPS   C21 8302   1.992   5.512  10.539  0.0665 -0.3326  0.3970
   87SAPS   O22 8303   1.898   5.581  10.567 -0.1762 -0.1888  0.0363
   87SAPS   C22 8304   1.983   5.367  10.499 -0.1251 -0.5536  0.0442
   87SAPS   H2R 8305   2.046   5.347  10.410 -2.3110  0.0596 -1.6953
   87SAPS   H2S 8306   2.013   5.306  10.588 -1.3342  0.0330  0.8682
   87SAPS    C3 8307   2.155   5.768  10.474 -0.1488  0.5464 -0.6775
   87SAPS    HX 8308   2.235   5.733  10.405  0.2670 -0.3447  0.2439
   87SAPS    HY 8309   2.191   5.870  10.498  0.3304  1.3636 -4.5658
   87SAPS   O31 8310   2.037   5.781  10.388  0.4610  0.0667 -0.2971
   87SAPS   C31 8311   1.947   5.866  10.433 -0.4801 -0.2471  0.2243
   87SAPS   O32 8312   1.972   5.945  10.525 -0.4460  0.4093 -0.5317
   87SAPS   C32 8313   1.818   5.847  10.357  0.4106  0.8204 -0.6516
   87SAPS   H2X 8314   1.758   5.937  10.381 -0.5891 -0.3030  1.1141
   87SAPS   H2Y 8315   1.772   5.758  10.403  2.6493 -0.9133 -1.6650
   87SAPS   C23 8316   1.833   5.315  10.461  0.1364 -0.5445  0.0984
   87SAPS   H3R 8317   1.784   5.395  10.401  3.8853  0.3895 -1.8483
   87SAPS   H3S 8318   1.780   5.299  10.557 -0.6081  2.3884  0.2257
   87SAPS   C24 8319   1.830   5.184  10.383  0.1028  0.3547  0.8333
   87SAPS   H4R 8320   1.745   5.121  10.417  0.9460 -1.7780 -0.8898
   87SAPS   H4S 8321   1.913   5.124  10.424  0.5778  0.6806  0.3496
   87SAPS   C25 8322   1.859   5.206  10.229  0.3664 -0.4104 -0.2879
   87SAPS   H5R 8323   1.922   5.296  10.218  0.4690 -0.1715  1.8694
   87SAPS   C26 8324   1.804   5.141  10.126  0.5465 -0.2999  0.1375
   87SAPS   H6R 8325   1.844   5.172  10.028 -1.4919 -2.0875 -1.3002
   87SAPS   C27 8326   1.698   5.037  10.117 -0.3099 -0.6614  0.0838
   87SAPS   H7R 8327   1.628   5.047  10.203 -2.0897  0.8461 -1.4999
   87SAPS   H7S 8328   1.752   4.940  10.122  0.4970 -0.2118  0.2323
   87SAPS   C28 8329   1.621   5.028   9.993  0.8825 -0.3373 -0.8867
   87SAPS   H8R 8330   1.604   5.128   9.949 -3.3309 -0.4742  0.2225
   87SAPS   C29 8331   1.565   4.919   9.936 -0.0190  0.1058 -0.1024
   87SAPS   H9R 8332   1.509   4.931   9.842 -1.8978 -1.9855  0.7050
   87SAPS  C210 8333   1.561   4.781   9.992 -0.4832 -0.4547 -0.3696
   87SAPS  H10R 8334   1.621   4.769  10.085 -0.6497  0.5980 -0.1201
   87SAPS  H10S 8335   1.615   4.718   9.918  0.4349  0.0584 -0.1380
   87SAPS  C211 8336   1.423   4.731  10.018  0.1493  0.2752 -0.3479
   87SAPS  H11R 8337   1.380   4.750  10.117  0.2643 -1.4569  0.0613
   87SAPS  C212 8338   1.346   4.662   9.931  0.1760 -0.1992  0.2570
   87SAPS  H12R 8339   1.240   4.652   9.960 -0.3263  1.0295 -1.0883
   87SAPS  C213 8340   1.383   4.631   9.787 -0.1527  0.2959 -0.0973
   87SAPS  H13R 8341   1.450   4.713   9.753  0.7509  0.5515  2.1921
   87SAPS  H13S 8342   1.291   4.626   9.726 -0.2599  0.0750  0.0826
   87SAPS  C214 8343   1.461   4.503   9.784 -0.4963  0.0743 -0.2775
   87SAPS  H14R 8344   1.443   4.434   9.867  0.8900  0.8761  0.7087
   87SAPS  C215 8345   1.546   4.467   9.695 -0.0001 -0.0526 -0.0402
   87SAPS  H15R 8346   1.560   4.358   9.696 -0.0817 -0.0572  0.9238
   87SAPS  C216 8347   1.581   4.550   9.582 -0.3024 -0.8683  1.3323
   87SAPS  H16R 8348   1.666   4.509   9.522  1.4706  1.9152  1.8289
   87SAPS  H16S 8349   1.619   4.651   9.606 -0.7421 -0.8867  2.1035
   87SAPS  C217 8350   1.467   4.580   9.469  0.1603  0.2271 -0.4472
   87SAPS  H17R 8351   1.414   4.674   9.498 -0.8088 -0.2645 -0.6260
   87SAPS  H17S 8352   1.392   4.499   9.480 -0.3460  0.7562  0.1134
   87SAPS  C218 8353   1.529   4.583   9.332  0.2543  0.6194  0.8938
   87SAPS  H18R 8354   1.600   4.500   9.312  0.4054 -0.4287  5.3809
   87SAPS  H18S 8355   1.582   4.679   9.311  2.7081 -0.6579  1.0197
   87SAPS  C219 8356   1.414   4.576   9.227 -0.0416 -0.7075  0.3606
   87SAPS  H19R 8357   1.350   4.666   9.231 -0.8358 -1.1316 -1.9513
   87SAPS  H19S 8358   1.351   4.486   9.242  1.1886 -1.5363  0.6159
   87SAPS  C220 8359   1.485   4.569   9.089  0.1955  0.3921 -0.5342
   87SAPS  H20R 8360   1.565   4.492   9.090 -1.5627 -1.4389  0.6190
   87SAPS  H20S 8361   1.532   4.665   9.056  0.1282  0.9400  0.9263
   87SAPS  H20T 8362   1.411   4.534   9.014 -2.0819  0.5783  1.5710
   87SAPS   C33 8363   1.821   5.830  10.205 -0.2710 -0.2839  0.3825
   87SAPS   H3X 8364   1.717   5.843  10.167 -0.2580  2.5796  1.2141
   87SAPS   H3Y 8365   1.851   5.727  10.174  0.5043  0.7174 -2.2846
   87SAPS   C34 8366   1.905   5.932  10.126 -0.1452  0.4031  0.1484
   87SAPS   H4X 8367   2.014   5.933  10.147 -0.5671  0.6722  2.4323
   87SAPS   H4Y 8368   1.865   6.035  10.138 -3.8948 -0.7207 -1.8082
   87SAPS   C35 8369   1.906   5.894   9.973  0.0109 -0.4215  0.5510
   87SAPS   H5X 8370   1.953   5.794   9.969  0.4912 -0.1552 -0.8047
   87SAPS   H5Y 8371   1.978   5.962   9.922  0.6760 -0.9287  0.8152
   87SAPS   C36 8372   1.767   5.902   9.904 -0.6916  0.1980 -0.1890
   87SAPS   H6X 8373   1.755   6.011   9.887  1.1603  0.3221 -0.8165
   87SAPS   H6Y 8374   1.682   5.876   9.971 -0.5663 -1.0785 -0.5202
   87SAPS   C37 8375   1.743   5.811   9.784 -0.1717 -0.0760  0.4563
   87SAPS   H7X 8376   1.638   5.776   9.786  0.0422 -0.7559 -0.0834
   87SAPS   H7Y 8377   1.798   5.715   9.796 -0.8055 -0.3716  0.9941
   87SAPS   C38 8378   1.775   5.883   9.648 -0.1622  0.2092  0.3310
   87SAPS   H8X 8379   1.886   5.888   9.638 -0.3075  5.2707  0.0729
   87SAPS   H8Y 8380   1.750   5.991   9.646 -0.9958 -0.0091 -1.8227
   87SAPS   C39 8381   1.722   5.811   9.531 -0.2728  0.2341  0.4403
   87SAPS   H9X 8382   1.611   5.807   9.530 -0.2414 -1.2253  1.2802
   87SAPS   H9Y 8383   1.758   5.707   9.540 -3.5467 -0.9768  0.0541
   87SAPS  C310 8384   1.766   5.878   9.399  0.8423  0.4229 -0.1826
   87SAPS  H10X 8385   1.877   5.882   9.403  0.8487 -1.1460  2.1078
   87SAPS  H10Y 8386   1.706   5.971   9.394  0.6450  0.3012 -0.0670
   87SAPS  C311 8387   1.732   5.783   9.285 -0.2383  0.0772 -0.0167
   87SAPS  H11X 8388   1.625   5.787   9.258 -0.5980  0.2106  1.3977
   87SAPS  H11Y 8389   1.765   5.680   9.310 -0.1958  0.1658  0.2866
   87SAPS  C312 8390   1.808   5.823   9.152  0.0029 -0.0469 -0.6531
   87SAPS  H12X 8391   1.918   5.822   9.165 -0.2291  0.5126  1.5293
   87SAPS  H12Y 8392   1.777   5.929   9.143 -2.1895 -0.4994  0.9946
   87SAPS  C313 8393   1.745   5.746   9.035 -0.1953  0.0919 -0.2796
   87SAPS  H13X 8394   1.643   5.786   9.014 -1.0391 -0.9963  1.6388
   87SAPS  H13Y 8395   1.747   5.640   9.068 -1.7724  0.7577  2.0503
   87SAPS  C314 8396   1.829   5.764   8.907  0.0134 -0.3191  0.1082
   87SAPS  H14X 8397   1.933   5.728   8.923 -1.1402 -2.7551  2.7083
   87SAPS  H14Y 8398   1.835   5.872   8.882  0.5453  0.2390  2.4896
   87SAPS  C315 8399   1.783   5.679   8.780  0.3802  0.1231 -0.0614
   87SAPS  H15X 8400   1.677   5.704   8.757  0.1445  0.6387  1.5374
   87SAPS  H15Y 8401   1.799   5.572   8.807 -1.7832  0.1326  1.3911
   87SAPS  C316 8402   1.872   5.716   8.653 -0.1173 -0.4186  0.4510
   87SAPS  H16X 8403   1.970   5.666   8.667 -0.0683 -0.1735  0.9950
   87SAPS  H16Y 8404   1.900   5.823   8.667  2.7205 -0.7049 -2.4515
   87SAPS  C317 8405   1.813   5.692   8.514  0.0683 -0.0545  0.4690
   87SAPS  H17X 8406   1.706   5.720   8.506 -0.3995 -1.8273  0.2103
   87SAPS  H17Y 8407   1.799   5.582   8.500  0.9772 -0.0148 -0.8350
   87SAPS  C318 8408   1.903   5.744   8.403 -0.2153  0.3171  0.3964
   87SAPS  H18X 8409   1.895   5.854   8.402 -1.1054  0.2904  2.6140
   87SAPS  H18Y 8410   1.854   5.715   8.308 -0.7217 -3.6438  1.7682
   87SAPS  H18Z 8411   2.010   5.712   8.407  0.0871  1.3486  0.6107
   88SAPS     N 8412   4.118   3.416  11.050  0.0011  0.6496 -0.4163
   88SAPS   HN1 8413   4.095   3.358  11.133  2.1981  1.7375  1.0102
   88SAPS   HN2 8414   4.100   3.516  11.074 -0.0623  0.4367  0.4612
   88SAPS   HN3 8415   4.059   3.390  10.969  1.6907 -1.8844 -0.8694
   88SAPS   C12 8416   4.264   3.414  11.021 -0.0230 -0.6803  0.2886
   88SAPS  H12A 8417   4.312   3.473  11.098 -2.2335  1.4723  0.0751
   88SAPS   C13 8418   4.326   3.266  11.025  0.2416 -0.7097  0.8426
   88SAPS  O13A 8419   4.249   3.168  11.022  0.1772  0.4251 -0.3443
   88SAPS  O13B 8420   4.446   3.249  11.056  0.0907  0.1801  0.4371
   88SAPS   C11 8421   4.288   3.476  10.878 -0.3777  0.1574 -0.2550
   88SAPS  H11A 8422   4.236   3.413  10.804 -0.4338 -1.0165  0.7561
   88SAPS  H11B 8423   4.395   3.478  10.848 -0.2681  1.1555  0.1775
   88SAPS     P 8424   4.301   3.730  10.818 -0.3546  0.4493  0.2912
   88SAPS   O13 8425   4.217   3.850  10.819  0.1639 -0.1134  0.5028
   88SAPS   O14 8426   4.434   3.752  10.867 -0.7278  0.1156  0.0217
   88SAPS   O12 8427   4.239   3.605  10.888  0.1050 -0.0658  0.4647
   88SAPS   O11 8428   4.315   3.657  10.668  0.2447  0.4232  0.4454
   88SAPS    C1 8429   4.206   3.640  10.583 -0.0626 -0.2459 -0.3056
   88SAPS    HA 8430   4.138   3.569  10.634 -1.7040  1.5925  0.1126
   88SAPS    HB 8431   4.144   3.731  10.567 -0.4760  0.0420  2.6994
   88SAPS    C2 8432   4.259   3.589  10.447 -0.2662  0.6799 -0.4989
   88SAPS    HS 8433   4.175   3.555  10.383  0.9820  0.3526 -2.0206
   88SAPS   O21 8434   4.369   3.496  10.448  0.0751  0.0075  0.3789
   88SAPS   C21 8435   4.322   3.378  10.484  0.2737 -0.2982 -0.1609
   88SAPS   O22 8436   4.208   3.349  10.524  0.6904 -1.0046  0.2270
   88SAPS   C22 8437   4.424   3.273  10.434 -0.6820 -0.3896  1.1529
   88SAPS   H2R 8438   4.485   3.324  10.356  0.8377 -1.9433  1.3062
   88SAPS   H2S 8439   4.501   3.246  10.509  0.3344 -1.8137 -0.3946
   88SAPS    C3 8440   4.323   3.712  10.364  0.2713  0.4836  0.7193
   88SAPS    HX 8441   4.410   3.749  10.424  0.4725  1.0721  0.0669
   88SAPS    HY 8442   4.239   3.783  10.367  0.1187  0.2809  1.5553
   88SAPS   O31 8443   4.358   3.672  10.225 -0.0117  0.5472  0.4384
   88SAPS   C31 8444   4.260   3.643  10.146 -0.6704 -0.4511  0.0700
   88SAPS   O32 8445   4.140   3.630  10.174 -0.3160  0.4731 -0.8649
   88SAPS   C32 8446   4.308   3.631   9.995 -0.2012  0.4139 -0.1334
   88SAPS   H2X 8447   4.309   3.525   9.962  1.1872  1.1631 -2.6101
   88SAPS   H2Y 8448   4.414   3.663   9.990 -0.2606  0.8928  1.2449
   88SAPS   C23 8449   4.365   3.149  10.365  0.4911 -0.2572  0.2238
   88SAPS   H3R 8450   4.303   3.094  10.439 -0.6031  0.3642 -0.2249
   88SAPS   H3S 8451   4.448   3.089  10.323  4.0627  3.9652  0.8137
   88SAPS   C24 8452   4.272   3.190  10.244  0.2032 -0.1575 -0.8130
   88SAPS   H4R 8453   4.313   3.279  10.192  1.2255 -2.1498 -3.4956
   88SAPS   H4S 8454   4.174   3.217  10.288  1.4193  0.9570  1.3046
   88SAPS   C25 8455   4.247   3.073  10.155  0.2061  0.2103 -0.2547
   88SAPS   H5R 8456   4.201   2.982  10.195  0.9042 -0.8097 -1.7141
   88SAPS   C26 8457   4.255   3.079  10.021  0.2075 -0.3625 -0.3255
   88SAPS   H6R 8458   4.232   2.993   9.958 -2.0499  0.7674 -1.0945
   88SAPS   C27 8459   4.289   3.199   9.938 -0.6662  0.5165 -0.3074
   88SAPS   H7R 8460   4.391   3.190   9.896 -0.6871  0.4758 -0.3485
   88SAPS   H7S 8461   4.276   3.289  10.002  3.2252  0.0049  1.3687
   88SAPS   C28 8462   4.187   3.207   9.829 -0.5541 -0.2810  0.0372
   88SAPS   H8R 8463   4.082   3.187   9.853 -0.9510  0.7785 -0.7827
   88SAPS   C29 8464   4.214   3.220   9.695  0.6515 -0.7496  0.6205
   88SAPS   H9R 8465   4.123   3.228   9.634 -0.6371 -2.6072  2.2484
   88SAPS  C210 8466   4.347   3.235   9.630  0.3749  0.2253  0.1200
   88SAPS  H10R 8467   4.428   3.200   9.697 -0.2302  0.7139  1.1370
   88SAPS  H10S 8468   4.358   3.345   9.631 -0.1217  0.2937 -1.1784
   88SAPS  C211 8469   4.358   3.177   9.487  0.3672  0.2334 -0.0239
   88SAPS  H11R 8470   4.406   3.078   9.481  1.5298  0.8992 -2.1957
   88SAPS  C212 8471   4.300   3.235   9.382  0.8299 -0.7910  0.3974
   88SAPS  H12R 8472   4.335   3.203   9.282  3.2994  3.2402 -0.1869
   88SAPS  C213 8473   4.220   3.362   9.378  0.1219 -0.4233  0.0227
   88SAPS  H13R 8474   4.202   3.408   9.477  0.8358  0.1226 -0.0983
   88SAPS  H13S 8475   4.120   3.331   9.340 -0.9039 -0.6495  2.8130
   88SAPS  C214 8476   4.293   3.469   9.304 -0.6659  0.1893  0.4299
   88SAPS  H14R 8477   4.363   3.533   9.359 -1.9633  1.8011  0.2346
   88SAPS  C215 8478   4.293   3.483   9.168 -0.2659  0.3840 -0.6133
   88SAPS  H15R 8479   4.354   3.559   9.118  0.1951  1.1382  1.0621
   88SAPS  C216 8480   4.215   3.400   9.070  0.4619 -1.0146  0.3076
   88SAPS  H16R 8481   4.169   3.314   9.124  0.7828  0.1714  2.5609
   88SAPS  H16S 8482   4.286   3.357   8.997  1.9246 -0.3754  1.3223
   88SAPS  C217 8483   4.109   3.494   9.014  0.0333 -0.7767 -0.1213
   88SAPS  H17R 8484   4.093   3.576   9.087  2.6518 -0.9355  0.6768
   88SAPS  H17S 8485   4.012   3.441   8.999 -0.2026 -0.5876  0.6897
   88SAPS  C218 8486   4.142   3.556   8.878 -0.6032 -0.5616  0.3932
   88SAPS  H18R 8487   4.066   3.636   8.864 -0.0080 -0.4122 -2.1596
   88SAPS  H18S 8488   4.127   3.479   8.800 -1.5534 -1.4490  1.4419
   88SAPS  C219 8489   4.285   3.617   8.859  0.1034 -0.2468 -0.7133
   88SAPS  H19R 8490   4.348   3.525   8.863  0.6249  0.1724  1.8991
   88SAPS  H19S 8491   4.309   3.686   8.943 -3.5316 -0.7582  0.8391
   88SAPS  C220 8492   4.286   3.674   8.718 -0.1251 -0.2527  0.4355
   88SAPS  H20R 8493   4.393   3.674   8.690 -0.8839 -0.6781 -2.6162
   88SAPS  H20S 8494   4.243   3.777   8.719 -2.0655 -1.0460  0.4006
   88SAPS  H20T 8495   4.220   3.616   8.651 -2.2776  4.0227 -1.3339
   88SAPS   C33 8496   4.234   3.732   9.903 -0.4739  0.3141 -0.2070
   88SAPS   H3X 8497   4.265   3.834   9.934  1.5865 -0.2186 -0.4077
   88SAPS   H3Y 8498   4.126   3.712   9.920 -0.3039 -0.5689 -0.1429
   88SAPS   C34 8499   4.261   3.704   9.752  0.2825 -0.4958 -1.0024
   88SAPS   H4X 8500   4.250   3.596   9.729 -1.1263 -0.9084  1.4080
   88SAPS   H4Y 8501   4.365   3.740   9.736 -0.8207  3.6629  0.5455
   88SAPS   C35 8502   4.173   3.790   9.661 -0.1606  0.7776 -0.3041
   88SAPS   H5X 8503   4.209   3.892   9.682 -0.4278  0.9775 -0.7943
   88SAPS   H5Y 8504   4.065   3.776   9.683 -1.2649  1.4517 -4.6877
   88SAPS   C36 8505   4.197   3.756   9.514  0.5374 -0.9601  0.0049
   88SAPS   H6X 8506   4.153   3.655   9.496  1.6675 -1.1603 -1.8171
   88SAPS   H6Y 8507   4.306   3.748   9.496  0.5019  1.4515 -1.5569
   88SAPS   C37 8508   4.128   3.856   9.419 -0.1654 -0.2110  0.2526
   88SAPS   H7X 8509   4.175   3.953   9.447  0.4559 -0.3082 -0.4110
   88SAPS   H7Y 8510   4.022   3.880   9.441 -0.5291  2.8453 -4.1422
   88SAPS   C38 8511   4.148   3.832   9.268 -0.5997  0.3153 -0.3136
   88SAPS   H8X 8512   4.118   3.729   9.240  0.7520  0.2614 -1.6617
   88SAPS   H8Y 8513   4.256   3.826   9.243 -0.6396  2.3777 -1.0610
   88SAPS   C39 8514   4.071   3.935   9.184  0.1072  0.0723 -0.0548
   88SAPS   H9X 8515   4.100   4.029   9.236  0.2067 -0.3470  0.6398
   88SAPS   H9Y 8516   3.962   3.929   9.206 -0.0750 -2.4702 -1.4917
   88SAPS  C310 8517   4.112   3.939   9.041  0.3408  0.0271 -0.6532
   88SAPS  H10X 8518   4.069   3.847   8.996 -0.1762  0.5024 -1.1440
   88SAPS  H10Y 8519   4.219   3.950   9.013  0.3401 -1.6218 -1.3532
   88SAPS  C311 8520   4.035   4.053   8.968 -0.4808  0.0191 -0.6430
   88SAPS  H11X 8521   4.059   4.143   9.029  0.3520 -0.0861 -0.8101
   88SAPS  H11Y 8522   3.925   4.059   8.981 -0.2699  2.3557  0.3413
   88SAPS  C312 8523   4.065   4.054   8.818  0.7812  0.5795  0.9366
   88SAPS  H12X 8524   4.041   3.950   8.789 -2.0682  2.0200 -2.3268
   88SAPS  H12Y 8525   4.167   4.086   8.788  1.1834 -1.5085 -0.0105
   88SAPS  C313 8526   3.964   4.153   8.751  0.2670 -0.6552 -0.1860
   88SAPS  H13X 8527   3.869   4.148   8.808  0.5843 -0.1815  0.3920
   88SAPS  H13Y 8528   3.928   4.128   8.649  0.5011  1.4615 -0.8093
   88SAPS  C314 8529   4.016   4.299   8.744  0.3679 -0.0955  0.6642
   88SAPS  H14X 8530   4.078   4.333   8.829 -0.5734  1.2132  0.8350
   88SAPS  H14Y 8531   3.928   4.361   8.770 -0.2355 -0.5243 -0.3071
   88SAPS  C315 8532   4.075   4.331   8.605  0.7634  0.5008 -0.5409
   88SAPS  H15X 8533   3.994   4.305   8.533 -0.9276  0.2251  1.4080
   88SAPS  H15Y 8534   4.165   4.266   8.603  0.2215 -0.3175  1.0464
   88SAPS  C316 8535   4.103   4.480   8.588  0.1277  0.0206 -0.2636
   88SAPS  H16X 8536   4.195   4.488   8.650 -1.2084 -0.6365  1.8485
   88SAPS  H16Y 8537   4.019   4.528   8.643  0.3249 -1.7520  1.6774
   88SAPS  C317 8538   4.111   4.530   8.443  0.4180  0.0347  0.2107
   88SAPS  H17X 8539   4.130   4.639   8.451 -1.5292  0.4316 -0.4365
   88SAPS  H17Y 8540   4.012   4.503   8.400  0.4835  1.0252 -0.5822
   88SAPS  C318 8541   4.222   4.479   8.353  0.3526  0.0324 -0.6021
   88SAPS  H18X 8542   4.323   4.487   8.399  0.2665 -0.5404 -0.3048
   88SAPS  H18Y 8543   4.214   4.520   8.249  0.6606  1.7873  0.0455
   88SAPS  H18Z 8544   4.208   4.370   8.336 -0.3658 -0.2445  1.7206
   89SAPS     N 8545   3.077   6.255  10.712 -0.2653 -0.1979  0.1433
   89SAPS   HN1 8546   3.162   6.315  10.710  1.0368 -2.0218 -2.7535
   89SAPS   HN2 8547   3.063   6.216  10.617 -1.9162 -0.8120  0.6173
   89SAPS   HN3 8548   2.990   6.310  10.726  0.6616  1.2666  0.2225
   89SAPS   C12 8549   3.096   6.162  10.827 -0.9742 -0.3162  0.2475
   89SAPS  H12A 8550   3.121   6.225  10.911 -1.7326 -0.2594  0.4387
   89SAPS   C13 8551   2.970   6.084  10.867  0.7115  0.3131 -0.1403
   89SAPS  O13A 8552   2.866   6.104  10.802  0.3398  0.1211  0.5140
   89SAPS  O13B 8553   2.975   5.999  10.960  0.5522  0.4168  0.0521
   89SAPS   C11 8554   3.228   6.080  10.793  0.8369  0.0447 -0.0658
   89SAPS  H11A 8555   3.214   6.007  10.710  0.2493  0.7851 -0.6260
   89SAPS  H11B 8556   3.246   6.024  10.887 -0.6107  0.9314  0.7551
   89SAPS     P 8557   3.482   6.111  10.724 -0.0183 -0.4911 -0.2273
   89SAPS   O13 8558   3.576   6.217  10.673  0.3477 -0.4490  0.7763
   89SAPS   O14 8559   3.542   6.029  10.832  0.2944 -0.1479  0.2276
   89SAPS   O12 8560   3.334   6.170  10.763  0.2283  0.0063 -0.5066
   89SAPS   O11 8561   3.450   6.011  10.603 -0.3234  0.4168  0.1708
   89SAPS    C1 8562   3.385   6.057  10.479  0.3889  0.2978 -0.5762
   89SAPS    HA 8563   3.294   5.998  10.456 -0.5154  2.6025 -3.0905
   89SAPS    HB 8564   3.368   6.166  10.486 -0.7941  0.0747  0.0282
   89SAPS    C2 8565   3.474   6.036  10.355  0.3461  0.2932  0.0514
   89SAPS    HS 8566   3.419   6.088  10.273  1.4782  0.5785 -0.5339
   89SAPS   O21 8567   3.490   5.897  10.323 -0.3741  0.0729 -0.0014
   89SAPS   C21 8568   3.397   5.847  10.240 -0.0613  0.4276 -0.2617
   89SAPS   O22 8569   3.294   5.893  10.207  0.1525  0.8401 -0.0635
   89SAPS   C22 8570   3.446   5.701  10.212  0.3584 -0.1337 -0.2648
   89SAPS   H2R 8571   3.554   5.715  10.190  0.0968  2.6084  0.0776
   89SAPS   H2S 8572   3.422   5.646  10.306 -0.5868  0.9590  0.1411
   89SAPS    C3 8573   3.619   6.097  10.363  0.3365 -0.4237 -0.4508
   89SAPS    HX 8574   3.682   6.028  10.422 -1.0572 -0.0072  1.5913
   89SAPS    HY 8575   3.615   6.199  10.407  0.9266 -1.5331  2.2962
   89SAPS   O31 8576   3.675   6.099  10.234  0.5331  0.8339 -0.2185
   89SAPS   C31 8577   3.746   6.202  10.198 -0.8040 -0.2189 -0.1208
   89SAPS   O32 8578   3.765   6.307  10.258 -0.2322  0.9362  1.1947
   89SAPS   C32 8579   3.799   6.175  10.054  0.3335  0.4221 -0.4229
   89SAPS   H2X 8580   3.722   6.118   9.998  1.7267 -0.2264 -1.7005
   89SAPS   H2Y 8581   3.893   6.116  10.056 -0.8685 -1.5371 -0.2586
   89SAPS   C23 8582   3.387   5.641  10.085  0.2839 -0.2176 -0.2571
   89SAPS   H3R 8583   3.405   5.717  10.006  1.7796 -0.6336 -0.3205
   89SAPS   H3S 8584   3.276   5.627  10.085  0.1970  0.2844  1.8433
   89SAPS   C24 8585   3.460   5.500  10.041 -0.2968 -0.1977  0.2168
   89SAPS   H4R 8586   3.559   5.535  10.004  0.0664 -1.6602 -0.2044
   89SAPS   H4S 8587   3.412   5.461   9.949  1.0887 -0.1125 -0.5546
   89SAPS   C25 8588   3.478   5.389  10.153  0.1948 -0.4979 -0.5417
   89SAPS   H5R 8589   3.486   5.432  10.255  0.8692 -2.5504  0.2854
   89SAPS   C26 8590   3.506   5.259  10.135  0.1582  0.4775  0.5018
   89SAPS   H6R 8591   3.497   5.183  10.214  2.9851  0.0864  0.5192
   89SAPS   C27 8592   3.518   5.205   9.994  0.1631  0.3195  0.1674
   89SAPS   H7R 8593   3.587   5.267   9.934  2.2651  0.0084  2.1696
   89SAPS   H7S 8594   3.424   5.219   9.938  0.5137  0.7489 -0.3206
   89SAPS   C28 8595   3.576   5.063  10.000  0.1390  0.2674 -0.3800
   89SAPS   H8R 8596   3.596   5.019  10.099  0.6152  1.1523 -0.0792
   89SAPS   C29 8597   3.586   4.975   9.895 -0.5383 -0.0419 -0.7133
   89SAPS   H9R 8598   3.627   4.875   9.910  0.5618  0.4104 -0.6612
   89SAPS  C210 8599   3.559   5.015   9.751 -0.6892  0.2311 -0.2865
   89SAPS  H10R 8600   3.659   5.041   9.711 -0.6120  1.4255  0.6615
   89SAPS  H10S 8601   3.504   5.111   9.742  0.3891  0.7660 -1.2264
   89SAPS  C211 8602   3.509   4.904   9.659 -0.6545  0.6233 -0.2215
   89SAPS  H11R 8603   3.440   4.828   9.699  0.4423  0.4629  1.4057
   89SAPS  C212 8604   3.528   4.907   9.525  0.2348 -0.4596 -0.3063
   89SAPS  H12R 8605   3.488   4.822   9.468  3.0902 -1.7148 -0.5098
   89SAPS  C213 8606   3.610   5.003   9.440  0.5311 -0.2217  0.5435
   89SAPS  H13R 8607   3.709   4.954   9.430  0.8360  0.4837  0.1330
   89SAPS  H13S 8608   3.619   5.108   9.476 -2.0444 -0.1006  0.9403
   89SAPS  C214 8609   3.540   5.008   9.307 -0.2912  0.7702 -0.4856
   89SAPS  H14R 8610   3.433   5.035   9.307 -0.2413  0.9836  0.4079
   89SAPS  C215 8611   3.606   4.992   9.188 -0.1693 -0.1875  1.2240
   89SAPS  H15R 8612   3.547   5.002   9.096 -1.4445 -0.0340  2.0305
   89SAPS  C216 8613   3.750   4.957   9.164 -0.5695 -0.3934 -0.0492
   89SAPS  H16R 8614   3.762   4.927   9.057 -1.6071  0.5693 -0.4390
   89SAPS  H16S 8615   3.765   4.865   9.226 -0.3118 -1.9608 -2.3685
   89SAPS  C217 8616   3.867   5.053   9.199  0.2232 -1.0966 -0.0275
   89SAPS  H17R 8617   3.964   5.004   9.175  1.0115  1.2664 -1.7982
   89SAPS  H17S 8618   3.862   5.065   9.309 -1.1556  2.3032 -0.4210
   89SAPS  C218 8619   3.870   5.196   9.137  0.1920  0.4979 -0.4154
   89SAPS  H18R 8620   3.949   5.259   9.183 -0.5296  0.1633  1.3409
   89SAPS  H18S 8621   3.774   5.245   9.163  0.2014  1.2668 -1.7873
   89SAPS  C219 8622   3.887   5.187   8.986  0.3187 -0.3517  0.3858
   89SAPS  H19R 8623   3.884   5.293   8.953  2.9267 -0.2879  0.2535
   89SAPS  H19S 8624   3.805   5.126   8.943  2.5157 -2.0751 -1.5247
   89SAPS  C220 8625   4.013   5.128   8.940  0.4663  0.3390 -0.2208
   89SAPS  H20R 8626   4.098   5.182   8.986 -0.2845  0.9529  0.4507
   89SAPS  H20S 8627   4.028   5.151   8.832  1.8734 -1.2577 -0.3844
   89SAPS  H20T 8628   4.025   5.022   8.971  0.4143  0.7043  1.0849
   89SAPS   C33 8629   3.810   6.311   9.975 -0.3689 -0.6653  0.0246
   89SAPS   H3X 8630   3.890   6.372  10.023 -0.1945  1.0650 -2.3831
   89SAPS   H3Y 8631   3.717   6.370   9.985  0.0823  0.2329 -0.9287
   89SAPS   C34 8632   3.842   6.295   9.828 -1.1812  0.7595  1.3771
   89SAPS   H4X 8633   3.828   6.381   9.759 -1.5573 -2.1488 -2.2707
   89SAPS   H4Y 8634   3.769   6.228   9.779 -0.0542  0.1507  0.4908
   89SAPS   C35 8635   3.977   6.230   9.793 -0.3156  0.2803  0.4475
   89SAPS   H5X 8636   3.976   6.127   9.834 -3.4546  0.2092  0.3299
   89SAPS   H5Y 8637   4.064   6.289   9.829  0.3646  0.0723 -0.8253
   89SAPS   C36 8638   3.982   6.215   9.637 -0.4045 -0.0961 -0.4537
   89SAPS   H6X 8639   3.894   6.157   9.602  0.8188 -1.1562 -1.8133
   89SAPS   H6Y 8640   4.074   6.155   9.621  0.3851  1.2326 -1.0010
   89SAPS   C37 8641   4.002   6.352   9.561  0.2780 -0.3451 -0.3830
   89SAPS   H7X 8642   4.103   6.389   9.590 -1.1537  0.7175  3.4763
   89SAPS   H7Y 8643   3.929   6.429   9.592  1.6597  1.5320 -1.6288
   89SAPS   C38 8644   4.002   6.336   9.410 -1.1575 -0.3011  0.9750
   89SAPS   H8X 8645   4.049   6.241   9.379  0.4852  1.6251 -2.8146
   89SAPS   H8Y 8646   4.047   6.424   9.358 -0.8409 -0.9300  0.1642
   89SAPS   C39 8647   3.854   6.334   9.364 -0.1218 -0.1725 -0.1771
   89SAPS   H9X 8648   3.805   6.427   9.399 -0.1646  0.1982 -1.2085
   89SAPS   H9Y 8649   3.798   6.259   9.424 -0.5534  0.9363  0.8384
   89SAPS  C310 8650   3.838   6.317   9.213 -1.1113 -0.2440  0.1481
   89SAPS  H10X 8651   3.741   6.291   9.167  1.3209 -0.8993 -4.9115
   89SAPS  H10Y 8652   3.907   6.241   9.170  0.1402  0.1401  1.4303
   89SAPS  C311 8653   3.884   6.441   9.135  0.5316 -0.8881  0.4981
   89SAPS  H11X 8654   3.976   6.493   9.171  0.2492 -1.0308  1.4307
   89SAPS  H11Y 8655   3.810   6.523   9.138  0.1897 -1.1733 -0.1840
   89SAPS  C312 8656   3.909   6.390   8.993 -0.4047 -0.4878  0.2590
   89SAPS  H12X 8657   3.814   6.351   8.949 -0.7562  1.5293 -0.8444
   89SAPS  H12Y 8658   3.988   6.312   9.001 -2.3179 -2.7463 -1.8170
   89SAPS  C313 8659   3.931   6.506   8.891  0.6269  0.2539 -0.0099
   89SAPS  H13X 8660   4.032   6.547   8.917  1.4809 -0.6636 -1.7902
   89SAPS  H13Y 8661   3.860   6.590   8.908  2.1271  1.4395  0.5431
   89SAPS  C314 8662   3.923   6.459   8.746 -0.2715  0.5259  0.0053
   89SAPS  H14X 8663   3.818   6.425   8.736 -0.2117  0.6498 -1.0979
   89SAPS  H14Y 8664   3.987   6.370   8.732  0.1684  0.6540  1.1277
   89SAPS  C315 8665   3.966   6.564   8.642 -0.3090  0.2725  0.3350
   89SAPS  H15X 8666   4.077   6.573   8.640 -0.1298 -1.9629 -1.9170
   89SAPS  H15Y 8667   3.934   6.663   8.679  0.2513  1.3939 -2.1183
   89SAPS  C316 8668   3.916   6.538   8.502  0.2872  0.3576 -0.0523
   89SAPS  H16X 8669   3.805   6.525   8.503  0.5991 -3.3466 -2.3328
   89SAPS  H16Y 8670   3.964   6.442   8.476 -3.4824 -1.7113  0.2476
   89SAPS  C317 8671   3.957   6.641   8.402  0.1263 -0.5184 -0.2215
   89SAPS  H17X 8672   3.927   6.599   8.304 -0.5876 -0.1338 -0.1737
   89SAPS  H17Y 8673   4.067   6.651   8.409 -0.0658  2.1520 -0.2793
   89SAPS  C318 8674   3.892   6.778   8.419  0.4886  0.8455 -0.0448
   89SAPS  H18X 8675   3.938   6.822   8.510 -0.2674 -1.1628  1.3175
   89SAPS  H18Y 8676   3.784   6.767   8.442  0.1593  2.8613 -0.4905
   89SAPS  H18Z 8677   3.903   6.836   8.325  2.1875 -1.0126 -1.0283
   90SAPS     N 8678   5.969   6.091  10.758  0.4254  0.6857  0.1556
   90SAPS   HN1 8679   5.865   6.092  10.756  0.4350  0.7490 -0.3200
   90SAPS   HN2 8680   6.003   6.189  10.761  1.4451  0.3158  0.7068
   90SAPS   HN3 8681   6.004   6.039  10.675  2.6245  1.5241  0.5194
   90SAPS   C12 8682   5.995   6.014  10.883 -0.1435  0.5783 -1.1796
   90SAPS  H12A 8683   6.101   6.020  10.901 -0.4652  0.7885  0.7128
   90SAPS   C13 8684   5.933   6.077  11.006  0.9578 -0.6704  0.5423
   90SAPS  O13A 8685   5.860   6.177  10.988 -0.2482 -0.5311  0.1731
   90SAPS  O13B 8686   5.942   6.013  11.116  0.2237 -0.3616 -0.2062
   90SAPS   C11 8687   5.959   5.867  10.862  0.2885  0.9244  0.2227
   90SAPS  H11A 8688   5.849   5.881  10.850  0.2239  0.9240  0.7869
   90SAPS  H11B 8689   5.970   5.810  10.957 -0.2055  3.6936  2.0003
   90SAPS     P 8690   5.962   5.670  10.696 -0.5243  0.4715 -0.1574
   90SAPS   O13 8691   6.072   5.573  10.716 -0.0127  0.1788  0.2789
   90SAPS   O14 8692   5.831   5.629  10.749 -0.1542 -0.2505  0.6104
   90SAPS   O12 8693   6.018   5.814  10.743  0.5111 -0.3120 -0.0996
   90SAPS   O11 8694   5.951   5.705  10.542  0.1956 -0.0797 -0.0573
   90SAPS    C1 8695   5.836   5.783  10.511 -0.8063  0.3647 -0.7226
   90SAPS    HA 8696   5.805   5.847  10.596  0.7000 -1.0091  0.9117
   90SAPS    HB 8697   5.871   5.862  10.440 -0.8857 -0.3547 -1.5728
   90SAPS    C2 8698   5.732   5.691  10.441 -0.2140 -0.6554 -0.1400
   90SAPS    HS 8699   5.706   5.623  10.525 -0.6589 -0.9121 -0.4883
   90SAPS   O21 8700   5.793   5.622  10.337 -0.5875  0.3259 -0.0238
   90SAPS   C21 8701   5.815   5.493  10.354 -0.3813 -0.6480  0.1122
   90SAPS   O22 8702   5.785   5.425  10.447  0.0600 -0.2577 -0.1762
   90SAPS   C22 8703   5.910   5.452  10.238 -0.4983 -0.3420  0.0806
   90SAPS   H2R 8704   5.875   5.512  10.151 -0.3795 -1.0497 -0.4602
   90SAPS   H2S 8705   6.011   5.484  10.271  0.5751 -3.1209 -0.3606
   90SAPS    C3 8706   5.608   5.770  10.397  0.7452  0.1285 -0.1098
   90SAPS    HX 8707   5.546   5.791  10.487  1.8549 -0.2760  0.7560
   90SAPS    HY 8708   5.557   5.701  10.326  0.2745 -0.4668  0.7935
   90SAPS   O31 8709   5.643   5.893  10.325 -0.0486 -0.0856  0.1086
   90SAPS   C31 8710   5.651   5.882  10.193  0.2259  0.4332  1.0892
   90SAPS   O32 8711   5.605   5.789  10.127 -0.4526 -0.4715 -0.1074
   90SAPS   C32 8712   5.732   6.003  10.128  0.2109 -0.0767  0.1416
   90SAPS   H2X 8713   5.832   5.997  10.176  0.4090 -1.4544 -0.4175
   90SAPS   H2Y 8714   5.669   6.093  10.145 -1.4750 -1.5300  1.7889
   90SAPS   C23 8715   5.917   5.303  10.200 -0.4932 -0.1939  0.0425
   90SAPS   H3R 8716   5.840   5.286  10.121  1.9636 -3.5034 -1.7589
   90SAPS   H3S 8717   5.892   5.238  10.286 -2.4828  1.1133  0.4807
   90SAPS   C24 8718   6.056   5.269  10.148  0.5358  0.0510 -0.3831
   90SAPS   H4R 8719   6.057   5.158  10.139 -0.3433 -0.1557  1.6492
   90SAPS   H4S 8720   6.133   5.302  10.221  0.3668 -1.4957  0.5216
   90SAPS   C25 8721   6.073   5.350  10.019 -1.4546 -0.2168  0.6734
   90SAPS   H5R 8722   6.114   5.451  10.036 -2.2944  0.3984 -0.8274
   90SAPS   C26 8723   6.057   5.309   9.897  0.0970  0.0826  0.1180
   90SAPS   H6R 8724   6.073   5.377   9.812 -0.4669  1.6085  1.2026
   90SAPS   C27 8725   6.012   5.173   9.845 -0.2660  0.5769 -0.3465
   90SAPS   H7R 8726   6.001   5.103   9.931 -2.3665 -0.0910 -1.1316
   90SAPS   H7S 8727   6.095   5.130   9.786 -0.4569  1.4471 -1.2508
   90SAPS   C28 8728   5.890   5.177   9.761  0.1637  0.6712 -0.1396
   90SAPS   H8R 8729   5.800   5.229   9.797 -0.3140  0.6918 -1.3332
   90SAPS   C29 8730   5.878   5.100   9.646  0.6809  0.0781 -0.5715
   90SAPS   H9R 8731   5.783   5.106   9.591  1.7950  1.1992 -2.4073
   90SAPS  C210 8732   5.978   4.999   9.578  0.5573  0.1652  0.2598
   90SAPS  H10R 8733   6.059   4.969   9.647  1.3483 -0.4734 -0.9153
   90SAPS  H10S 8734   6.034   5.048   9.495 -0.1494 -1.4636 -1.2175
   90SAPS  C211 8735   5.909   4.875   9.537  0.5852  0.3825  0.0751
   90SAPS  H11R 8736   5.878   4.816   9.625  0.7600  1.2669  0.7336
   90SAPS  C212 8737   5.907   4.815   9.410 -0.2967  0.3311  0.7834
   90SAPS  H12R 8738   5.852   4.721   9.399  1.8441 -0.8759  0.0101
   90SAPS  C213 8739   5.966   4.888   9.290 -0.4435  0.0694 -0.1119
   90SAPS  H13R 8740   5.976   4.807   9.215  1.5123  0.2395 -0.0636
   90SAPS  H13S 8741   6.070   4.916   9.318 -1.3600  0.5163  3.1668
   90SAPS  C214 8742   5.892   5.007   9.238 -0.2237  0.6204 -1.1287
   90SAPS  H14R 8743   5.830   5.055   9.316 -0.4872  0.5985 -1.3257
   90SAPS  C215 8744   5.882   5.059   9.119  1.5045  0.0418 -0.4978
   90SAPS  H15R 8745   5.834   5.157   9.106  0.4246 -0.3984  0.1061
   90SAPS  C216 8746   5.963   5.012   9.002 -0.1710 -0.0642 -0.6008
   90SAPS  H16R 8747   6.058   4.964   9.036  0.0258 -0.1673 -1.2861
   90SAPS  H16S 8748   5.986   5.102   8.941 -2.0002  0.8572  0.0402
   90SAPS  C217 8749   5.893   4.915   8.914  1.1088  0.7153 -0.5693
   90SAPS  H17R 8750   5.804   4.972   8.879  0.0506 -0.3678  0.3233
   90SAPS  H17S 8751   5.844   4.833   8.971  0.5614 -0.3864 -2.5615
   90SAPS  C218 8752   5.968   4.852   8.795 -0.6219  0.7995 -0.5504
   90SAPS  H18R 8753   6.004   4.936   8.731  1.7930  1.2134  1.3153
   90SAPS  H18S 8754   5.887   4.797   8.743  1.3747 -0.9791 -1.8760
   90SAPS  C219 8755   6.070   4.744   8.849 -0.5798 -0.1827  0.4217
   90SAPS  H19R 8756   6.032   4.665   8.917 -0.2318 -1.1918 -0.5398
   90SAPS  H19S 8757   6.128   4.806   8.920  0.4500  0.7841 -1.2326
   90SAPS  C220 8758   6.147   4.687   8.734 -0.0676 -0.7206 -0.1882
   90SAPS  H20R 8759   6.215   4.611   8.779 -0.2133  0.7136  2.5864
   90SAPS  H20S 8760   6.214   4.756   8.679 -1.4450 -1.1072 -2.4152
   90SAPS  H20T 8761   6.086   4.635   8.657 -0.3285  2.1124 -1.9867
   90SAPS   C33 8762   5.761   5.987   9.973 -0.2398  0.8081  0.1617
   90SAPS   H3X 8763   5.795   5.881   9.964 -1.3717  0.2344  2.4180
   90SAPS   H3Y 8764   5.829   6.067   9.936 -0.6367 -0.2008 -2.9563
   90SAPS   C34 8765   5.643   6.004   9.881  1.2975 -0.4343 -0.4956
   90SAPS   H4X 8766   5.623   6.113   9.872  1.3373 -0.3857 -0.0081
   90SAPS   H4Y 8767   5.549   5.959   9.918  1.2922  0.0272  0.0704
   90SAPS   C35 8768   5.671   5.939   9.735  0.9020  0.6093 -0.1047
   90SAPS   H5X 8769   5.674   5.828   9.737 -0.4285  0.5331 -1.3508
   90SAPS   H5Y 8770   5.772   5.962   9.694  0.2829 -1.3081 -2.8035
   90SAPS   C36 8771   5.576   5.981   9.622  0.0247  0.1104 -0.3421
   90SAPS   H6X 8772   5.574   6.092   9.631 -2.0282  0.2349 -1.9522
   90SAPS   H6Y 8773   5.474   5.949   9.653  1.0312 -1.8808  1.0292
   90SAPS   C37 8774   5.614   5.934   9.491 -0.4376 -0.1394  0.3099
   90SAPS   H7X 8775   5.614   5.825   9.468  0.1041  0.0295 -0.4886
   90SAPS   H7Y 8776   5.720   5.966   9.479 -0.2518 -0.2833  1.4917
   90SAPS   C38 8777   5.522   6.003   9.394  0.2670  0.0649  0.2264
   90SAPS   H8X 8778   5.533   6.113   9.385  1.1561 -0.1211 -1.1207
   90SAPS   H8Y 8779   5.415   5.990   9.420 -0.2781 -0.2206 -1.9927
   90SAPS   C39 8780   5.537   5.940   9.253 -0.3102  0.1281  0.1853
   90SAPS   H9X 8781   5.543   5.830   9.268 -0.3368  0.1955  0.7338
   90SAPS   H9Y 8782   5.634   5.970   9.210 -0.9492 -1.1167 -2.2091
   90SAPS  C310 8783   5.424   5.976   9.161  0.0999 -0.3983  0.0477
   90SAPS  H10X 8784   5.404   6.085   9.168 -1.4232 -0.7117  1.0168
   90SAPS  H10Y 8785   5.327   5.935   9.198 -0.9577 -0.4328 -2.6508
   90SAPS  C311 8786   5.461   5.955   9.014 -0.1151  0.8454 -0.0923
   90SAPS  H11X 8787   5.480   5.846   9.001  0.0642  0.9927 -1.1022
   90SAPS  H11Y 8788   5.557   6.007   8.991  0.3142  0.8645  1.7136
   90SAPS  C312 8789   5.345   6.010   8.923  0.0044  0.3476  0.4333
   90SAPS  H12X 8790   5.348   6.121   8.924 -3.4493  0.5691 -2.2259
   90SAPS  H12Y 8791   5.247   5.969   8.956 -0.4320 -2.4214 -3.8774
   90SAPS  C313 8792   5.375   5.969   8.776 -0.1683  0.0733  0.6632
   90SAPS  H13X 8793   5.481   5.989   8.750 -0.7544  0.0233 -1.9445
   90SAPS  H13Y 8794   5.324   6.033   8.701 -0.2766 -0.4461  0.2864
   90SAPS  C314 8795   5.349   5.818   8.745 -0.2574  0.1240  0.4956
   90SAPS  H14X 8796   5.263   5.785   8.807  0.5354 -0.2095  1.4412
   90SAPS  H14Y 8797   5.437   5.760   8.779 -1.1049 -0.5667  1.5472
   90SAPS  C315 8798   5.303   5.779   8.607 -0.4161  0.3172 -0.0386
   90SAPS  H15X 8799   5.332   5.675   8.584  1.2551  0.2282  2.3039
   90SAPS  H15Y 8800   5.355   5.850   8.539  0.4407  0.3255  0.6100
   90SAPS  C316 8801   5.147   5.789   8.581 -0.0970 -0.0790 -1.5529
   90SAPS  H16X 8802   5.115   5.894   8.602 -0.9633 -0.0933 -2.7496
   90SAPS  H16Y 8803   5.100   5.713   8.647  0.5847  1.2600  0.5253
   90SAPS  C317 8804   5.112   5.755   8.436 -0.4828 -0.3137 -0.0760
   90SAPS  H17X 8805   5.197   5.788   8.372  1.3186 -0.0879  2.3572
   90SAPS  H17Y 8806   5.023   5.812   8.402  0.4705  0.2231 -1.7343
   90SAPS  C318 8807   5.093   5.604   8.404  0.0239  0.9309  0.3512
   90SAPS  H18X 8808   5.193   5.558   8.421  0.4158  2.5193  2.5017
   90SAPS  H18Y 8809   5.060   5.606   8.298 -0.1775  0.4851  0.4041
   90SAPS  H18Z 8810   5.022   5.556   8.474 -0.5056 -2.4072 -2.3279
   91SAPS     N 8811   4.708   3.902   5.853  0.2410 -0.5339 -0.3117
   91SAPS   HN1 8812   4.758   3.949   5.930 -0.6305 -0.5259  0.2551
   91SAPS   HN2 8813   4.618   3.875   5.898 -0.9462  1.2467 -1.5597
   91SAPS   HN3 8814   4.749   3.813   5.819 -0.6405 -1.0275 -0.0954
   91SAPS   C12 8815   4.696   3.992   5.733  0.9166 -0.0521  0.0578
   91SAPS  H12A 8816   4.789   3.991   5.678  2.0846  2.1033  1.9477
   91SAPS   C13 8817   4.582   3.928   5.644 -0.3878 -0.4566 -0.3093
   91SAPS  O13A 8818   4.498   3.844   5.691  0.2560 -0.3601 -0.2911
   91SAPS  O13B 8819   4.585   3.958   5.522 -0.0112 -0.3513 -0.3767
   91SAPS   C11 8820   4.681   4.131   5.777 -0.1175  0.4633  0.2954
   91SAPS  H11A 8821   4.596   4.127   5.849 -1.1029 -0.9312 -0.9148
   91SAPS  H11B 8822   4.649   4.200   5.696  3.6599 -0.0361 -1.7043
   91SAPS     P 8823   4.809   4.202   5.992  0.3681  0.4153 -0.3264
   91SAPS   O13 8824   4.784   4.070   6.050  0.6311 -0.1954 -0.6099
   91SAPS   O14 8825   4.939   4.268   6.017  0.2854  0.7719  0.0876
   91SAPS   O12 8826   4.797   4.186   5.836  0.5333  0.1314 -0.4104
   91SAPS   O11 8827   4.695   4.306   6.005 -0.1742  0.0614 -0.4676
   91SAPS    C1 8828   4.575   4.280   6.086 -0.1377  0.3817  0.1092
   91SAPS    HA 8829   4.487   4.321   6.032 -0.6137 -1.2263 -0.3693
   91SAPS    HB 8830   4.566   4.174   6.117  1.2040 -0.2151 -1.5142
   91SAPS    C2 8831   4.594   4.367   6.216 -0.6148  0.4806 -0.3606
   91SAPS    HS 8832   4.606   4.466   6.168  1.6925  1.6030  2.3727
   91SAPS   O21 8833   4.715   4.325   6.293 -0.3734 -0.4435 -0.2813
   91SAPS   C21 8834   4.769   4.413   6.378 -0.1093 -0.2295 -0.2366
   91SAPS   O22 8835   4.743   4.534   6.369 -0.4153 -0.7063 -0.1819
   91SAPS   C22 8836   4.850   4.340   6.483 -0.1427 -0.0896 -0.5528
   91SAPS   H2R 8837   4.783   4.256   6.511  0.2797 -0.0923  0.4586
   91SAPS   H2S 8838   4.941   4.297   6.438 -0.8812 -0.0089 -2.1746
   91SAPS    C3 8839   4.473   4.356   6.315 -0.1752 -0.0182  0.1055
   91SAPS    HX 8840   4.487   4.259   6.368 -0.8120  0.1171  0.5275
   91SAPS    HY 8841   4.383   4.359   6.249  0.7742  1.4898 -1.1591
   91SAPS   O31 8842   4.462   4.464   6.411 -0.0942  0.0124  0.0019
   91SAPS   C31 8843   4.370   4.439   6.498 -0.1914 -0.3475 -0.5473
   91SAPS   O32 8844   4.295   4.339   6.498  0.0181  0.1177 -0.7933
   91SAPS   C32 8845   4.359   4.564   6.589  0.2955  0.1456 -0.6800
   91SAPS   H2X 8846   4.329   4.657   6.536  0.5932  1.5308  1.5086
   91SAPS   H2Y 8847   4.464   4.572   6.624 -0.3848  1.4387  1.1603
   91SAPS   C23 8848   4.878   4.425   6.608 -0.3404 -0.4103  0.2643
   91SAPS   H3R 8849   4.945   4.510   6.583 -0.7400  0.3304  1.6868
   91SAPS   H3S 8850   4.952   4.375   6.674  1.4696  1.7628 -0.0782
   91SAPS   C24 8851   4.749   4.469   6.688 -0.4119 -0.2303  0.3215
   91SAPS   H4R 8852   4.675   4.386   6.692  0.5016 -0.9530  3.8042
   91SAPS   H4S 8853   4.697   4.550   6.632  0.2402 -1.4951 -2.2100
   91SAPS   C25 8854   4.777   4.502   6.831 -0.0655 -0.1485 -0.1569
   91SAPS   H5R 8855   4.873   4.554   6.844 -0.6878  1.2322 -0.9716
   91SAPS   C26 8856   4.718   4.460   6.944  0.7658  0.2628 -0.2380
   91SAPS   H6R 8857   4.738   4.512   7.039 -1.2574  1.5021 -0.4539
   91SAPS   C27 8858   4.587   4.380   6.953 -0.1256 -0.4219 -0.3185
   91SAPS   H7R 8859   4.599   4.296   7.025  0.0307  0.4384  0.6640
   91SAPS   H7S 8860   4.558   4.346   6.851 -1.4818  1.0279 -0.4333
   91SAPS   C28 8861   4.471   4.462   6.997 -0.9293 -0.8144  0.1972
   91SAPS   H8R 8862   4.407   4.480   6.909 -0.7376  0.2371  0.2635
   91SAPS   C29 8863   4.431   4.500   7.123 -0.1222  0.7393 -0.4286
   91SAPS   H9R 8864   4.332   4.545   7.141 -0.1236  0.2830  0.7150
   91SAPS  C210 8865   4.502   4.466   7.249 -1.1045  0.3119 -0.0352
   91SAPS  H10R 8866   4.595   4.525   7.233 -1.3218 -0.0371 -2.9368
   91SAPS  H10S 8867   4.531   4.359   7.238 -0.6122  0.7600 -4.0145
   91SAPS  C211 8868   4.432   4.483   7.384  0.8012  0.3022  0.2445
   91SAPS  H11R 8869   4.325   4.509   7.384  0.6087 -0.3948  1.9304
   91SAPS  C212 8870   4.489   4.465   7.503  0.0211  0.1995 -0.8813
   91SAPS  H12R 8871   4.427   4.461   7.594  1.4522  0.7281  0.1377
   91SAPS  C213 8872   4.629   4.421   7.535 -0.2942  0.2074 -0.6761
   91SAPS  H13R 8873   4.672   4.363   7.451  1.6258 -0.7198  0.9054
   91SAPS  H13S 8874   4.627   4.347   7.618  2.2594  1.5670  0.6640
   91SAPS  C214 8875   4.727   4.536   7.561  0.5651 -0.0477  0.0581
   91SAPS  H14R 8876   4.758   4.595   7.473 -0.1592 -0.4935 -0.5104
   91SAPS  C215 8877   4.777   4.574   7.681  0.3102  0.6174  0.2976
   91SAPS  H15R 8878   4.846   4.657   7.661  1.6013 -0.8356 -1.4758
   91SAPS  C216 8879   4.754   4.505   7.814 -0.1111  0.1421 -0.3803
   91SAPS  H16R 8880   4.852   4.501   7.866 -0.3360  0.6236  0.0783
   91SAPS  H16S 8881   4.715   4.401   7.802 -1.3098  0.6667 -1.1234
   91SAPS  C217 8882   4.644   4.597   7.887 -0.3082  0.1685 -0.0449
   91SAPS  H17R 8883   4.548   4.593   7.832 -1.5410  2.1987  1.8606
   91SAPS  H17S 8884   4.672   4.704   7.881  0.7951 -0.1842 -1.2176
   91SAPS  C218 8885   4.617   4.553   8.038  0.1471  0.1356 -0.3457
   91SAPS  H18R 8886   4.710   4.554   8.097 -0.1002  0.1316  0.0471
   91SAPS  H18S 8887   4.576   4.451   8.018  0.7682 -0.2190  0.1881
   91SAPS  C219 8888   4.509   4.632   8.117  0.2040  0.1293 -0.1751
   91SAPS  H19R 8889   4.484   4.587   8.216 -0.7699  0.2296 -0.3618
   91SAPS  H19S 8890   4.421   4.624   8.049  0.1654 -3.5897  0.2514
   91SAPS  C220 8891   4.545   4.781   8.142  0.3311 -0.2593 -0.2323
   91SAPS  H20R 8892   4.566   4.840   8.050  2.7279 -1.8772 -0.7670
   91SAPS  H20S 8893   4.638   4.791   8.202 -0.4412  1.1392  0.7559
   91SAPS  H20T 8894   4.469   4.832   8.205  1.3186  0.5593  0.3127
   91SAPS   C33 8895   4.262   4.542   6.710 -0.0451  0.2830  0.0560
   91SAPS   H3X 8896   4.299   4.454   6.767  0.3741 -0.3518 -1.1943
   91SAPS   H3Y 8897   4.160   4.525   6.669 -0.5573  0.0930  1.3765
   91SAPS   C34 8898   4.256   4.670   6.796  0.5884 -0.7014 -0.0322
   91SAPS   H4X 8899   4.211   4.744   6.727 -0.0437 -0.3290  0.7771
   91SAPS   H4Y 8900   4.361   4.692   6.827 -0.5583  4.0780  0.7542
   91SAPS   C35 8901   4.158   4.665   6.907 -0.6651  0.0458  0.0036
   91SAPS   H5X 8902   4.191   4.575   6.963  1.7636  2.3208  2.3659
   91SAPS   H5Y 8903   4.051   4.657   6.879 -0.2945  1.0734 -1.8092
   91SAPS   C36 8904   4.162   4.776   7.007 -0.6792  0.9716 -0.2741
   91SAPS   H6X 8905   4.137   4.866   6.946 -0.5593  2.0479  1.2282
   91SAPS   H6Y 8906   4.260   4.806   7.051 -1.4537  0.5280  1.8054
   91SAPS   C37 8907   4.065   4.768   7.124 -0.1512 -0.6936  0.6478
   91SAPS   H7X 8908   4.067   4.668   7.174 -0.0352 -0.5856  0.8588
   91SAPS   H7Y 8909   3.961   4.781   7.087 -0.3516  0.5659  1.6362
   91SAPS   C38 8910   4.088   4.884   7.218  0.8716  0.5997 -0.1733
   91SAPS   H8X 8911   4.081   4.983   7.168  2.0781  1.4347  1.2329
   91SAPS   H8Y 8912   4.194   4.881   7.250  0.4320  0.0991  1.3069
   91SAPS   C39 8913   3.999   4.888   7.340  0.2052 -0.2574 -0.4160
   91SAPS   H9X 8914   4.020   4.976   7.404 -1.7829  0.6946 -1.0352
   91SAPS   H9Y 8915   4.016   4.797   7.401  0.2581  0.9321  1.3744
   91SAPS  C310 8916   3.851   4.886   7.309 -0.3950  0.9137 -0.7263
   91SAPS  H10X 8917   3.829   4.822   7.220 -1.2048  3.7243 -2.6281
   91SAPS  H10Y 8918   3.836   4.990   7.273 -0.4702  1.3659  0.5964
   91SAPS  C311 8919   3.753   4.863   7.426 -0.1922  0.5063 -0.2271
   91SAPS  H11X 8920   3.760   4.758   7.460 -0.7909  0.4540 -0.2585
   91SAPS  H11Y 8921   3.648   4.886   7.398  0.0208  0.1505 -1.3471
   91SAPS  C312 8922   3.791   4.942   7.561  0.7602 -0.3467 -0.1078
   91SAPS  H12X 8923   3.777   5.049   7.537 -1.8915 -0.1049  2.1451
   91SAPS  H12Y 8924   3.897   4.926   7.591  0.4787 -0.9183  0.5936
   91SAPS  C313 8925   3.696   4.895   7.668 -0.4781  0.6822 -0.3252
   91SAPS  H13X 8926   3.691   4.784   7.661 -1.7728  0.8353 -2.3572
   91SAPS  H13Y 8927   3.594   4.935   7.649 -0.2335  1.0206 -0.9507
   91SAPS  C314 8928   3.739   4.933   7.807 -0.0294  0.9428 -0.1214
   91SAPS  H14X 8929   3.787   5.033   7.808 -0.0676  0.9508  1.3383
   91SAPS  H14Y 8930   3.797   4.843   7.838 -1.6060 -1.4247 -3.6042
   91SAPS  C315 8931   3.615   4.960   7.906 -0.6447 -0.2730  0.7199
   91SAPS  H15X 8932   3.527   4.898   7.883 -1.0046  0.5009 -0.0355
   91SAPS  H15Y 8933   3.596   5.068   7.888  1.8737  0.2921  1.1209
   91SAPS  C316 8934   3.654   4.941   8.054  0.1788  0.0234  0.5826
   91SAPS  H16X 8935   3.692   5.039   8.091  2.3438  0.4235 -2.4933
   91SAPS  H16Y 8936   3.730   4.860   8.059 -0.1288 -0.3065 -0.0275
   91SAPS  C317 8937   3.532   4.890   8.137  0.3183  0.2951  0.0064
   91SAPS  H17X 8938   3.520   4.782   8.114  0.0884 -0.1061  1.9111
   91SAPS  H17Y 8939   3.446   4.952   8.104  1.0490  0.9538 -0.6697
   91SAPS  C318 8940   3.544   4.911   8.284 -0.0651  0.2000  0.0035
   91SAPS  H18X 8941   3.446   4.897   8.335  0.6700 -0.4006  1.2773
   91SAPS  H18Y 8942   3.585   5.011   8.307  2.6137 -1.2179  1.6819
   91SAPS  H18Z 8943   3.610   4.836   8.334 -0.6858 -0.8238 -0.6941
   92SAPS     N 8944   3.046   1.900   6.023  0.2269 -0.2891 -0.3174
   92SAPS   HN1 8945   2.971   1.833   6.049 -0.0114  0.2717  0.4582
   92SAPS   HN2 8946   3.077   1.954   6.106 -1.1292  1.7875 -1.1133
   92SAPS   HN3 8947   3.007   1.970   5.957 -0.8612  0.6025  1.2310
   92SAPS   C12 8948   3.155   1.813   5.980 -0.4926 -0.0782  0.1674
   92SAPS  H12A 8949   3.125   1.760   5.891  0.9287 -0.1370 -0.2840
   92SAPS   C13 8950   3.288   1.894   5.940  0.6479 -0.0370 -0.4580
   92SAPS  O13A 8951   3.297   2.017   5.967  0.3769 -0.1452  0.0204
   92SAPS  O13B 8952   3.375   1.841   5.872  0.0327  0.2552  0.9486
   92SAPS   C11 8953   3.194   1.714   6.089 -0.4626  0.5331 -1.0380
   92SAPS  H11A 8954   3.242   1.771   6.172 -4.1010  0.8356  0.9311
   92SAPS  H11B 8955   3.263   1.636   6.050 -0.0597  0.3968 -0.0774
   92SAPS     P 8956   3.089   1.585   6.289  0.3908  0.6279  0.1087
   92SAPS   O13 8957   2.981   1.478   6.313  0.3589 -0.4825 -0.2557
   92SAPS   O14 8958   3.224   1.533   6.313  0.4458 -0.0687  0.2714
   92SAPS   O12 8959   3.076   1.654   6.145  0.1265  0.0904  0.2417
   92SAPS   O11 8960   3.065   1.709   6.387  0.1273  0.3348 -0.1428
   92SAPS    C1 8961   3.024   1.682   6.520  0.5017 -0.5422 -0.2683
   92SAPS    HA 8962   2.920   1.718   6.534  0.5728 -1.4371  3.0934
   92SAPS    HB 8963   3.027   1.575   6.550  1.8734 -0.3195  0.4285
   92SAPS    C2 8964   3.123   1.749   6.627  0.1139  0.3483  0.4564
   92SAPS    HS 8965   3.117   1.698   6.726 -1.0827  1.3721  0.9264
   92SAPS   O21 8966   3.100   1.889   6.647  0.7551  0.6621 -0.4434
   92SAPS   C21 8967   2.980   1.913   6.708 -0.5087 -0.6095 -0.1382
   92SAPS   O22 8968   2.906   1.829   6.756 -0.5024 -0.1861 -0.2012
   92SAPS   C22 8969   2.958   2.064   6.716 -0.2294  0.4568 -0.4025
   92SAPS   H2R 8970   2.922   2.105   6.619 -3.2501  1.2518  0.9955
   92SAPS   H2S 8971   2.873   2.085   6.784 -1.3245 -0.4844 -1.4837
   92SAPS    C3 8972   3.270   1.728   6.584 -0.2819 -0.1034  0.2183
   92SAPS    HX 8973   3.295   1.769   6.483 -0.9414  1.3070  0.6076
   92SAPS    HY 8974   3.277   1.618   6.582  1.9250 -0.0002  1.1519
   92SAPS   O31 8975   3.359   1.782   6.683 -0.0902 -0.5947  0.0485
   92SAPS   C31 8976   3.469   1.707   6.697  0.1613  0.0141 -0.0576
   92SAPS   O32 8977   3.499   1.624   6.618 -0.3823  0.0412  0.0551
   92SAPS   C32 8978   3.542   1.755   6.818  0.1294  0.6220  0.4167
   92SAPS   H2X 8979   3.490   1.717   6.909  0.6297 -1.1915 -0.0425
   92SAPS   H2Y 8980   3.543   1.866   6.828  0.4559  0.6699 -0.1014
   92SAPS   C23 8981   3.079   2.143   6.758  0.1662  0.2696  0.1377
   92SAPS   H3R 8982   3.038   2.246   6.755 -1.6189 -0.3974  0.4865
   92SAPS   H3S 8983   3.175   2.136   6.703 -0.4125 -0.5954 -0.7678
   92SAPS   C24 8984   3.107   2.134   6.911  0.5292 -0.0001 -0.4176
   92SAPS   H4R 8985   3.009   2.130   6.963  0.0276 -2.4206 -1.4409
   92SAPS   H4S 8986   3.160   2.227   6.938  0.2493 -0.5371  2.0831
   92SAPS   C25 8987   3.204   2.027   6.952 -0.3087  0.2072  0.4884
   92SAPS   H5R 8988   3.306   2.040   6.911 -0.3398 -1.4028 -0.1182
   92SAPS   C26 8989   3.177   1.921   7.034 -0.0772 -0.1970  0.3347
   92SAPS   H6R 8990   3.256   1.846   7.053  1.1054  1.2991  1.4512
   92SAPS   C27 8991   3.040   1.878   7.085  0.0100  0.1185  0.1867
   92SAPS   H7R 8992   2.975   1.836   7.004  1.9095 -1.4090 -0.5806
   92SAPS   H7S 8993   2.985   1.960   7.135  0.4359  0.4768  0.0623
   92SAPS   C28 8994   3.070   1.770   7.184 -0.0323  0.1961 -0.1479
   92SAPS   H8R 8995   3.131   1.688   7.142  1.1878  1.5837 -1.1441
   92SAPS   C29 8996   3.042   1.772   7.317  0.1525  0.0340  0.2288
   92SAPS   H9R 8997   3.089   1.692   7.376  2.2535 -0.5088 -2.0655
   92SAPS  C210 8998   2.976   1.880   7.396  0.4071  0.0754  0.4153
   92SAPS  H10R 8999   2.924   1.945   7.323 -1.2799 -0.6232  0.9509
   92SAPS  H10S 9000   3.050   1.957   7.426 -1.5154  2.1001  0.0555
   92SAPS  C211 9001   2.883   1.839   7.503 -0.4208  0.7573 -0.3098
   92SAPS  H11R 9002   2.778   1.856   7.476 -0.7090  0.1442  0.4074
   92SAPS  C212 9003   2.910   1.810   7.631  0.1781  0.1625  0.3887
   92SAPS  H12R 9004   2.831   1.796   7.706  0.3343  0.2748  0.5748
   92SAPS  C213 9005   3.052   1.804   7.685  0.2339  0.9543 -0.1311
   92SAPS  H13R 9006   3.079   1.879   7.762 -0.7025  0.5483  0.5943
   92SAPS  H13S 9007   3.127   1.825   7.605 -0.1896 -0.7556 -1.0006
   92SAPS  C214 9008   3.074   1.668   7.752  0.1313 -0.2423  1.2903
   92SAPS  H14R 9009   3.065   1.579   7.688  0.0494  0.1633  0.7209
   92SAPS  C215 9010   3.104   1.652   7.885 -1.3140  0.5471  0.5380
   92SAPS  H15R 9011   3.121   1.552   7.926 -0.1934 -0.3208 -1.9787
   92SAPS  C216 9012   3.116   1.756   7.984 -0.0514 -0.1211  1.0397
   92SAPS  H16R 9013   3.034   1.831   7.989  0.6907  0.6910  1.2754
   92SAPS  H16S 9014   3.210   1.807   7.954 -0.7281  0.8069  0.4614
   92SAPS  C217 9015   3.120   1.716   8.131 -0.0543 -0.2936  0.3127
   92SAPS  H17R 9016   3.017   1.690   8.164  0.5206 -1.0443  1.5433
   92SAPS  H17S 9017   3.131   1.808   8.192  0.1174 -0.1386  0.0492
   92SAPS  C218 9018   3.213   1.602   8.163 -0.1812 -0.1416  0.0206
   92SAPS  H18R 9019   3.302   1.622   8.101 -0.7324  0.0262 -0.7205
   92SAPS  H18S 9020   3.179   1.502   8.128 -2.2755  0.1587  1.1328
   92SAPS  C219 9021   3.240   1.587   8.311  0.2100  0.3923  0.0101
   92SAPS  H19R 9022   3.137   1.585   8.353 -0.8611  1.1235 -2.4881
   92SAPS  H19S 9023   3.296   1.677   8.346  0.0522  1.8170 -3.1682
   92SAPS  C220 9024   3.320   1.464   8.359  0.6571 -0.2328 -0.1360
   92SAPS  H20R 9025   3.266   1.373   8.326 -2.7093  1.3498  0.7458
   92SAPS  H20S 9026   3.330   1.454   8.469  1.0943  1.8699  0.0551
   92SAPS  H20T 9027   3.423   1.452   8.319  0.8382  1.0835 -0.0870
   92SAPS   C33 9028   3.679   1.686   6.813  0.2569 -0.3456 -0.6643
   92SAPS   H3X 9029   3.730   1.697   6.715 -0.4568 -2.4383 -1.3061
   92SAPS   H3Y 9030   3.675   1.578   6.836 -2.5437 -0.2214 -0.3867
   92SAPS   C34 9031   3.773   1.764   6.908  0.5298 -0.3335 -0.4907
   92SAPS   H4X 9032   3.786   1.862   6.857 -1.2208  0.7873  1.1399
   92SAPS   H4Y 9033   3.875   1.720   6.908  0.6561 -0.0351  0.6516
   92SAPS   C35 9034   3.728   1.782   7.050  0.4560  0.2185 -0.2932
   92SAPS   H5X 9035   3.746   1.687   7.105 -1.4924  0.2322  0.4119
   92SAPS   H5Y 9036   3.622   1.813   7.065  0.5343  0.7272 -0.8121
   92SAPS   C36 9037   3.821   1.890   7.112  0.5034  0.7958  0.6806
   92SAPS   H6X 9038   3.808   1.988   7.061 -2.6760  0.3856  0.6135
   92SAPS   H6Y 9039   3.926   1.864   7.086  0.9392  2.4283  0.7816
   92SAPS   C37 9040   3.813   1.894   7.265  0.3333  0.6835 -0.3919
   92SAPS   H7X 9041   3.858   1.803   7.309 -2.0248 -0.4271 -0.2268
   92SAPS   H7Y 9042   3.709   1.883   7.303 -0.0978  0.9153 -1.4889
   92SAPS   C38 9043   3.883   2.018   7.334 -0.0875 -0.3580 -0.2343
   92SAPS   H8X 9044   3.832   2.106   7.289  0.5685 -0.4244 -1.1138
   92SAPS   H8Y 9045   3.989   2.026   7.302  0.2134 -0.2788  0.7565
   92SAPS   C39 9046   3.873   2.023   7.495 -0.0668  0.0296  0.1765
   92SAPS   H9X 9047   3.914   1.929   7.539 -0.8669  0.8193  2.7208
   92SAPS   H9Y 9048   3.766   2.024   7.527  0.2945 -1.4276  1.4821
   92SAPS  C310 9049   3.941   2.149   7.559 -0.2102 -0.1855  0.2046
   92SAPS  H10X 9050   3.881   2.233   7.517 -0.8115 -2.3415 -3.4512
   92SAPS  H10Y 9051   4.043   2.133   7.519 -0.7318 -1.7054 -0.5350
   92SAPS  C311 9052   3.945   2.145   7.710  0.1029 -0.3103  0.4478
   92SAPS  H11X 9053   4.013   2.073   7.761 -0.1663  0.2668  1.6540
   92SAPS  H11Y 9054   3.846   2.102   7.737 -0.6469  0.9348 -0.2857
   92SAPS  C312 9055   3.961   2.287   7.776  0.0987  0.3646  0.2411
   92SAPS  H12X 9056   3.870   2.343   7.747  1.1229  3.5386  2.9056
   92SAPS  H12Y 9057   4.057   2.331   7.742  0.1768  1.0439  1.3172
   92SAPS  C313 9058   3.983   2.285   7.929  0.8235 -0.4861  0.1481
   92SAPS  H13X 9059   4.020   2.383   7.965  0.4539 -0.7664  1.2964
   92SAPS  H13Y 9060   4.051   2.206   7.967 -1.0983 -3.2287 -1.9577
   92SAPS  C314 9061   3.852   2.254   8.003 -0.2026 -0.9164  0.0681
   92SAPS  H14X 9062   3.836   2.150   7.969 -1.9988 -0.0319 -1.9436
   92SAPS  H14Y 9063   3.770   2.317   7.962 -1.2454 -2.8845 -0.9515
   92SAPS  C315 9064   3.866   2.254   8.151 -0.1455  0.4721  0.0339
   92SAPS  H15X 9065   3.946   2.185   8.185 -1.9198 -0.8087  1.7617
   92SAPS  H15Y 9066   3.770   2.211   8.186  0.4151 -1.7137 -1.0605
   92SAPS  C316 9067   3.875   2.390   8.227  0.6498 -0.0723  0.0445
   92SAPS  H16X 9068   3.975   2.423   8.194  0.8560  0.4940  1.2087
   92SAPS  H16Y 9069   3.881   2.382   8.337  0.7661 -0.0878  0.0371
   92SAPS  C317 9070   3.757   2.477   8.178  0.5959 -0.2669  0.2640
   92SAPS  H17X 9071   3.666   2.414   8.187 -0.7097  1.8103  2.0940
   92SAPS  H17Y 9072   3.767   2.513   8.073  0.1701  1.9314  0.9410
   92SAPS  C318 9073   3.751   2.597   8.268 -0.2249  0.4034  0.0392
   92SAPS  H18X 9074   3.818   2.681   8.237 -1.3822  1.0714 -0.7057
   92SAPS  H18Y 9075   3.778   2.577   8.374  3.0511  2.4054 -0.3089
   92SAPS  H18Z 9076   3.648   2.638   8.264  0.3921  1.9565 -0.5911
   93SAPS     N 9077   4.569   2.653   6.412  0.5900 -0.8335  0.2985
   93SAPS   HN1 9078   4.560   2.751   6.445 -1.0558  0.1374 -2.8626
   93SAPS   HN2 9079   4.599   2.604   6.499  1.4893 -2.1599 -0.7431
   93SAPS   HN3 9080   4.638   2.651   6.335 -0.2998  0.3822 -0.5321
   93SAPS   C12 9081   4.435   2.613   6.364 -0.3173  0.3296 -0.1106
   93SAPS  H12A 9082   4.418   2.655   6.267  0.8397  0.0222 -0.4541
   93SAPS   C13 9083   4.424   2.463   6.327 -0.5338  0.0929  0.8340
   93SAPS  O13A 9084   4.532   2.404   6.295 -0.2500  0.0361 -0.6966
   93SAPS  O13B 9085   4.313   2.410   6.302  0.5119  0.2166 -0.4856
   93SAPS   C11 9086   4.326   2.639   6.472  0.4611  0.0175  0.2653
   93SAPS  H11A 9087   4.346   2.565   6.552  0.0138  0.7426  1.0490
   93SAPS  H11B 9088   4.221   2.630   6.437  0.6067  1.7129 -0.6319
   93SAPS     P 9089   4.255   2.815   6.665 -0.1744  0.1546  0.2624
   93SAPS   O13 9090   4.359   2.852   6.768 -0.1381  0.1439  0.3781
   93SAPS   O14 9091   4.159   2.918   6.634 -0.2480 -0.3803  0.4853
   93SAPS   O12 9092   4.331   2.768   6.534  0.2149  0.1423 -0.3745
   93SAPS   O11 9093   4.179   2.681   6.699 -0.4120 -0.0695  0.6125
   93SAPS    C1 9094   4.104   2.673   6.815  0.4731 -0.0526 -0.0827
   93SAPS    HA 9095   4.127   2.763   6.876  2.8899 -0.7685  0.1172
   93SAPS    HB 9096   3.994   2.667   6.798  0.5772 -2.5278  0.0403
   93SAPS    C2 9097   4.161   2.556   6.894  0.2626  0.2019 -0.1968
   93SAPS    HS 9098   4.087   2.524   6.970  1.5808 -1.9807  0.2328
   93SAPS   O21 9099   4.281   2.602   6.954  0.1223 -0.2594 -0.5270
   93SAPS   C21 9100   4.262   2.665   7.073 -0.6429 -0.5395  0.6114
   93SAPS   O22 9101   4.160   2.701   7.122  0.2769 -0.2685  0.5038
   93SAPS   C22 9102   4.396   2.703   7.129 -0.5068  0.3277  0.3433
   93SAPS   H2R 9103   4.458   2.745   7.047  2.4524 -1.6408  1.4959
   93SAPS   H2S 9104   4.378   2.786   7.200  0.4435  0.2806  0.6521
   93SAPS    C3 9105   4.193   2.433   6.803  0.1421 -0.5354 -0.7003
   93SAPS    HX 9106   4.260   2.464   6.720 -0.5876 -0.5889 -1.3182
   93SAPS    HY 9107   4.100   2.409   6.747 -1.2938  1.4923  0.7332
   93SAPS   O31 9108   4.221   2.319   6.884 -0.0131 -0.4917  0.9505
   93SAPS   C31 9109   4.343   2.269   6.871 -0.2478 -0.7526  0.2865
   93SAPS   O32 9110   4.426   2.296   6.787 -0.0039 -0.2699  1.1920
   93SAPS   C32 9111   4.367   2.159   6.978 -0.2609 -0.4502 -0.0412
   93SAPS   H2X 9112   4.440   2.087   6.936 -0.3198  0.6197 -2.0506
   93SAPS   H2Y 9113   4.270   2.113   7.003 -2.1815  1.9079 -2.8402
   93SAPS   C23 9114   4.483   2.582   7.190 -0.6076 -0.1101  0.1079
   93SAPS   H3R 9115   4.590   2.601   7.166  0.1381 -1.1770  2.4005
   93SAPS   H3S 9116   4.483   2.490   7.128  1.3222  0.7591 -1.2307
   93SAPS   C24 9117   4.462   2.530   7.335  0.4449  0.3128 -0.2684
   93SAPS   H4R 9118   4.532   2.445   7.351  3.0793  2.6815  1.3831
   93SAPS   H4S 9119   4.354   2.504   7.345  0.4479 -0.2943 -1.7509
   93SAPS   C25 9120   4.497   2.644   7.431  0.0953 -0.3989 -0.3696
   93SAPS   H5R 9121   4.606   2.656   7.439  0.2952 -1.4284 -1.4015
   93SAPS   C26 9122   4.413   2.705   7.516 -0.6988 -0.4017 -0.8374
   93SAPS   H6R 9123   4.472   2.771   7.581  3.7134 -2.9648 -2.0734
   93SAPS   C27 9124   4.267   2.686   7.534 -0.4402  0.6518 -0.0495
   93SAPS   H7R 9125   4.221   2.627   7.452 -1.6857  0.5534  0.7081
   93SAPS   H7S 9126   4.195   2.770   7.532 -1.7935 -0.4506  0.7984
   93SAPS   C28 9127   4.260   2.601   7.664  0.3696  0.4431  0.6176
   93SAPS   H8R 9128   4.316   2.507   7.656  0.7713  0.8056 -1.3149
   93SAPS   C29 9129   4.184   2.632   7.769  0.3294  0.0729  0.2698
   93SAPS   H9R 9130   4.187   2.563   7.855  0.3378 -0.0163  0.1991
   93SAPS  C210 9131   4.084   2.746   7.781  0.1613 -0.2347  0.2362
   93SAPS  H10R 9132   4.017   2.742   7.692  0.2206  1.9923  0.0545
   93SAPS  H10S 9133   4.134   2.844   7.762  2.9388 -1.9960 -1.8477
   93SAPS  C211 9134   4.002   2.731   7.906  0.4639 -0.8588  0.4131
   93SAPS  H11R 9135   3.963   2.636   7.943 -0.3350 -0.9470 -0.6259
   93SAPS  C212 9136   3.966   2.840   7.977 -0.8984 -0.3926  0.1286
   93SAPS  H12R 9137   3.902   2.819   8.064 -0.5544  1.3467  0.8291
   93SAPS  C213 9138   4.009   2.983   7.964 -0.3158 -0.3305  0.2210
   93SAPS  H13R 9139   3.981   3.004   7.858 -1.5055 -1.0104  0.3914
   93SAPS  H13S 9140   4.120   2.990   7.970 -0.5094  0.7362  2.9274
   93SAPS  C214 9141   3.940   3.072   8.058  0.7602 -0.1531  0.0589
   93SAPS  H14R 9142   3.832   3.088   8.043  0.9306  0.8853 -0.0490
   93SAPS  C215 9143   3.983   3.124   8.181 -0.0060  0.3334  0.9221
   93SAPS  H15R 9144   3.914   3.183   8.242 -0.7382 -1.2086  1.6055
   93SAPS  C216 9145   4.118   3.082   8.233 -0.6315  0.1565 -0.7491
   93SAPS  H16R 9146   4.188   3.167   8.221 -0.2373 -0.1440 -0.5866
   93SAPS  H16S 9147   4.153   2.994   8.174  1.2268  0.7930 -0.6318
   93SAPS  C217 9148   4.112   3.044   8.382 -0.0068 -0.0121  0.4525
   93SAPS  H17R 9149   4.069   3.129   8.438 -1.7199  0.0841 -0.9674
   93SAPS  H17S 9150   4.223   3.037   8.386  0.0116 -1.3294 -1.5171
   93SAPS  C218 9151   4.056   2.903   8.411 -0.0018  0.7969 -0.1721
   93SAPS  H18R 9152   4.100   2.830   8.339 -1.7465  1.0249 -1.4759
   93SAPS  H18S 9153   3.948   2.898   8.388  0.4666 -1.0489 -2.0875
   93SAPS  C219 9154   4.081   2.864   8.559 -0.5759 -0.0118  0.0776
   93SAPS  H19R 9155   4.009   2.916   8.627 -1.0549 -1.8598  1.0115
   93SAPS  H19S 9156   4.187   2.891   8.580 -0.3728 -0.2687 -0.6248
   93SAPS  C220 9157   4.065   2.713   8.574  0.1397  0.4319 -0.1905
   93SAPS  H20R 9158   4.080   2.667   8.674  2.3876  2.3720  0.4098
   93SAPS  H20S 9159   4.127   2.659   8.499 -1.7626  0.6970 -1.9862
   93SAPS  H20T 9160   3.964   2.686   8.536  0.5925 -0.9498 -0.4414
   93SAPS   C33 9161   4.420   2.221   7.107 -0.4368  0.5616 -0.7383
   93SAPS   H3X 9162   4.355   2.300   7.149 -0.3352  1.3927 -2.1136
   93SAPS   H3Y 9163   4.519   2.267   7.085  0.4578 -0.4195  1.0744
   93SAPS   C34 9164   4.439   2.126   7.226  0.2011  0.5347  0.1654
   93SAPS   H4X 9165   4.446   2.193   7.313  3.9819  1.6750 -0.9337
   93SAPS   H4Y 9166   4.534   2.071   7.211 -0.4029 -1.0580  1.8906
   93SAPS   C35 9167   4.326   2.021   7.256 -0.8088 -0.5296 -0.6440
   93SAPS   H5X 9168   4.319   1.954   7.167 -2.1355  0.4239 -1.2735
   93SAPS   H5Y 9169   4.231   2.079   7.255 -0.2643  0.3756 -0.3366
   93SAPS   C36 9170   4.343   1.945   7.386 -0.0081  0.0883 -0.3918
   93SAPS   H6X 9171   4.348   2.023   7.465  0.8546 -1.2307  0.8853
   93SAPS   H6Y 9172   4.439   1.890   7.380 -0.3472 -0.7311  1.4178
   93SAPS   C37 9173   4.231   1.843   7.406  0.6532 -0.0232 -0.6787
   93SAPS   H7X 9174   4.243   1.768   7.324 -4.3050 -2.3553  0.5258
   93SAPS   H7Y 9175   4.130   1.884   7.383  0.2509 -0.7188 -0.1776
   93SAPS   C38 9176   4.225   1.779   7.546  0.6920  0.2619  0.5674
   93SAPS   H8X 9177   4.318   1.723   7.571 -0.0240 -0.4948  1.5971
   93SAPS   H8Y 9178   4.137   1.710   7.540 -0.9235  2.4076 -1.3732
   93SAPS   C39 9179   4.203   1.881   7.667 -0.0092 -0.4560 -0.7218
   93SAPS   H9X 9180   4.098   1.917   7.669  0.6108  1.2912  1.7962
   93SAPS   H9Y 9181   4.255   1.977   7.648 -2.6624  1.0743 -0.6262
   93SAPS  C310 9182   4.235   1.829   7.808 -0.4198  0.4434  0.3012
   93SAPS  H10X 9183   4.346   1.827   7.809 -0.4334 -2.5611  2.6226
   93SAPS  H10Y 9184   4.198   1.727   7.831 -1.0128  0.5071 -0.3348
   93SAPS  C311 9185   4.180   1.916   7.917  0.8201 -0.3053 -0.3412
   93SAPS  H11X 9186   4.070   1.898   7.923  0.7089  0.3311 -0.3770
   93SAPS  H11Y 9187   4.181   2.025   7.894 -0.9790 -0.3898 -0.9587
   93SAPS  C312 9188   4.230   1.876   8.057 -0.4794 -0.3588  0.5658
   93SAPS  H12X 9189   4.341   1.886   8.050 -0.6392  0.3803 -1.1395
   93SAPS  H12Y 9190   4.196   1.774   8.083 -0.4438 -0.5041  0.0293
   93SAPS  C313 9191   4.171   1.982   8.161 -0.0703 -0.3355  0.0514
   93SAPS  H13X 9192   4.060   1.979   8.153  0.0099  0.2036 -1.2944
   93SAPS  H13Y 9193   4.207   2.084   8.137  1.3065 -1.0870 -1.1822
   93SAPS  C314 9194   4.220   1.933   8.305  0.5819  0.0414 -0.2097
   93SAPS  H14X 9195   4.330   1.944   8.308  0.5868 -0.2069  0.4741
   93SAPS  H14Y 9196   4.200   1.826   8.327  0.5326 -0.3325 -1.9699
   93SAPS  C315 9197   4.159   2.014   8.418 -0.1753  0.2962 -0.4643
   93SAPS  H15X 9198   4.048   2.008   8.411 -0.1904  0.5043 -0.4146
   93SAPS  H15Y 9199   4.198   2.118   8.407  2.0702 -0.1734  2.3939
   93SAPS  C316 9200   4.197   1.967   8.559  0.0179 -0.0128  0.3781
   93SAPS  H16X 9201   4.306   1.974   8.578  0.1745  1.7155 -1.0551
   93SAPS  H16Y 9202   4.166   1.863   8.584 -0.1129  0.2503  1.3218
   93SAPS  C317 9203   4.122   2.051   8.668 -0.5239  0.0656 -0.4011
   93SAPS  H17X 9204   4.016   2.023   8.653  0.7530 -4.5625 -1.5457
   93SAPS  H17Y 9205   4.131   2.160   8.650  1.2591  0.2903  1.6882
   93SAPS  C318 9206   4.163   2.013   8.813 -0.6011 -0.5497  0.3878
   93SAPS  H18X 9207   4.274   2.010   8.814 -0.6037 -0.4131  2.1293
   93SAPS  H18Y 9208   4.121   1.911   8.821  1.9321 -1.6281  0.6279
   93SAPS  H18Z 9209   4.122   2.075   8.896  2.3708 -0.3055  1.7515
   94SAPS     N 9210   4.139   4.837   5.727 -0.1463  0.5033  0.3570
   94SAPS   HN1 9211   4.110   4.832   5.627  0.3184  2.1009  0.1331
   94SAPS   HN2 9212   4.242   4.835   5.739  0.0983  1.0658 -1.5508
   94SAPS   HN3 9213   4.100   4.761   5.787  3.0048 -2.0648 -0.6782
   94SAPS   C12 9214   4.098   4.975   5.786  0.7666 -0.2946  0.8004
   94SAPS  H12A 9215   4.135   5.049   5.716  0.3378  1.6787  2.5924
   94SAPS   C13 9216   3.955   5.005   5.808 -0.2116  0.4585  0.1462
   94SAPS  O13A 9217   3.870   4.916   5.781  0.3364  0.5916 -0.0028
   94SAPS  O13B 9218   3.921   5.113   5.866 -0.8065  0.0598  0.3820
   94SAPS   C11 9219   4.186   5.006   5.910 -0.3717  0.2397 -0.4973
   94SAPS  H11A 9220   4.170   4.923   5.983 -1.8126  0.1738 -0.8631
   94SAPS  H11B 9221   4.154   5.097   5.966  2.8826  1.5242 -0.6758
   94SAPS     P 9222   4.401   5.151   5.848  0.1567 -0.2834 -0.0428
   94SAPS   O13 9223   4.427   5.165   5.703  0.1385 -0.0424 -0.2593
   94SAPS   O14 9224   4.328   5.264   5.912 -0.2856  0.2692  0.0504
   94SAPS   O12 9225   4.324   5.018   5.884  0.4378  0.4912  0.3772
   94SAPS   O11 9226   4.535   5.139   5.924 -0.2677 -0.1553 -0.3252
   94SAPS    C1 9227   4.567   5.035   6.019  0.5406 -0.3477  0.5444
   94SAPS    HA 9228   4.495   4.950   6.017 -1.4627  1.3621 -2.0162
   94SAPS    HB 9229   4.661   4.980   5.996  0.6644  0.2756 -0.4558
   94SAPS    C2 9230   4.579   5.087   6.170  0.0301  0.7258  0.7505
   94SAPS    HS 9231   4.689   5.097   6.186  0.2543  0.0124 -0.2473
   94SAPS   O21 9232   4.516   5.000   6.264 -1.0361  0.4112  0.0714
   94SAPS   C21 9233   4.570   4.883   6.269 -1.0092  0.3047  0.1746
   94SAPS   O22 9234   4.651   4.833   6.196  0.3799  0.3935  0.6056
   94SAPS   C22 9235   4.522   4.814   6.402 -0.0358 -0.1533 -0.0251
   94SAPS   H2R 9236   4.412   4.809   6.383  0.0434  0.1033 -0.5420
   94SAPS   H2S 9237   4.564   4.714   6.423 -0.2330  0.0118  1.2058
   94SAPS    C3 9238   4.502   5.223   6.186  0.1683 -0.9381 -0.0739
   94SAPS    HX 9239   4.394   5.214   6.159 -0.3418  3.2049  0.2385
   94SAPS    HY 9240   4.558   5.292   6.119  0.2918 -1.0695 -0.1088
   94SAPS   O31 9241   4.521   5.268   6.323 -0.2271 -0.1349 -0.5412
   94SAPS   C31 9242   4.411   5.254   6.396 -0.1803 -0.0601  0.3188
   94SAPS   O32 9243   4.292   5.242   6.360 -1.0460  0.8239 -0.7227
   94SAPS   C32 9244   4.445   5.284   6.541 -0.4600 -0.7103  0.2820
   94SAPS   H2X 9245   4.459   5.394   6.549 -0.4803 -0.6691 -0.2148
   94SAPS   H2Y 9246   4.547   5.246   6.560  0.8481  1.8856 -1.2509
   94SAPS   C23 9247   4.540   4.908   6.523  0.6318  0.6036  0.3126
   94SAPS   H3R 9248   4.466   4.880   6.601 -0.5677 -0.6577 -1.2404
   94SAPS   H3S 9249   4.519   5.016   6.508 -0.2842  0.1109 -2.1242
   94SAPS   C24 9250   4.682   4.893   6.577 -1.1461  0.7240  0.5892
   94SAPS   H4R 9251   4.763   4.904   6.502  0.0990 -0.3967  1.7547
   94SAPS   H4S 9252   4.673   4.794   6.626  1.2311  1.0410  1.7438
   94SAPS   C25 9253   4.709   4.995   6.692 -0.0113 -0.3309  0.2234
   94SAPS   H5R 9254   4.754   5.090   6.659 -0.6201 -0.3177 -0.5681
   94SAPS   C26 9255   4.700   4.985   6.826 -0.4996  0.1592  0.3021
   94SAPS   H6R 9256   4.726   5.075   6.883 -0.4203 -0.8167  1.8240
   94SAPS   C27 9257   4.650   4.868   6.907 -0.6414 -0.4666  0.8736
   94SAPS   H7R 9258   4.734   4.810   6.952 -0.3898 -1.8898 -1.3261
   94SAPS   H7S 9259   4.601   4.804   6.830 -0.4646  2.5906 -1.8647
   94SAPS   C28 9260   4.546   4.921   7.004 -0.4084 -0.1445  0.2433
   94SAPS   H8R 9261   4.465   4.974   6.952 -0.4244 -1.9859 -1.6860
   94SAPS   C29 9262   4.533   4.895   7.134 -0.2144 -0.0481 -0.6149
   94SAPS   H9R 9263   4.452   4.939   7.194 -2.2976 -2.1700 -1.7837
   94SAPS  C210 9264   4.611   4.807   7.215  0.2919 -0.1662 -0.2393
   94SAPS  H10R 9265   4.677   4.741   7.154 -1.4034 -2.0198 -0.1382
   94SAPS  H10S 9266   4.544   4.749   7.282  1.6748 -0.4031  0.9767
   94SAPS  C211 9267   4.714   4.869   7.309  0.0713  0.0569 -0.2561
   94SAPS  H11R 9268   4.806   4.902   7.257  0.4935 -1.6028 -0.5855
   94SAPS  C212 9269   4.715   4.889   7.442  1.3711 -0.3345  0.0634
   94SAPS  H12R 9270   4.808   4.938   7.475 -1.1040  3.5183  1.6441
   94SAPS  C213 9271   4.614   4.857   7.550 -0.0750 -0.5231 -0.4210
   94SAPS  H13R 9272   4.658   4.793   7.630 -2.6331 -2.6113 -0.6665
   94SAPS  H13S 9273   4.539   4.795   7.497  1.2223 -1.0426 -1.6849
   94SAPS  C214 9274   4.552   4.981   7.597  0.2547  0.0589 -0.3607
   94SAPS  H14R 9275   4.618   5.070   7.598  0.3224  0.0538  3.2891
   94SAPS  C215 9276   4.427   5.001   7.635 -0.3205 -0.6552 -0.2462
   94SAPS  H15R 9277   4.398   5.100   7.671  0.9653 -0.8041  1.2590
   94SAPS  C216 9278   4.318   4.882   7.646  0.8362 -0.1918 -0.3397
   94SAPS  H16R 9279   4.359   4.779   7.652 -0.7656 -0.9516 -2.1928
   94SAPS  H16S 9280   4.248   4.868   7.561 -2.1264  1.8070  1.6702
   94SAPS  C217 9281   4.227   4.885   7.771  0.2453  0.9945  0.1678
   94SAPS  H17R 9282   4.186   4.988   7.766  1.2506  1.3409 -1.3735
   94SAPS  H17S 9283   4.289   4.873   7.862  0.7311  0.5882 -0.2106
   94SAPS  C218 9284   4.102   4.782   7.765  0.4970 -0.0993 -0.3482
   94SAPS  H18R 9285   4.075   4.747   7.663 -1.7309 -1.6835  0.7407
   94SAPS  H18S 9286   4.017   4.840   7.807  0.9259  0.3913 -0.1463
   94SAPS  C219 9287   4.121   4.669   7.866  0.0523  0.4809  0.5678
   94SAPS  H19R 9288   4.017   4.636   7.888  0.3422  0.1681  1.4641
   94SAPS  H19S 9289   4.168   4.711   7.957 -0.8142 -1.1163  1.7559
   94SAPS  C220 9290   4.198   4.544   7.820 -0.6904  0.1762 -0.5045
   94SAPS  H20R 9291   4.178   4.516   7.715  1.1356 -1.5365 -0.4072
   94SAPS  H20S 9292   4.171   4.457   7.884  1.8485 -0.6092 -0.4558
   94SAPS  H20T 9293   4.307   4.562   7.827 -0.7706  0.5769 -0.2207
   94SAPS   C33 9294   4.349   5.236   6.651  0.1520 -1.1185 -0.1322
   94SAPS   H3X 9295   4.304   5.135   6.649 -0.6933 -0.8023  1.6086
   94SAPS   H3Y 9296   4.257   5.298   6.635  1.3327  0.5957 -0.4232
   94SAPS   C34 9297   4.399   5.259   6.795 -0.5554 -0.0716  0.1725
   94SAPS   H4X 9298   4.422   5.366   6.813  0.1609 -0.1520 -0.2580
   94SAPS   H4Y 9299   4.488   5.195   6.812  1.4750  2.5579 -0.1649
   94SAPS   C35 9300   4.296   5.217   6.895 -0.0953 -0.2883  0.2786
   94SAPS   H5X 9301   4.292   5.110   6.923 -3.2784 -1.5878 -4.6780
   94SAPS   H5Y 9302   4.198   5.256   6.862 -0.2123  0.2313  1.2277
   94SAPS   C36 9303   4.327   5.291   7.033 -0.0224  0.4696 -0.5122
   94SAPS   H6X 9304   4.313   5.400   7.015  0.2286  0.5665 -0.1371
   94SAPS   H6Y 9305   4.431   5.261   7.060 -0.8089 -1.3587  0.5402
   94SAPS   C37 9306   4.224   5.248   7.135  0.3005  0.6838  0.0086
   94SAPS   H7X 9307   4.221   5.137   7.135 -1.0711  0.7029 -1.6375
   94SAPS   H7Y 9308   4.122   5.284   7.108  0.5983  0.5774 -1.2602
   94SAPS   C38 9309   4.258   5.293   7.275  0.1362 -0.5982  0.0105
   94SAPS   H8X 9310   4.259   5.403   7.289  1.3779 -0.5527 -0.3465
   94SAPS   H8Y 9311   4.357   5.250   7.302 -0.5765 -0.9563  2.1286
   94SAPS   C39 9312   4.157   5.238   7.384 -0.6736  0.0741 -0.2539
   94SAPS   H9X 9313   4.160   5.128   7.392  0.6522 -0.0176 -1.8020
   94SAPS   H9Y 9314   4.054   5.266   7.354  0.0992  2.9858 -0.3838
   94SAPS  C310 9315   4.176   5.303   7.521 -0.0409 -0.1818  0.1324
   94SAPS  H10X 9316   4.184   5.414   7.511  1.0946 -0.3317 -0.6413
   94SAPS  H10Y 9317   4.277   5.273   7.557  0.8780  3.1860  0.5298
   94SAPS  C311 9318   4.074   5.277   7.627  0.1993 -0.6050 -0.0009
   94SAPS  H11X 9319   4.059   5.167   7.630 -0.2387 -0.5395  0.2628
   94SAPS  H11Y 9320   3.976   5.320   7.598  1.3773  0.0164 -3.2760
   94SAPS  C312 9321   4.112   5.330   7.771  0.6137 -0.2062  1.0576
   94SAPS  H12X 9322   4.157   5.430   7.756  1.8633 -0.8601  0.4215
   94SAPS  H12Y 9323   4.198   5.265   7.798  0.8787 -0.3588 -0.1266
   94SAPS  C313 9324   3.988   5.329   7.862  0.5507  0.2816 -0.1378
   94SAPS  H13X 9325   3.960   5.221   7.867  0.5286  0.2692 -0.4903
   94SAPS  H13Y 9326   3.915   5.399   7.816  1.1194  1.4452  0.6960
   94SAPS  C314 9327   4.013   5.380   8.007  0.9257  0.6578 -0.2806
   94SAPS  H14X 9328   3.994   5.490   8.008  1.2978  0.7151  1.2890
   94SAPS  H14Y 9329   4.123   5.368   8.017  0.6316 -3.2329 -0.9633
   94SAPS  C315 9330   3.924   5.315   8.120 -0.0793  0.1356  0.7339
   94SAPS  H15X 9331   3.922   5.205   8.106 -0.4005  0.0148  1.6889
   94SAPS  H15Y 9332   3.822   5.352   8.095  0.1899 -0.5324 -1.4770
   94SAPS  C316 9333   3.952   5.358   8.259  0.3794 -0.1496  0.7567
   94SAPS  H16X 9334   3.931   5.467   8.269  1.4532  0.2508 -1.2007
   94SAPS  H16Y 9335   4.058   5.339   8.284  1.4934  1.6223 -2.3775
   94SAPS  C317 9336   3.867   5.287   8.367  0.4972 -0.3184  0.1484
   94SAPS  H17X 9337   3.898   5.180   8.366  0.1297 -0.4225 -0.9950
   94SAPS  H17Y 9338   3.759   5.302   8.342  0.5583  0.7070  0.4906
   94SAPS  C318 9339   3.893   5.331   8.509 -0.0155  0.4880  0.0870
   94SAPS  H18X 9340   3.824   5.292   8.586 -0.7382  0.0772 -0.7550
   94SAPS  H18Y 9341   3.877   5.440   8.520 -1.8679  0.0463  1.9726
   94SAPS  H18Z 9342   3.996   5.296   8.536  0.6323  1.1648 -1.4491
   95SAPS     N 9343   6.616   1.841   6.178 -0.2941 -0.0238  0.0611
   95SAPS   HN1 9344   6.695   1.782   6.212  0.4951  0.7592 -0.3871
   95SAPS   HN2 9345   6.589   1.913   6.248  1.0380  0.2618  0.3095
   95SAPS   HN3 9346   6.534   1.782   6.156 -0.0377 -0.8598  1.3215
   95SAPS   C12 9347   6.682   1.914   6.062 -0.4680  0.1568 -0.1394
   95SAPS  H12A 9348   6.688   1.854   5.972  1.9646 -1.2996  0.9518
   95SAPS   C13 9349   6.583   2.024   6.013  0.2671 -0.0249  0.1826
   95SAPS  O13A 9350   6.470   2.035   6.061 -0.1924  0.0376 -0.0930
   95SAPS  O13B 9351   6.624   2.105   5.931  0.2041 -0.1794 -0.9998
   95SAPS   C11 9352   6.809   1.979   6.107 -0.2488  0.4414 -0.2911
   95SAPS  H11A 9353   6.857   2.041   6.029 -0.3622  1.5129  0.4841
   95SAPS  H11B 9354   6.886   1.901   6.126 -0.3777  0.4347  0.2066
   95SAPS     P 9355   6.892   2.142   6.294 -0.5154  0.0246 -0.4140
   95SAPS   O13 9356   6.950   2.251   6.206  0.0548 -0.3445 -0.3187
   95SAPS   O14 9357   6.839   2.192   6.420  0.1342  0.2677  1.1990
   95SAPS   O12 9358   6.779   2.057   6.224 -0.2250 -0.8707  0.1863
   95SAPS   O11 9359   7.005   2.031   6.317  0.0289 -0.2655 -0.0046
   95SAPS    C1 9360   6.972   1.913   6.390  0.2514  0.0241  0.2359
   95SAPS    HA 9361   6.864   1.910   6.418 -0.1004 -2.3777 -1.2106
   95SAPS    HB 9362   6.998   1.819   6.338  3.1840 -0.4401  2.4037
   95SAPS    C2 9363   7.035   1.907   6.538  0.2640 -0.2569 -1.1519
   95SAPS    HS 9364   6.971   1.972   6.600  1.4177  0.1979 -0.4191
   95SAPS   O21 9365   7.173   1.936   6.541  0.2775  0.0073 -0.4290
   95SAPS   C21 9366   7.222   1.982   6.660  0.8282  0.1140  0.8854
   95SAPS   O22 9367   7.152   2.021   6.749 -0.1632 -0.1514 -0.1744
   95SAPS   C22 9368   7.374   1.986   6.668  0.3556  0.1084 -0.3548
   95SAPS   H2R 9369   7.391   1.995   6.777  0.4518  3.3769 -0.5976
   95SAPS   H2S 9370   7.416   1.888   6.637  2.6709  0.5003  1.4587
   95SAPS    C3 9371   7.013   1.756   6.596 -0.5219  0.5014  0.2096
   95SAPS    HX 9372   7.081   1.691   6.537 -1.9499 -0.8665  0.0203
   95SAPS    HY 9373   6.906   1.729   6.581 -1.4215  3.1526  1.4899
   95SAPS   O31 9374   7.043   1.741   6.732  0.4511 -0.3281 -0.0186
   95SAPS   C31 9375   6.947   1.784   6.817 -0.4388  0.4804 -0.5063
   95SAPS   O32 9376   6.835   1.813   6.798  1.0632  0.0700  0.2413
   95SAPS   C32 9377   7.012   1.784   6.956  0.7860 -0.3848  0.5146
   95SAPS   H2X 9378   7.119   1.814   6.949  0.5566  0.7987  1.9409
   95SAPS   H2Y 9379   7.002   1.679   6.989 -0.4385 -0.8717 -1.3508
   95SAPS   C23 9380   7.434   2.117   6.609  0.5535 -0.0833  0.4722
   95SAPS   H3R 9381   7.365   2.200   6.632 -1.2243 -1.6474  0.8678
   95SAPS   H3S 9382   7.448   2.121   6.499  0.6715 -1.7136  0.4198
   95SAPS   C24 9383   7.568   2.153   6.674 -0.2549  0.2951 -0.1099
   95SAPS   H4R 9384   7.556   2.174   6.783 -1.1090 -0.4929 -0.0417
   95SAPS   H4S 9385   7.607   2.244   6.624  0.5187  0.1257  0.1764
   95SAPS   C25 9386   7.657   2.033   6.646  0.1976 -0.3494 -0.0698
   95SAPS   H5R 9387   7.666   2.023   6.536 -2.2160 -1.3592 -0.2130
   95SAPS   C26 9388   7.732   1.952   6.719  0.3831 -0.2780  0.9382
   95SAPS   H6R 9389   7.791   1.873   6.671 -3.4028 -1.4221 -2.0656
   95SAPS   C27 9390   7.736   1.956   6.870 -0.1804  0.4036 -0.0558
   95SAPS   H7R 9391   7.677   1.871   6.911 -0.0557 -0.4192 -1.5611
   95SAPS   H7S 9392   7.688   2.049   6.909 -1.2972 -0.3925  0.5069
   95SAPS   C28 9393   7.871   1.941   6.932 -0.2931  0.5552  0.2328
   95SAPS   H8R 9394   7.960   1.952   6.868  0.2961 -2.4638  0.4570
   95SAPS   C29 9395   7.905   1.913   7.060  0.1420  0.3218  0.8619
   95SAPS   H9R 9396   8.010   1.902   7.090  0.3290 -2.3697 -0.5753
   95SAPS  C210 9397   7.812   1.892   7.171  0.3452 -0.5915 -0.2105
   95SAPS  H10R 9398   7.770   1.789   7.181  0.4135 -0.5383  0.6081
   95SAPS  H10S 9399   7.719   1.950   7.152  0.5028  1.2559  4.1746
   95SAPS  C211 9400   7.883   1.941   7.299  0.3929  0.5700 -0.2198
   95SAPS  H11R 9401   7.961   2.018   7.295 -0.1929  1.1777  0.0529
   95SAPS  C212 9402   7.863   1.894   7.422 -0.4165 -0.4749 -0.1429
   95SAPS  H12R 9403   7.912   1.954   7.500 -2.0484 -0.1083  0.6271
   95SAPS  C213 9404   7.757   1.793   7.463 -0.1446  0.3656 -0.0142
   95SAPS  H13R 9405   7.754   1.713   7.386 -1.6892 -0.0379  0.4553
   95SAPS  H13S 9406   7.652   1.827   7.450 -0.3722 -0.3481 -0.0522
   95SAPS  C214 9407   7.769   1.735   7.603  0.3746 -0.3983 -0.2405
   95SAPS  H14R 9408   7.758   1.626   7.606  0.3812 -0.3883  0.2624
   95SAPS  C215 9409   7.773   1.793   7.726  0.1299 -0.1679 -0.2773
   95SAPS  H15R 9410   7.786   1.716   7.803 -1.6544 -0.0642  0.1415
   95SAPS  C216 9411   7.774   1.943   7.769  0.4182  0.4051  0.7757
   95SAPS  H16R 9412   7.722   2.009   7.697  0.7699 -0.0941  0.0563
   95SAPS  H16S 9413   7.873   1.988   7.791 -0.3338  2.8430 -0.6795
   95SAPS  C217 9414   7.708   1.944   7.910  0.4290  0.2725  0.0243
   95SAPS  H17R 9415   7.724   2.040   7.964 -2.6417  2.7296 -3.2489
   95SAPS  H17S 9416   7.753   1.860   7.967  2.6209  1.3250 -0.0982
   95SAPS  C218 9417   7.556   1.931   7.911  0.1571  0.5534  0.1335
   95SAPS  H18R 9418   7.522   1.826   7.904  0.4675  0.5358 -1.3189
   95SAPS  H18S 9419   7.505   1.988   7.830 -0.6063 -1.5840 -0.9054
   95SAPS  C219 9420   7.490   1.980   8.043  0.3463 -0.1505  0.1196
   95SAPS  H19R 9421   7.386   2.010   8.018 -0.2306 -0.3622  2.1995
   95SAPS  H19S 9422   7.532   2.081   8.064  0.3154 -0.1098 -0.0128
   95SAPS  C220 9423   7.510   1.902   8.168 -1.2089  0.1337 -0.8553
   95SAPS  H20R 9424   7.452   1.956   8.245  0.1281 -0.2844  0.4530
   95SAPS  H20S 9425   7.618   1.890   8.188 -1.4058 -1.3134 -0.5840
   95SAPS  H20T 9426   7.469   1.798   8.173 -1.7336  0.2655 -2.0736
   95SAPS   C33 9427   6.941   1.891   7.047  0.6663  0.1959  0.1017
   95SAPS   H3X 9428   6.835   1.868   7.071  1.2240 -0.4715  2.0558
   95SAPS   H3Y 9429   6.953   1.992   7.003  0.5819 -0.1598 -0.7343
   95SAPS   C34 9430   7.004   1.887   7.188  0.5797 -0.8775 -0.0881
   95SAPS   H4X 9431   7.113   1.907   7.180  0.4793 -1.2173 -2.5685
   95SAPS   H4Y 9432   6.991   1.782   7.219  1.0353 -0.6238  0.9801
   95SAPS   C35 9433   6.926   1.972   7.289  0.4430  0.3157  0.4124
   95SAPS   H5X 9434   6.823   1.933   7.303  1.1731 -1.1107  1.9276
   95SAPS   H5Y 9435   6.929   2.080   7.264 -0.1356  0.1426 -0.4231
   95SAPS   C36 9436   6.985   1.979   7.433  0.7789  0.4864 -0.0948
   95SAPS   H6X 9437   7.092   2.012   7.429  1.0267 -0.3089 -0.1152
   95SAPS   H6Y 9438   6.983   1.878   7.479  1.2645  0.9732  1.0135
   95SAPS   C37 9439   6.894   2.067   7.524  0.1885 -0.3339  0.3448
   95SAPS   H7X 9440   6.790   2.032   7.507  0.4337 -0.7944 -0.2184
   95SAPS   H7Y 9441   6.912   2.175   7.502 -2.0049 -0.0528 -0.1960
   95SAPS   C38 9442   6.933   2.058   7.671  0.1502 -0.1396  0.2286
   95SAPS   H8X 9443   7.039   2.086   7.686  1.0062 -3.2008  0.3668
   95SAPS   H8Y 9444   6.921   1.950   7.695 -1.7123  0.2034  0.9298
   95SAPS   C39 9445   6.849   2.133   7.769 -0.2505  0.2453  0.5842
   95SAPS   H9X 9446   6.742   2.103   7.767  0.4899 -2.4808 -0.1118
   95SAPS   H9Y 9447   6.859   2.242   7.748 -0.8355 -0.1895 -2.1072
   95SAPS  C310 9448   6.906   2.133   7.906  0.0235 -0.4398 -0.3516
   95SAPS  H10X 9449   7.017   2.131   7.906  0.1313  2.6532 -2.9324
   95SAPS  H10Y 9450   6.874   2.036   7.951  1.0343 -0.7853 -0.3611
   95SAPS  C311 9451   6.856   2.238   7.994  0.6164  0.0195  0.1384
   95SAPS  H11X 9452   6.745   2.234   7.996  0.4687  2.8371 -0.5382
   95SAPS  H11Y 9453   6.882   2.339   7.955 -2.4132  0.0406 -1.9470
   95SAPS  C312 9454   6.902   2.205   8.138 -0.4632  0.1447 -0.0969
   95SAPS  H12X 9455   7.011   2.221   8.149 -0.4288 -0.2515  0.1700
   95SAPS  H12Y 9456   6.877   2.102   8.172 -0.1419 -0.4189 -1.5192
   95SAPS  C313 9457   6.829   2.295   8.238  0.3139 -0.2526  0.3076
   95SAPS  H13X 9458   6.724   2.263   8.250  0.0937  1.4222  3.3924
   95SAPS  H13Y 9459   6.810   2.391   8.184 -0.1040  0.1981  1.2571
   95SAPS  C314 9460   6.888   2.306   8.382  0.0377  0.7688  0.3443
   95SAPS  H14X 9461   6.993   2.343   8.374 -0.3689  1.6129 -1.1313
   95SAPS  H14Y 9462   6.892   2.212   8.441 -1.4753  1.0864  0.9783
   95SAPS  C315 9463   6.810   2.395   8.479  0.1342  0.9385  0.8348
   95SAPS  H15X 9464   6.704   2.364   8.490  0.6361 -0.6694  1.3213
   95SAPS  H15Y 9465   6.810   2.503   8.454 -2.1855  0.7607 -0.0864
   95SAPS  C316 9466   6.881   2.386   8.616 -0.0855 -0.1645  0.2131
   95SAPS  H16X 9467   6.991   2.384   8.603 -0.1194 -1.5164  0.0895
   95SAPS  H16Y 9468   6.851   2.285   8.650  0.6430 -0.1461  0.9330
   95SAPS  C317 9469   6.856   2.496   8.720  0.4267 -0.7435 -0.7417
   95SAPS  H17X 9470   6.750   2.528   8.704 -0.3548 -3.3363 -0.8705
   95SAPS  H17Y 9471   6.914   2.587   8.694 -0.2192  0.4906  1.8893
   95SAPS  C318 9472   6.880   2.448   8.860 -0.7694 -0.3531 -0.1010
   95SAPS  H18X 9473   6.982   2.404   8.874 -1.4388 -1.5439  1.1364
   95SAPS  H18Y 9474   6.811   2.364   8.880 -0.4556 -0.6667 -0.3248
   95SAPS  H18Z 9475   6.852   2.521   8.939  0.2363  0.5318 -0.5515
   96SAPS     N 9476   0.620   3.776   6.227 -0.3725  0.0300  0.0801
   96SAPS   HN1 9477   0.638   3.833   6.142  0.7629  0.4188  0.5675
   96SAPS   HN2 9478   0.545   3.811   6.289  1.3604  2.9059  0.6488
   96SAPS   HN3 9479   0.707   3.764   6.283 -1.6603 -3.5958  1.4559
   96SAPS   C12 9480   0.574   3.634   6.196  0.2311  0.5746 -1.2277
   96SAPS  H12A 9481   0.542   3.592   6.290  1.4951  1.8556 -0.1903
   96SAPS   C13 9482   0.453   3.618   6.099 -0.3154  0.1487  0.1836
   96SAPS  O13A 9483   0.407   3.727   6.057  0.1503 -0.4605  0.0441
   96SAPS  O13B 9484   0.409   3.509   6.055 -0.9721  0.3355 -0.2011
   96SAPS   C11 9485   0.694   3.553   6.146  0.2494  0.4088  0.8506
   96SAPS  H11A 9486   0.725   3.596   6.048  0.0135 -0.1352  0.5407
   96SAPS  H11B 9487   0.650   3.451   6.140 -3.1958  1.7567  1.8158
   96SAPS     P 9488   0.936   3.488   6.185  0.2693  0.0620 -0.1154
   96SAPS   O13 9489   0.903   3.362   6.112 -0.4331 -0.0662 -0.2961
   96SAPS   O14 9490   1.006   3.588   6.104  0.1114 -0.6158 -0.1576
   96SAPS   O12 9491   0.805   3.557   6.234  0.4559  0.8816  0.1647
   96SAPS   O11 9492   1.021   3.460   6.316 -0.3327 -0.8785 -0.0848
   96SAPS    C1 9493   0.960   3.442   6.442 -0.3125  0.5346 -0.4875
   96SAPS    HA 9494   0.883   3.521   6.449 -0.1701  0.4876  2.0657
   96SAPS    HB 9495   0.913   3.341   6.449 -1.3584  0.7899 -3.2635
   96SAPS    C2 9496   1.053   3.471   6.563  0.7772  0.4656 -0.2880
   96SAPS    HS 9497   1.113   3.378   6.568  0.0550  0.0560  0.8490
   96SAPS   O21 9498   0.970   3.489   6.674 -1.3507  0.1938 -0.2176
   96SAPS   C21 9499   1.003   3.430   6.790 -0.5063  0.2000 -0.7198
   96SAPS   O22 9500   1.096   3.348   6.804  0.3041  0.0258  0.2429
   96SAPS   C22 9501   0.922   3.495   6.902 -0.4450  1.1199  0.4857
   96SAPS   H2R 9502   0.991   3.545   6.973  1.5638  2.6273 -2.3981
   96SAPS   H2S 9503   0.839   3.553   6.855 -2.2001 -1.0789  0.8001
   96SAPS    C3 9504   1.146   3.604   6.558  0.4086  0.1990 -0.4719
   96SAPS    HX 9505   1.074   3.687   6.574  0.4661  0.2761 -0.6146
   96SAPS    HY 9506   1.200   3.613   6.461  0.5340 -0.3513 -0.4580
   96SAPS   O31 9507   1.230   3.591   6.675 -0.2176 -0.0870 -0.5394
   96SAPS   C31 9508   1.344   3.537   6.659  0.4356 -0.5864 -0.2951
   96SAPS   O32 9509   1.398   3.519   6.552 -0.1021 -0.3724 -0.1620
   96SAPS   C32 9510   1.408   3.510   6.793  0.3095  0.2109  0.5806
   96SAPS   H2X 9511   1.333   3.444   6.842  0.3786 -0.6189 -0.4489
   96SAPS   H2Y 9512   1.414   3.611   6.841  0.3564  0.9354 -0.9181
   96SAPS   C23 9513   0.868   3.373   6.988  0.0599  0.3121  0.1870
   96SAPS   H3R 9514   0.950   3.315   7.036 -1.1998 -0.9132  0.8915
   96SAPS   H3S 9515   0.814   3.300   6.925  1.7115 -1.3782  0.6623
   96SAPS   C24 9516   0.762   3.415   7.098  0.1031 -0.1950 -0.3194
   96SAPS   H4R 9517   0.684   3.476   7.048 -0.4320  1.2189  2.1446
   96SAPS   H4S 9518   0.822   3.485   7.160 -2.0415  0.4136  1.0945
   96SAPS   C25 9519   0.697   3.311   7.186 -0.5749  0.2683 -0.4733
   96SAPS   H5R 9520   0.700   3.210   7.143  0.9912 -0.5033  1.3918
   96SAPS   C26 9521   0.648   3.329   7.310 -0.0502 -0.1860  0.0653
   96SAPS   H6R 9522   0.609   3.236   7.355  1.1790 -2.2037 -2.8213
   96SAPS   C27 9523   0.657   3.460   7.383  0.3110 -0.0015  0.3551
   96SAPS   H7R 9524   0.558   3.481   7.429  0.6279  0.9043  0.6454
   96SAPS   H7S 9525   0.687   3.549   7.324  3.2671 -2.2937 -1.7353
   96SAPS   C28 9526   0.762   3.467   7.490  0.0348 -0.8663  0.0756
   96SAPS   H8R 9527   0.860   3.509   7.463  0.0821 -0.4839  0.8384
   96SAPS   C29 9528   0.752   3.432   7.620 -0.7578  0.2920 -1.0673
   96SAPS   H9R 9529   0.846   3.425   7.678 -1.1653 -0.9507 -0.5270
   96SAPS  C210 9530   0.641   3.357   7.686  0.1223 -0.3153 -0.9066
   96SAPS  H10R 9531   0.603   3.287   7.609  0.1966 -0.0846 -1.1530
   96SAPS  H10S 9532   0.556   3.425   7.707  1.0050  0.0315  1.8317
   96SAPS  C211 9533   0.699   3.291   7.813 -0.4501  0.0905 -0.0666
   96SAPS  H11R 9534   0.779   3.218   7.801  0.7414  1.2421  0.6852
   96SAPS  C212 9535   0.646   3.299   7.935  0.1579 -0.0220  0.1908
   96SAPS  H12R 9536   0.695   3.252   8.021  0.0939  1.3711  0.9991
   96SAPS  C213 9537   0.519   3.375   7.982  0.1629 -0.0425  0.4138
   96SAPS  H13R 9538   0.449   3.294   8.012 -0.3232  0.7238  1.3959
   96SAPS  H13S 9539   0.473   3.440   7.905 -0.6748  1.3790  2.0608
   96SAPS  C214 9540   0.545   3.454   8.108 -0.3899  0.0625 -0.0585
   96SAPS  H14R 9541   0.571   3.561   8.099  2.1172 -0.5391 -0.3647
   96SAPS  C215 9542   0.548   3.406   8.228  0.4704  1.0167  0.5106
   96SAPS  H15R 9543   0.558   3.471   8.316  0.9895  0.6502  0.7255
   96SAPS  C216 9544   0.517   3.259   8.263 -0.2683 -0.1833  0.7838
   96SAPS  H16R 9545   0.579   3.227   8.349 -0.2439 -1.7073  0.2095
   96SAPS  H16S 9546   0.541   3.189   8.181 -0.4348 -0.8382  1.2945
   96SAPS  C217 9547   0.369   3.244   8.307  0.3675 -0.3726 -0.8165
   96SAPS  H17R 9548   0.303   3.271   8.221  1.8292 -1.4130 -2.2877
   96SAPS  H17S 9549   0.341   3.319   8.384  0.5750 -0.6731 -0.4472
   96SAPS  C218 9550   0.325   3.100   8.347 -0.6427 -0.2021  0.1916
   96SAPS  H18R 9551   0.357   3.073   8.450  0.3460  0.4933  0.0708
   96SAPS  H18S 9552   0.371   3.020   8.285  1.7782  1.4058 -0.1211
   96SAPS  C219 9553   0.171   3.083   8.346  0.1740  0.3879 -0.5089
   96SAPS  H19R 9554   0.132   3.117   8.247 -0.9136 -0.1553 -0.2746
   96SAPS  H19S 9555   0.127   3.149   8.423  1.2964 -0.6623  1.0584
   96SAPS  C220 9556   0.123   2.939   8.372 -0.0101 -0.6435  0.5875
   96SAPS  H20R 9557   0.154   2.864   8.296 -0.9514 -0.4039 -0.0471
   96SAPS  H20S 9558   0.012   2.934   8.373 -0.1146  1.4468  1.6559
   96SAPS  H20T 9559   0.160   2.900   8.468  1.1155 -0.5634  0.1930
   96SAPS   C33 9560   1.550   3.443   6.785 -0.1537  0.2727  1.1988
   96SAPS   H3X 9561   1.635   3.515   6.783  0.9277 -1.0020  0.1908
   96SAPS   H3Y 9562   1.564   3.382   6.693  1.9615  1.9621  0.3486
   96SAPS   C34 9563   1.579   3.352   6.896  0.5626  0.3532  0.0875
   96SAPS   H4X 9564   1.683   3.315   6.895  0.4503  0.0482 -0.4783
   96SAPS   H4Y 9565   1.510   3.266   6.889 -0.6124  1.3470 -0.7987
   96SAPS   C35 9566   1.549   3.417   7.033  0.0554 -0.4947 -0.1486
   96SAPS   H5X 9567   1.440   3.435   7.032  0.2021  0.4441  0.4089
   96SAPS   H5Y 9568   1.603   3.514   7.022  0.2721 -0.4382  1.3710
   96SAPS   C36 9569   1.597   3.324   7.143 -0.1703  0.2493 -0.7042
   96SAPS   H6X 9570   1.708   3.315   7.132  0.1571  1.5396  1.4677
   96SAPS   H6Y 9571   1.550   3.224   7.130 -0.6119  0.4926 -0.9781
   96SAPS   C37 9572   1.563   3.381   7.278  0.4634 -0.3859 -0.4710
   96SAPS   H7X 9573   1.453   3.394   7.284  0.7215  2.6811 -1.5871
   96SAPS   H7Y 9574   1.607   3.483   7.288 -0.1244 -0.2992  1.4306
   96SAPS   C38 9575   1.626   3.306   7.399  0.1110 -0.3211  0.6145
   96SAPS   H8X 9576   1.735   3.289   7.391  0.4015  2.2931 -1.6165
   96SAPS   H8Y 9577   1.583   3.203   7.397 -0.1828 -0.2268  1.6603
   96SAPS   C39 9578   1.598   3.380   7.529  0.5972 -0.1945  0.2372
   96SAPS   H9X 9579   1.512   3.448   7.510 -1.4188 -2.7120  0.0603
   96SAPS   H9Y 9580   1.690   3.436   7.557 -0.0751 -0.2029  2.6562
   96SAPS  C310 9581   1.556   3.277   7.639 -0.8249 -0.0583  0.0840
   96SAPS  H10X 9582   1.618   3.186   7.625 -2.9094 -1.8307  2.1103
   96SAPS  H10Y 9583   1.452   3.250   7.614 -0.6446 -0.1724 -0.5448
   96SAPS  C311 9584   1.566   3.319   7.784 -0.4951 -0.0111  0.1725
   96SAPS  H11X 9585   1.515   3.415   7.807  0.5115 -0.0606  2.6964
   96SAPS  H11Y 9586   1.672   3.338   7.810 -0.9915  0.4511  1.9089
   96SAPS  C312 9587   1.500   3.228   7.887  0.1428  0.3753  0.0979
   96SAPS  H12X 9588   1.527   3.120   7.899 -4.1382 -0.6551  1.2795
   96SAPS  H12Y 9589   1.398   3.204   7.850  0.5479 -2.9859  0.9950
   96SAPS  C313 9590   1.495   3.296   8.020 -0.5875  0.0706 -0.7031
   96SAPS  H13X 9591   1.460   3.401   8.015 -1.8722 -0.2273  1.4745
   96SAPS  H13Y 9592   1.595   3.303   8.069 -0.4950 -2.8032 -0.4048
   96SAPS  C314 9593   1.411   3.218   8.118 -0.5919  0.0518 -0.2308
   96SAPS  H14X 9594   1.440   3.111   8.125 -2.1736 -0.3593  0.4615
   96SAPS  H14Y 9595   1.303   3.219   8.092 -0.4238 -1.2552 -1.0014
   96SAPS  C315 9596   1.421   3.269   8.265  0.0255  0.3042  0.2111
   96SAPS  H15X 9597   1.382   3.373   8.262 -1.4846 -0.2649 -0.3564
   96SAPS  H15Y 9598   1.529   3.286   8.286  0.3703  1.8288 -2.5957
   96SAPS  C316 9599   1.355   3.184   8.373  0.0210  0.1097 -0.5854
   96SAPS  H16X 9600   1.399   3.083   8.384 -0.7358 -0.4734 -2.6323
   96SAPS  H16Y 9601   1.246   3.176   8.352  0.1904 -0.9320 -1.0480
   96SAPS  C317 9602   1.353   3.242   8.511 -0.7923 -0.1321  0.7650
   96SAPS  H17X 9603   1.461   3.260   8.528 -0.5333  1.0459 -1.8564
   96SAPS  H17Y 9604   1.311   3.171   8.586 -0.3341 -2.7362 -1.3598
   96SAPS  C318 9605   1.270   3.364   8.513 -0.7754  0.8003 -0.6311
   96SAPS  H18X 9606   1.290   3.429   8.426 -0.7407  1.8982  0.1847
   96SAPS  H18Y 9607   1.294   3.421   8.605 -0.1441 -0.1803 -0.1795
   96SAPS  H18Z 9608   1.166   3.336   8.487 -0.4610  0.6587 -1.7862
   97SAPS     N 9609   2.122   1.706   6.260  0.1220  0.2884 -0.2535
   97SAPS   HN1 9610   2.104   1.712   6.362 -0.3653 -1.9646 -0.1741
   97SAPS   HN2 9611   2.044   1.748   6.206 -1.3977 -0.5092  1.2680
   97SAPS   HN3 9612   2.117   1.603   6.244 -0.7289  0.0027  1.7726
   97SAPS   C12 9613   2.253   1.758   6.209  0.7016 -0.4292 -0.9320
   97SAPS  H12A 9614   2.287   1.672   6.153  1.7301  0.0808 -1.1067
   97SAPS   C13 9615   2.225   1.883   6.114  0.0435  0.1828  0.4330
   97SAPS  O13A 9616   2.110   1.923   6.105 -0.6030 -0.3317  0.4463
   97SAPS  O13B 9617   2.318   1.909   6.030  0.3113  0.5444 -0.1494
   97SAPS   C11 9618   2.339   1.795   6.331  0.3627 -1.4147 -0.4681
   97SAPS  H11A 9619   2.440   1.813   6.288 -0.1366  0.6642 -0.8585
   97SAPS  H11B 9620   2.359   1.704   6.392  1.6687 -0.0949  1.1125
   97SAPS     P 9621   2.209   1.879   6.555 -0.0289 -0.0047 -0.1954
   97SAPS   O13 9622   2.171   2.017   6.602 -0.6891  0.7457  0.1939
   97SAPS   O14 9623   2.107   1.773   6.536 -0.1383  0.0557  0.3193
   97SAPS   O12 9624   2.278   1.899   6.413 -0.4758  0.0795  0.1147
   97SAPS   O11 9625   2.323   1.824   6.646  0.3263  0.3694  0.6561
   97SAPS    C1 9626   2.341   1.840   6.784  0.4213 -0.2629  0.0173
   97SAPS    HA 9627   2.451   1.832   6.798  0.3935 -2.1784 -0.7657
   97SAPS    HB 9628   2.305   1.938   6.822  2.2225  0.1318  0.7717
   97SAPS    C2 9629   2.265   1.736   6.881 -1.1240  0.5048  1.0046
   97SAPS    HS 9630   2.164   1.773   6.907 -1.8054 -0.4382 -0.2417
   97SAPS   O21 9631   2.349   1.712   6.995 -0.4915  0.0048  0.6469
   97SAPS   C21 9632   2.292   1.686   7.109 -1.1897  0.0589 -0.6174
   97SAPS   O22 9633   2.175   1.695   7.141  0.0266  0.2044 -0.7254
   97SAPS   C22 9634   2.401   1.617   7.197 -0.5772  0.8760 -0.1243
   97SAPS   H2R 9635   2.444   1.534   7.137  0.1241  0.2217  1.2536
   97SAPS   H2S 9636   2.483   1.692   7.210 -1.5078  1.7412  0.9166
   97SAPS    C3 9637   2.242   1.593   6.818 -0.7378 -0.6087 -0.2150
   97SAPS    HX 9638   2.347   1.558   6.814 -0.2354  0.7691  0.4305
   97SAPS    HY 9639   2.198   1.602   6.717  1.4067 -3.3933 -1.4486
   97SAPS   O31 9640   2.164   1.520   6.911 -0.3496  0.2893  0.2242
   97SAPS   C31 9641   2.034   1.543   6.909  0.6024 -0.8218  0.1151
   97SAPS   O32 9642   1.973   1.604   6.824  0.0829 -0.3423  0.3546
   97SAPS   C32 9643   1.970   1.472   7.024 -0.5844  1.0363 -0.9607
   97SAPS   H2X 9644   1.960   1.545   7.107  2.1375 -0.6084  0.9097
   97SAPS   H2Y 9645   2.043   1.402   7.071 -0.0271  1.3004 -1.4255
   97SAPS   C23 9646   2.355   1.576   7.338 -0.9067  0.2857  0.6739
   97SAPS   H3R 9647   2.427   1.512   7.392  0.6510  1.4505  0.0238
   97SAPS   H3S 9648   2.273   1.503   7.327  0.6206 -1.0664 -2.0812
   97SAPS   C24 9649   2.323   1.694   7.434 -1.3894  0.1348 -0.2891
   97SAPS   H4R 9650   2.236   1.747   7.391  0.0555  1.5055 -1.5776
   97SAPS   H4S 9651   2.414   1.757   7.422 -0.5520 -0.6907  1.5363
   97SAPS   C25 9652   2.305   1.653   7.576  0.3531 -0.0252  0.0015
   97SAPS   H5R 9653   2.202   1.620   7.596  0.4995 -0.3889  0.1648
   97SAPS   C26 9654   2.385   1.669   7.679  0.3587  0.2207 -0.7302
   97SAPS   H6R 9655   2.339   1.641   7.775  2.6211  2.3919  1.0539
   97SAPS   C27 9656   2.524   1.730   7.673  0.9698  0.5699  0.0302
   97SAPS   H7R 9657   2.534   1.814   7.746  1.4548 -1.4341  2.3630
   97SAPS   H7S 9658   2.553   1.767   7.573 -0.0553  0.8432 -0.1750
   97SAPS   C28 9659   2.610   1.614   7.714  0.1527  0.0415 -0.9889
   97SAPS   H8R 9660   2.615   1.537   7.637 -1.1077 -0.8965 -0.1569
   97SAPS   C29 9661   2.675   1.598   7.835  0.2927 -0.0826 -0.6137
   97SAPS   H9R 9662   2.736   1.507   7.844  1.2343  0.6214  0.2883
   97SAPS  C210 9663   2.685   1.695   7.947 -0.0867  0.2702 -0.3443
   97SAPS  H10R 9664   2.606   1.773   7.946 -0.8732 -0.5167 -0.2873
   97SAPS  H10S 9665   2.782   1.748   7.944 -0.0255  0.1307 -0.9136
   97SAPS  C211 9666   2.666   1.619   8.078 -0.3446  0.2864 -0.4018
   97SAPS  H11R 9667   2.755   1.568   8.117 -0.8622 -0.9027 -0.7703
   97SAPS  C212 9668   2.551   1.588   8.145  0.1460  0.5514 -0.0320
   97SAPS  H12R 9669   2.553   1.534   8.241 -1.5164  0.5961  0.0300
   97SAPS  C213 9670   2.417   1.634   8.101  0.1746 -0.0259 -0.2765
   97SAPS  H13R 9671   2.390   1.585   8.006 -1.8007 -1.1283  0.8256
   97SAPS  H13S 9672   2.411   1.740   8.069 -1.9682  0.1501  0.6201
   97SAPS  C214 9673   2.312   1.631   8.217 -0.3599 -0.3117  0.0424
   97SAPS  H14R 9674   2.326   1.710   8.292  0.8161  1.2919 -1.7793
   97SAPS  C215 9675   2.235   1.519   8.230 -0.3208 -0.2390 -0.2573
   97SAPS  H15R 9676   2.168   1.517   8.317 -1.2993 -2.4692 -1.0384
   97SAPS  C216 9677   2.238   1.398   8.131  0.2323 -0.0331  0.1122
   97SAPS  H16R 9678   2.332   1.390   8.071  0.3103 -0.1694  0.2525
   97SAPS  H16S 9679   2.152   1.402   8.061  2.3710  1.3210 -2.5631
   97SAPS  C217 9680   2.235   1.270   8.218 -1.0702 -0.0583 -0.6192
   97SAPS  H17R 9681   2.232   1.184   8.147 -2.9438  1.2581 -2.2102
   97SAPS  H17S 9682   2.153   1.272   8.293 -0.2666 -1.0539  0.2884
   97SAPS  C218 9683   2.368   1.248   8.293 -0.0850 -0.2073  0.1088
   97SAPS  H18R 9684   2.379   1.335   8.361 -1.2935  0.2682 -0.2898
   97SAPS  H18S 9685   2.453   1.244   8.222  0.7113  1.1263  0.9696
   97SAPS  C219 9686   2.367   1.127   8.388 -0.3566  0.4531  0.2211
   97SAPS  H19R 9687   2.362   1.048   8.309 -0.2931  0.5298  0.1403
   97SAPS  H19S 9688   2.282   1.142   8.458 -0.0378 -0.9304  0.9166
   97SAPS  C220 9689   2.498   1.100   8.463  0.3810 -0.2952 -0.5810
   97SAPS  H20R 9690   2.524   1.182   8.533 -1.0265 -0.3726  0.0370
   97SAPS  H20S 9691   2.576   1.094   8.384  0.1052  0.7058 -0.9398
   97SAPS  H20T 9692   2.488   1.003   8.515 -0.9791 -1.2290 -2.5485
   97SAPS   C33 9693   1.849   1.384   6.988 -0.3100 -0.5194  0.5954
   97SAPS   H3X 9694   1.863   1.298   6.919 -2.8222 -0.2851 -0.2660
   97SAPS   H3Y 9695   1.782   1.450   6.929  0.8568  0.6310  0.5615
   97SAPS   C34 9696   1.789   1.324   7.111  0.3227 -0.1943 -0.1430
   97SAPS   H4X 9697   1.766   1.409   7.180 -1.9781 -1.7368  1.0594
   97SAPS   H4Y 9698   1.866   1.260   7.159  2.0488  1.4685 -0.6201
   97SAPS   C35 9699   1.663   1.244   7.069 -0.2375  0.7158 -0.0376
   97SAPS   H5X 9700   1.705   1.154   7.019  0.5366  0.7678  0.5076
   97SAPS   H5Y 9701   1.613   1.303   6.990  1.5546  0.8581 -1.0910
   97SAPS   C36 9702   1.576   1.208   7.182 -0.6080 -0.1504  0.7935
   97SAPS   H6X 9703   1.493   1.150   7.136  0.6938 -0.2368 -1.5707
   97SAPS   H6Y 9704   1.544   1.308   7.218 -0.3544  0.1856  0.1137
   97SAPS   C37 9705   1.638   1.124   7.295  0.3737  0.0475 -0.3098
   97SAPS   H7X 9706   1.748   1.111   7.281  0.6768  2.6214 -0.5970
   97SAPS   H7Y 9707   1.582   1.029   7.302  1.2883 -0.3727  1.8797
   97SAPS   C38 9708   1.627   1.194   7.432 -0.4378 -1.0723 -0.1985
   97SAPS   H8X 9709   1.520   1.218   7.446  0.5142  1.8601  2.4079
   97SAPS   H8Y 9710   1.662   1.299   7.427 -2.0854 -0.5317 -0.9099
   97SAPS   C39 9711   1.686   1.123   7.549  0.0959 -0.0557  0.3977
   97SAPS   H9X 9712   1.783   1.074   7.524  1.5759  2.1748  1.5246
   97SAPS   H9Y 9713   1.624   1.035   7.576 -0.5831  0.8476  1.8882
   97SAPS  C310 9714   1.706   1.208   7.676 -1.1969 -0.1363 -0.0465
   97SAPS  H10X 9715   1.611   1.249   7.717 -1.1197 -0.3514  0.3485
   97SAPS  H10Y 9716   1.781   1.287   7.653 -1.7806  0.1919 -0.8283
   97SAPS  C311 9717   1.777   1.124   7.784  0.7044 -0.0488 -0.2698
   97SAPS  H11X 9718   1.875   1.086   7.748  1.8979  0.3882  2.4109
   97SAPS  H11Y 9719   1.709   1.038   7.805 -1.6955  2.2382  1.6228
   97SAPS  C312 9720   1.807   1.191   7.915  0.4935 -0.0810 -0.3960
   97SAPS  H12X 9721   1.709   1.227   7.952  0.5692  0.9499 -1.2021
   97SAPS  H12Y 9722   1.871   1.279   7.895 -0.8743  0.6728 -1.4750
   97SAPS  C313 9723   1.861   1.101   8.019  0.4197  0.0087 -0.3544
   97SAPS  H13X 9724   1.951   1.044   7.986  0.5815  0.3057 -0.4287
   97SAPS  H13Y 9725   1.782   1.025   8.034  1.1349 -0.2805  2.0765
   97SAPS  C314 9726   1.880   1.172   8.151 -0.1883  0.0103  0.2600
   97SAPS  H14X 9727   1.776   1.189   8.187 -0.0306 -0.2540  0.8521
   97SAPS  H14Y 9728   1.931   1.268   8.129  1.0225 -0.3029  1.6905
   97SAPS  C315 9729   1.948   1.083   8.253 -0.2319  0.3297  0.5342
   97SAPS  H15X 9730   2.047   1.047   8.218 -0.5625 -0.5689  0.5133
   97SAPS  H15Y 9731   1.881   0.994   8.264 -1.4058  1.5607  4.0588
   97SAPS  C316 9732   1.961   1.153   8.396 -0.3140 -0.5903  0.1502
   97SAPS  H16X 9733   1.949   1.263   8.394 -0.6401 -0.6079  0.8059
   97SAPS  H16Y 9734   2.059   1.120   8.435 -1.0825 -0.5224  2.2395
   97SAPS  C317 9735   1.862   1.094   8.496  0.4895  0.6112 -0.5695
   97SAPS  H17X 9736   1.865   0.983   8.495  2.8019  0.6518 -1.7224
   97SAPS  H17Y 9737   1.757   1.116   8.466 -0.2476 -0.5260  1.1145
   97SAPS  C318 9738   1.899   1.132   8.639  0.6227 -0.3659  0.0967
   97SAPS  H18X 9739   1.889   1.240   8.662  0.7986 -0.3468  0.0854
   97SAPS  H18Y 9740   2.004   1.097   8.656  0.6787  0.9078  2.4602
   97SAPS  H18Z 9741   1.833   1.083   8.713  1.0289  1.6829  1.8207
   98SAPS     N 9742   6.639   1.252   6.059  0.2378 -0.3545  0.1995
   98SAPS   HN1 9743   6.591   1.290   6.142  0.7719 -0.7849  0.7167
   98SAPS   HN2 9744   6.572   1.191   6.008  1.1773 -0.5925 -0.7880
   98SAPS   HN3 9745   6.709   1.185   6.097 -2.1228 -2.5209  0.8568
   98SAPS   C12 9746   6.694   1.354   5.961 -0.5040  0.2570  0.4790
   98SAPS  H12A 9747   6.772   1.304   5.906 -2.3055 -0.8528 -1.1577
   98SAPS   C13 9748   6.602   1.389   5.839  0.2073  0.3595  0.7424
   98SAPS  O13A 9749   6.486   1.348   5.852 -0.0157  0.0304  0.2511
   98SAPS  O13B 9750   6.630   1.486   5.765  0.0017  0.1219  0.8775
   98SAPS   C11 9751   6.743   1.480   6.039  0.3364  0.3124 -0.3834
   98SAPS  H11A 9752   6.654   1.515   6.097  1.0501  2.2921 -0.4528
   98SAPS  H11B 9753   6.764   1.560   5.966  1.5878  0.8582  0.5616
   98SAPS     P 9754   6.933   1.580   6.185 -0.4518 -0.0325 -0.0477
   98SAPS   O13 9755   7.033   1.631   6.089 -0.2059 -0.7602 -0.0589
   98SAPS   O14 9756   6.819   1.669   6.219 -0.1454  0.0174 -0.6085
   98SAPS   O12 9757   6.853   1.459   6.126  0.1662 -0.2945  0.0339
   98SAPS   O11 9758   7.003   1.521   6.316 -0.5821 -0.6559 -0.1722
   98SAPS    C1 9759   7.024   1.382   6.338  0.5670 -0.3276  0.4925
   98SAPS    HA 9760   6.924   1.334   6.329  0.0317  1.0969 -1.3552
   98SAPS    HB 9761   7.087   1.332   6.262 -0.0946  0.0630 -0.3084
   98SAPS    C2 9762   7.055   1.361   6.488 -0.7535 -0.0791  0.2354
   98SAPS    HS 9763   7.074   1.254   6.511 -3.2753 -0.5080  0.3677
   98SAPS   O21 9764   6.958   1.418   6.576 -0.2199 -0.4513  0.5707
   98SAPS   C21 9765   6.844   1.349   6.592 -0.3775  0.6199  0.3349
   98SAPS   O22 9766   6.825   1.239   6.534 -0.0959  0.9550  0.2467
   98SAPS   C22 9767   6.755   1.417   6.695  0.3789  0.3454 -0.3108
   98SAPS   H2R 9768   6.801   1.510   6.734 -0.7028  0.3124  1.0850
   98SAPS   H2S 9769   6.667   1.453   6.637 -0.8369 -1.2521  0.4812
   98SAPS    C3 9770   7.198   1.423   6.517  0.5649 -0.3547 -0.0057
   98SAPS    HX 9771   7.220   1.503   6.443  0.3267 -1.4901 -1.3180
   98SAPS    HY 9772   7.273   1.346   6.490  0.1917 -0.6090 -0.3092
   98SAPS   O31 9773   7.206   1.456   6.660 -0.1436 -0.4096 -0.5788
   98SAPS   C31 9774   7.281   1.562   6.688 -0.1626 -0.4182 -0.0371
   98SAPS   O32 9775   7.328   1.639   6.606  0.6173  0.9195  0.3495
   98SAPS   C32 9776   7.293   1.570   6.843  0.1995  0.5817  0.1492
   98SAPS   H2X 9777   7.251   1.481   6.895  0.1402  1.4074  1.5285
   98SAPS   H2Y 9778   7.225   1.653   6.872 -0.3274 -0.1749  1.0826
   98SAPS   C23 9779   6.700   1.321   6.811  0.0337  0.0652  0.2453
   98SAPS   H3R 9780   6.791   1.263   6.838  0.3532 -1.1697 -3.3050
   98SAPS   H3S 9781   6.624   1.246   6.779 -1.1696 -0.1756  3.4436
   98SAPS   C24 9782   6.652   1.395   6.943 -0.2063 -0.6786 -0.1131
   98SAPS   H4R 9783   6.731   1.470   6.962  0.0178 -0.5593 -1.4436
   98SAPS   H4S 9784   6.638   1.324   7.027  0.6070  1.2727  1.7125
   98SAPS   C25 9785   6.518   1.463   6.933  0.0579 -0.1460  0.1429
   98SAPS   H5R 9786   6.441   1.399   6.889 -1.1896 -1.3316  3.8446
   98SAPS   C26 9787   6.488   1.584   6.980 -0.0572 -0.5575  0.3175
   98SAPS   H6R 9788   6.379   1.600   6.979  0.1514  0.9045 -1.2757
   98SAPS   C27 9789   6.577   1.686   7.048 -0.2568  0.4218 -0.2329
   98SAPS   H7R 9790   6.599   1.765   6.973 -0.1902 -0.8699 -1.5999
   98SAPS   H7S 9791   6.672   1.631   7.062  1.0078  2.4496 -0.5967
   98SAPS   C28 9792   6.533   1.749   7.174  0.0336  0.4927 -0.1258
   98SAPS   H8R 9793   6.460   1.825   7.144 -0.6605  0.5398  1.6104
   98SAPS   C29 9794   6.572   1.724   7.303 -0.6322  0.5389 -0.0836
   98SAPS   H9R 9795   6.513   1.777   7.379  0.6792  1.1583  0.5122
   98SAPS  C210 9796   6.672   1.612   7.345  0.4439 -0.0863  0.0027
   98SAPS  H10R 9797   6.674   1.548   7.254  1.6168 -0.1842  0.0801
   98SAPS  H10S 9798   6.617   1.546   7.415  0.5926  0.6573  0.8232
   98SAPS  C211 9799   6.803   1.652   7.393  0.0849 -0.8850  0.4747
   98SAPS  H11R 9800   6.883   1.665   7.318  0.1158  1.6545  0.8991
   98SAPS  C212 9801   6.828   1.652   7.528 -0.3022  0.2361  0.8337
   98SAPS  H12R 9802   6.927   1.676   7.570 -0.7168 -2.5717  3.6482
   98SAPS  C213 9803   6.727   1.625   7.638 -0.2354 -0.5035  0.5675
   98SAPS  H13R 9804   6.738   1.522   7.676  1.1330 -0.3641  0.5815
   98SAPS  H13S 9805   6.621   1.638   7.606 -1.9172 -4.5932  4.0405
   98SAPS  C214 9806   6.737   1.726   7.751 -0.5761  0.0476  0.5173
   98SAPS  H14R 9807   6.773   1.825   7.720 -3.6016  0.4853 -1.7294
   98SAPS  C215 9808   6.736   1.714   7.883  0.4084  0.6185 -0.1923
   98SAPS  H15R 9809   6.756   1.800   7.949  1.4405  2.6618 -3.0842
   98SAPS  C216 9810   6.720   1.587   7.968  0.6991 -0.1060 -0.5214
   98SAPS  H16R 9811   6.817   1.572   8.020  0.1680  3.0747  1.5212
   98SAPS  H16S 9812   6.697   1.499   7.905  1.4070  0.0085 -0.9429
   98SAPS  C217 9813   6.610   1.605   8.076 -0.6401 -0.2872 -0.0828
   98SAPS  H17R 9814   6.516   1.632   8.024 -0.6426 -0.6144 -0.2488
   98SAPS  H17S 9815   6.645   1.691   8.136  1.4211 -0.3435 -1.1807
   98SAPS  C218 9816   6.588   1.479   8.164 -0.1786  0.5526  0.0632
   98SAPS  H18R 9817   6.561   1.389   8.107 -0.9581  0.6855  0.2183
   98SAPS  H18S 9818   6.494   1.511   8.214 -2.1101 -0.8327 -2.6142
   98SAPS  C219 9819   6.694   1.462   8.276 -0.0509  0.1728  0.2244
   98SAPS  H19R 9820   6.728   1.563   8.309 -0.1113  0.5825 -0.9394
   98SAPS  H19S 9821   6.779   1.407   8.230 -2.9676 -2.4047 -2.3488
   98SAPS  C220 9822   6.645   1.380   8.388  0.4740  0.0021 -0.4018
   98SAPS  H20R 9823   6.626   1.274   8.364  2.0431 -0.6029  0.9555
   98SAPS  H20S 9824   6.547   1.414   8.428  0.6717  1.5922 -1.2129
   98SAPS  H20T 9825   6.716   1.381   8.473 -0.5760 -1.0385  0.4893
   98SAPS   C33 9826   7.439   1.592   6.889 -0.0054 -0.2994 -0.2681
   98SAPS   H3X 9827   7.482   1.684   6.843  1.4896 -0.0713  1.5043
   98SAPS   H3Y 9828   7.502   1.513   6.842 -0.9523 -1.6701  0.7437
   98SAPS   C34 9829   7.457   1.607   7.044  0.4015  0.2153 -0.0088
   98SAPS   H4X 9830   7.565   1.617   7.068  0.7738 -1.4968 -0.9305
   98SAPS   H4Y 9831   7.410   1.526   7.104  2.7578 -0.8830  0.4223
   98SAPS   C35 9832   7.386   1.738   7.098 -0.1638 -0.2014  0.0473
   98SAPS   H5X 9833   7.275   1.735   7.108 -0.2770  0.2201 -0.9521
   98SAPS   H5Y 9834   7.400   1.810   7.013  1.3271 -0.9742 -0.3810
   98SAPS   C36 9835   7.449   1.791   7.224 -0.1005  0.5146  0.1832
   98SAPS   H6X 9836   7.415   1.896   7.233  1.1541  0.8970  0.5588
   98SAPS   H6Y 9837   7.557   1.778   7.202 -0.5481 -1.3756 -1.0118
   98SAPS   C37 9838   7.401   1.714   7.347  0.0566  1.0759  0.2631
   98SAPS   H7X 9839   7.487   1.669   7.400  2.3873  2.7223 -1.9889
   98SAPS   H7Y 9840   7.337   1.627   7.321  1.2875  1.0854 -3.0972
   98SAPS   C38 9841   7.321   1.794   7.450 -0.2939  0.5063  0.3416
   98SAPS   H8X 9842   7.214   1.808   7.427 -0.7882  1.6773  3.1376
   98SAPS   H8Y 9843   7.376   1.890   7.467  0.6263 -0.0738  0.6599
   98SAPS   C39 9844   7.318   1.708   7.581  0.5029  0.0431 -0.4494
   98SAPS   H9X 9845   7.424   1.683   7.604  0.1841 -0.4447  0.5296
   98SAPS   H9Y 9846   7.260   1.618   7.552 -0.5899  1.5325 -3.0124
   98SAPS  C310 9847   7.253   1.788   7.701 -0.3496 -0.5248  0.0322
   98SAPS  H10X 9848   7.155   1.829   7.668 -0.5181 -2.5669 -2.1301
   98SAPS  H10Y 9849   7.320   1.873   7.725 -1.1265  0.4491 -1.2094
   98SAPS  C311 9850   7.231   1.716   7.835  0.0167  0.1572 -0.5819
   98SAPS  H11X 9851   7.330   1.697   7.883 -0.5647 -3.2413 -0.5650
   98SAPS  H11Y 9852   7.186   1.617   7.809  0.5790  0.2894 -2.1159
   98SAPS  C312 9853   7.132   1.791   7.930  0.2227 -0.1109 -0.0992
   98SAPS  H12X 9854   7.042   1.821   7.872 -0.1332  1.4152  1.1957
   98SAPS  H12Y 9855   7.182   1.887   7.955  1.3055 -0.4888 -0.7769
   98SAPS  C313 9856   7.093   1.697   8.039  0.0894 -0.1574 -0.0798
   98SAPS  H13X 9857   7.183   1.655   8.089  0.2724 -1.1481 -1.1991
   98SAPS  H13Y 9858   7.050   1.604   7.997 -0.9605  0.3908 -0.2250
   98SAPS  C314 9859   7.012   1.747   8.158  0.0141 -0.2928  0.6926
   98SAPS  H14X 9860   6.909   1.774   8.125  0.6574  3.8528  1.8677
   98SAPS  H14Y 9861   7.035   1.852   8.186 -2.7863  0.0546  1.8342
   98SAPS  C315 9862   7.009   1.650   8.276 -0.7960  0.3193 -0.5166
   98SAPS  H15X 9863   6.985   1.547   8.240  1.9010 -0.6267  0.2558
   98SAPS  H15Y 9864   6.923   1.674   8.342 -0.0597 -0.1439  0.6234
   98SAPS  C316 9865   7.139   1.641   8.348  0.0022 -0.4058  0.3201
   98SAPS  H16X 9866   7.187   1.742   8.353 -0.2345 -0.3282  1.1339
   98SAPS  H16Y 9867   7.220   1.586   8.295 -0.0911 -0.4260  0.1970
   98SAPS  C317 9868   7.113   1.585   8.487 -0.5751  0.0961 -0.7962
   98SAPS  H17X 9869   7.100   1.477   8.461  0.6645 -0.8944  2.4093
   98SAPS  H17Y 9870   7.024   1.632   8.533 -0.4939  1.8658 -2.3820
   98SAPS  C318 9871   7.228   1.587   8.585 -0.5102  0.1635 -0.1846
   98SAPS  H18X 9872   7.235   1.687   8.632 -0.4569 -0.0721  0.3178
   98SAPS  H18Y 9873   7.325   1.557   8.540 -1.4295 -0.6910 -1.6405
   98SAPS  H18Z 9874   7.225   1.513   8.668  2.2520  0.4969  0.2796
   99SAPS     N 9875   5.409   6.221   6.110 -0.6966  0.7906 -0.7845
   99SAPS   HN1 9876   5.318   6.218   6.061 -0.6867 -1.7727 -0.6834
   99SAPS   HN2 9877   5.473   6.142   6.086 -1.1075 -0.1608  1.1749
   99SAPS   HN3 9878   5.390   6.215   6.212  2.7400  1.5718 -0.0027
   99SAPS   C12 9879   5.466   6.363   6.085 -0.5182  1.5289  0.2448
   99SAPS  H12A 9880   5.529   6.360   5.998  0.4175  0.7125  0.9483
   99SAPS   C13 9881   5.364   6.474   6.048 -0.7716  0.3405  0.2971
   99SAPS  O13A 9882   5.241   6.446   6.050 -0.3761  0.6486  0.0858
   99SAPS  O13B 9883   5.409   6.592   6.019 -0.2313 -0.0028 -0.2582
   99SAPS   C11 9884   5.555   6.404   6.198  0.4586 -0.3196  0.5325
   99SAPS  H11A 9885   5.502   6.413   6.296 -1.1795  1.2544 -0.4704
   99SAPS  H11B 9886   5.587   6.508   6.176 -2.6029  0.0866 -2.3747
   99SAPS     P 9887   5.816   6.357   6.206  0.0729 -0.2271  0.2353
   99SAPS   O13 9888   5.896   6.239   6.223 -0.0800  0.6477  0.0102
   99SAPS   O14 9889   5.828   6.438   6.077 -0.3090 -0.2155 -0.4731
   99SAPS   O12 9890   5.659   6.305   6.224  0.2509 -0.2605 -0.1174
   99SAPS   O11 9891   5.848   6.456   6.321 -0.3653 -0.1788 -0.2180
   99SAPS    C1 9892   5.809   6.423   6.454  0.8741 -0.2365  0.2096
   99SAPS    HA 9893   5.778   6.520   6.499  0.6876 -0.3142  0.2469
   99SAPS    HB 9894   5.726   6.349   6.460  0.2522  0.5751  2.1117
   99SAPS    C2 9895   5.930   6.364   6.538  0.5486  0.0226  0.2100
   99SAPS    HS 9896   5.941   6.265   6.490 -0.1646 -0.3874  0.8759
   99SAPS   O21 9897   5.901   6.359   6.680 -0.0651  0.3726 -0.4165
   99SAPS   C21 9898   5.823   6.259   6.705 -0.8618 -0.2762 -0.5153
   99SAPS   O22 9899   5.779   6.175   6.629 -0.0029 -0.7410  0.2894
   99SAPS   C22 9900   5.790   6.263   6.857  0.5299 -0.0983 -0.4515
   99SAPS   H2R 9901   5.847   6.182   6.907 -1.5487 -1.4334 -0.1739
   99SAPS   H2S 9902   5.821   6.364   6.889 -2.2902  0.3684  0.9183
   99SAPS    C3 9903   6.062   6.443   6.519  0.5517  1.0485 -0.1869
   99SAPS    HX 9904   6.035   6.548   6.497 -0.4695  0.7502 -0.4157
   99SAPS    HY 9905   6.108   6.400   6.427  2.3847 -0.2404  1.3009
   99SAPS   O31 9906   6.152   6.433   6.626 -0.0138 -0.4935 -0.6495
   99SAPS   C31 9907   6.211   6.320   6.652 -0.0698  0.0290 -0.2482
   99SAPS   O32 9908   6.200   6.219   6.585  0.2647 -0.1261 -0.1305
   99SAPS   C32 9909   6.300   6.336   6.772 -0.1488 -0.2313  0.2556
   99SAPS   H2X 9910   6.231   6.319   6.857  0.4667 -0.4136  0.7238
   99SAPS   H2Y 9911   6.362   6.428   6.773  2.3089 -1.8190 -1.2099
   99SAPS   C23 9912   5.634   6.249   6.868  0.1082  0.0834 -0.0155
   99SAPS   H3R 9913   5.614   6.149   6.825 -2.3520  1.0837 -1.3013
   99SAPS   H3S 9914   5.576   6.321   6.805  2.0301  0.6691 -1.1679
   99SAPS   C24 9915   5.566   6.269   7.004  0.0400 -0.8287 -0.0579
   99SAPS   H4R 9916   5.457   6.284   6.992  0.5771  3.8097  0.1228
   99SAPS   H4S 9917   5.621   6.352   7.053  0.6293 -0.2898 -1.5804
   99SAPS   C25 9918   5.584   6.145   7.086  0.3930  0.1747 -0.1109
   99SAPS   H5R 9919   5.682   6.096   7.080  0.2852 -0.2776  1.4792
   99SAPS   C26 9920   5.494   6.080   7.164  0.1591 -0.4929  0.7463
   99SAPS   H6R 9921   5.516   5.982   7.208  0.4047  0.5916  3.1296
   99SAPS   C27 9922   5.356   6.120   7.197  0.0414  0.4927  0.5825
   99SAPS   H7R 9923   5.334   6.226   7.174  2.1525  0.6937 -0.6467
   99SAPS   H7S 9924   5.348   6.118   7.308 -0.0903  0.1379  0.5692
   99SAPS   C28 9925   5.252   6.038   7.124  0.1708 -0.3447 -0.3216
   99SAPS   H8R 9926   5.280   6.026   7.018 -1.0427 -0.2765 -0.6579
   99SAPS   C29 9927   5.144   5.976   7.177  0.2369 -0.2299 -0.7979
   99SAPS   H9R 9928   5.072   5.919   7.116  0.6895 -0.9099 -0.6984
   99SAPS  C210 9929   5.107   5.985   7.323 -0.2007 -0.5511  0.3320
   99SAPS  H10R 9930   5.002   6.017   7.338 -0.2653 -0.1547 -0.8892
   99SAPS  H10S 9931   5.173   6.055   7.378  0.4514  0.8870 -2.1691
   99SAPS  C211 9932   5.129   5.858   7.388  0.4769  0.2216 -0.3531
   99SAPS  H11R 9933   5.228   5.810   7.384  0.5028  0.3167 -0.8404
   99SAPS  C212 9934   5.044   5.785   7.468 -0.7999  0.2466  0.2296
   99SAPS  H12R 9935   5.078   5.684   7.496 -0.6317  0.0551 -0.6534
   99SAPS  C213 9936   4.900   5.812   7.498  0.4819 -0.1876 -0.3908
   99SAPS  H13R 9937   4.841   5.721   7.525  0.1682  0.5989  1.6388
   99SAPS  H13S 9938   4.856   5.849   7.403  0.2831 -0.9252 -0.5920
   99SAPS  C214 9939   4.874   5.915   7.610 -0.3936 -0.6008 -0.1198
   99SAPS  H14R 9940   4.838   6.012   7.573  2.0575  0.8248  1.1496
   99SAPS  C215 9941   4.874   5.898   7.748  0.5632  0.5704 -0.7420
   99SAPS  H15R 9942   4.830   5.977   7.811 -0.0893 -1.0068  0.8234
   99SAPS  C216 9943   4.884   5.764   7.813 -0.0921 -0.0990  0.4991
   99SAPS  H16R 9944   4.977   5.767   7.874  0.5974 -0.8703 -0.5029
   99SAPS  H16S 9945   4.900   5.681   7.741  3.1679  1.4230 -0.6026
   99SAPS  C217 9946   4.770   5.732   7.905  0.2146 -0.3919 -0.2204
   99SAPS  H17R 9947   4.784   5.634   7.954  0.9803  0.6587  1.6935
   99SAPS  H17S 9948   4.674   5.716   7.850  0.9082  3.2011 -2.6634
   99SAPS  C218 9949   4.757   5.837   8.017  0.0139 -0.1073 -0.1005
   99SAPS  H18R 9950   4.686   5.784   8.084 -0.0606  0.0363 -0.0667
   99SAPS  H18S 9951   4.711   5.931   7.978 -0.8718 -0.6112 -0.2937
   99SAPS  C219 9952   4.885   5.867   8.090  0.4169  0.1750  0.1434
   99SAPS  H19R 9953   4.953   5.922   8.021 -0.7197  1.8620  0.3509
   99SAPS  H19S 9954   4.927   5.770   8.126 -0.7360 -0.5063 -0.3080
   99SAPS  C220 9955   4.850   5.967   8.199  0.2210 -0.1402  0.2699
   99SAPS  H20R 9956   4.766   5.925   8.258 -0.7762  0.3473 -0.7716
   99SAPS  H20S 9957   4.826   6.066   8.153 -0.5613  0.9016  2.8595
   99SAPS  H20T 9958   4.939   5.976   8.265 -0.0918  0.0284  0.6725
   99SAPS   C33 9959   6.408   6.226   6.781 -0.3807 -0.0624 -0.5239
   99SAPS   H3X 9960   6.491   6.245   6.710  2.6243 -0.0566  2.8688
   99SAPS   H3Y 9961   6.370   6.126   6.752 -2.0236  0.3438  0.1834
   99SAPS   C34 9962   6.482   6.216   6.920  0.0477 -0.3016 -0.5016
   99SAPS   H4X 9963   6.539   6.311   6.924 -0.0592 -0.1968 -1.3351
   99SAPS   H4Y 9964   6.555   6.133   6.920  1.7848  1.1992 -0.2658
   99SAPS   C35 9965   6.394   6.204   7.044  0.2397 -0.0416  0.3083
   99SAPS   H5X 9966   6.346   6.104   7.042 -0.0203  0.0863 -0.0059
   99SAPS   H5Y 9967   6.327   6.293   7.042 -0.4967 -0.6011 -0.6317
   99SAPS   C36 9968   6.467   6.198   7.183 -0.4046  0.3448 -0.1530
   99SAPS   H6X 9969   6.522   6.102   7.191  0.4533  0.6719 -1.9595
   99SAPS   H6Y 9970   6.391   6.192   7.265 -0.3002 -1.8945 -0.1929
   99SAPS   C37 9971   6.558   6.324   7.201  0.5850 -0.1564  0.5259
   99SAPS   H7X 9972   6.504   6.417   7.230 -2.1820 -0.7273 -2.4725
   99SAPS   H7Y 9973   6.607   6.331   7.102 -1.9703  0.1178 -0.7686
   99SAPS   C38 9974   6.673   6.275   7.292 -0.3777  0.3351 -0.6303
   99SAPS   H8X 9975   6.743   6.204   7.242 -0.8149 -0.0611 -0.6853
   99SAPS   H8Y 9976   6.626   6.224   7.379  2.2113  0.4079  0.8934
   99SAPS   C39 9977   6.754   6.392   7.357  0.3070 -0.4818  0.2810
   99SAPS   H9X 9978   6.780   6.466   7.278 -0.0834 -1.0166 -0.3591
   99SAPS   H9Y 9979   6.854   6.361   7.394  0.8804  2.0331  0.9265
   99SAPS  C310 9980   6.695   6.478   7.475 -0.1609  0.6804  0.8264
   99SAPS  H10X 9981   6.664   6.414   7.561 -2.0622 -0.7841 -0.8727
   99SAPS  H10Y 9982   6.604   6.532   7.441  0.1717  1.6295  1.4422
   99SAPS  C311 9983   6.784   6.587   7.540  0.7545 -0.3026 -0.0103
   99SAPS  H11X 9984   6.810   6.666   7.466 -0.1410  1.6873  1.7329
   99SAPS  H11Y 9985   6.874   6.531   7.570 -0.4738 -2.4891 -0.3352
   99SAPS  C312 9986   6.717   6.653   7.663 -0.7630  0.4286 -0.3170
   99SAPS  H12X 9987   6.620   6.700   7.634 -0.3160  1.2132 -0.5580
   99SAPS  H12Y 9988   6.793   6.730   7.690  0.5037  0.1346 -2.8246
   99SAPS  C313 9989   6.675   6.561   7.776 -0.1758  0.7445  0.1393
   99SAPS  H13X 9990   6.751   6.481   7.789 -1.1493 -0.4252 -1.2466
   99SAPS  H13Y 9991   6.581   6.511   7.744  0.1730  1.0461 -1.3493
   99SAPS  C314 9992   6.662   6.621   7.917  0.3113  0.2020 -0.1304
   99SAPS  H14X 9993   6.567   6.585   7.961 -0.7751  1.1279 -1.7083
   99SAPS  H14Y 9994   6.661   6.731   7.899 -1.2940 -0.0616 -1.8027
   99SAPS  C315 9995   6.780   6.589   8.009 -0.0725  0.1474  0.4294
   99SAPS  H15X 9996   6.870   6.621   7.952  0.7625 -2.4044  0.2412
   99SAPS  H15Y 9997   6.797   6.479   8.015 -1.6654 -0.2477 -1.8839
   99SAPS  C316 9998   6.776   6.661   8.148 -0.4050  0.4370 -0.7085
   99SAPS  H16X 9999   6.858   6.625   8.214 -2.5447  0.4147  1.9955
   99SAPS  H16Y10000   6.682   6.633   8.199 -0.1438  0.8777  0.0236
   99SAPS  C31710001   6.773   6.811   8.139 -0.1025  0.0784  0.4415
   99SAPS  H17X10002   6.675   6.848   8.103 -0.7806  1.1011  3.1873
   99SAPS  H17Y10003   6.839   6.846   8.058 -1.1489 -1.8662 -1.3139
   99SAPS  C31810004   6.799   6.862   8.276  0.3587  0.3342  0.3215
   99SAPS  H18X10005   6.768   6.967   8.296 -0.4692  0.3903 -1.2106
   99SAPS  H18Y10006   6.908   6.846   8.291  0.4601 -0.6507 -1.3541
   99SAPS  H18Z10007   6.758   6.805   8.363  0.9538 -0.1459  0.2870
  100SAPS     N10008   2.654   1.388   6.062  0.0338 -0.6711  0.3567
  100SAPS   HN110009   2.731   1.362   5.996  2.8231  0.8992  2.8749
  100SAPS   HN210010   2.693   1.443   6.141  0.6691  0.2012 -0.5461
  100SAPS   HN310011   2.634   1.294   6.102  0.4797 -0.1760  1.7832
  100SAPS   C1210012   2.544   1.456   5.991  0.2363 -0.2058  0.4049
  100SAPS  H12A10013   2.555   1.554   6.035 -1.3941  0.5870 -0.9135
  100SAPS   C1310014   2.567   1.473   5.834 -0.2986  0.2666  0.1514
  100SAPS  O13A10015   2.684   1.445   5.785  0.4224 -0.4008  0.1739
  100SAPS  O13B10016   2.477   1.526   5.773 -0.1332  0.0771  0.1267
  100SAPS   C1110017   2.410   1.388   6.033 -0.1972 -0.1978 -0.0821
  100SAPS  H11A10018   2.409   1.280   6.006  2.6999 -0.0801 -0.8435
  100SAPS  H11B10019   2.331   1.436   5.971  0.7293  0.7651 -0.5291
  100SAPS     P10020   2.250   1.345   6.233 -0.0236  0.0763  0.3013
  100SAPS   O1310021   2.140   1.449   6.229 -0.3045 -0.5385  0.1652
  100SAPS   O1410022   2.222   1.217   6.163  0.3758 -0.5499  0.3373
  100SAPS   O1210023   2.380   1.411   6.167 -0.1487  0.1676  0.2689
  100SAPS   O1110024   2.291   1.305   6.382 -0.2038 -0.2417  0.1360
  100SAPS    C110025   2.423   1.284   6.421  0.1143 -0.8228 -0.1712
  100SAPS    HA10026   2.443   1.175   6.433  2.0172 -0.2991  1.6897
  100SAPS    HB10027   2.504   1.317   6.353  1.4921 -0.5636  1.5652
  100SAPS    C210028   2.470   1.344   6.560  0.2719  0.1250  1.2030
  100SAPS    HS10029   2.570   1.298   6.580  0.1928 -0.2381  0.7501
  100SAPS   O2110030   2.370   1.319   6.658 -0.3363 -0.0919 -0.3384
  100SAPS   C2110031   2.356   1.196   6.706 -0.0619 -0.3141 -0.5713
  100SAPS   O2210032   2.425   1.100   6.675  0.4496  0.6998  0.4278
  100SAPS   C2210033   2.263   1.203   6.828 -0.3627 -0.1996 -0.4216
  100SAPS   H2R10034   2.267   1.298   6.885  0.6114  0.4048 -1.4893
  100SAPS   H2S10035   2.164   1.194   6.779  0.6109  0.2266 -2.5140
  100SAPS    C310036   2.492   1.495   6.549  1.1199 -0.0973 -0.0046
  100SAPS    HX10037   2.394   1.547   6.542 -0.2167 -2.6810 -1.1054
  100SAPS    HY10038   2.553   1.519   6.459 -0.7564 -1.8390 -1.7701
  100SAPS   O3110039   2.551   1.553   6.674  0.0205 -0.2955 -0.0472
  100SAPS   C3110040   2.677   1.527   6.692  0.1147 -0.4279 -0.8979
  100SAPS   O3210041   2.746   1.444   6.628  0.0407 -0.5335 -0.1827
  100SAPS   C3210042   2.720   1.598   6.818  0.5312  0.9319 -0.0788
  100SAPS   H2X10043   2.674   1.698   6.830  1.5945  1.2148  1.8300
  100SAPS   H2Y10044   2.831   1.596   6.818  0.5310 -1.2985  1.3518
  100SAPS   C2310045   2.274   1.080   6.914 -0.0214 -0.3352 -0.2048
  100SAPS   H3R10046   2.247   0.988   6.857 -0.5736 -0.4972  0.3119
  100SAPS   H3S10047   2.200   1.085   6.997  4.9548 -1.6087  4.5409
  100SAPS   C2410048   2.405   1.067   6.999  0.4553  0.3882 -0.3965
  100SAPS   H4R10049   2.485   1.056   6.922 -0.2765  1.5401 -1.3458
  100SAPS   H4S10050   2.404   0.968   7.050 -0.8690  0.4263 -0.3508
  100SAPS   C2510051   2.430   1.175   7.104 -0.1494 -0.7859 -0.4815
  100SAPS   H5R10052   2.490   1.258   7.064  2.7718 -2.5534  0.0808
  100SAPS   C2610053   2.362   1.202   7.221  0.2556 -0.6450  0.4114
  100SAPS   H6R10054   2.380   1.292   7.282 -2.1171  0.5763 -0.6200
  100SAPS   C2710055   2.239   1.121   7.267  0.0446  1.3640 -0.0886
  100SAPS   H7R10056   2.258   1.080   7.369 -1.0840  0.9727 -0.0262
  100SAPS   H7S10057   2.227   1.021   7.219  0.6492  0.6103  1.2998
  100SAPS   C2810058   2.108   1.196   7.283  0.2070 -0.0197  0.0442
  100SAPS   H8R10059   2.039   1.193   7.197  0.0012 -1.5815  0.2542
  100SAPS   C2910060   2.066   1.257   7.395  0.9272 -0.2285  0.3142
  100SAPS   H9R10061   1.968   1.307   7.392  1.2165  0.5448  2.8208
  100SAPS  C21010062   2.142   1.270   7.524  0.1196  0.5280 -0.5292
  100SAPS  H10R10063   2.098   1.352   7.584  0.6120  1.1533 -1.0206
  100SAPS  H10S10064   2.238   1.315   7.493  0.4053  0.1280 -0.2300
  100SAPS  C21110065   2.163   1.150   7.610  0.5602 -0.1227 -0.6116
  100SAPS  H11R10066   2.078   1.080   7.604 -0.2830  0.5952  2.4148
  100SAPS  C21210067   2.272   1.119   7.681  0.5336  0.0928 -0.6991
  100SAPS  H12R10068   2.259   1.023   7.734 -0.4062 -0.3357 -1.6923
  100SAPS  C21310069   2.406   1.192   7.688  0.3490  0.1144 -0.6022
  100SAPS  H13R10070   2.413   1.278   7.618  0.1598 -0.5941 -1.5109
  100SAPS  H13S10071   2.476   1.115   7.650  0.3974 -0.6128  0.9256
  100SAPS  C21410072   2.442   1.236   7.831  0.9703 -0.6302 -0.4290
  100SAPS  H14R10073   2.434   1.344   7.849 -1.6149 -0.7408 -0.7763
  100SAPS  C21510074   2.479   1.160   7.934 -0.0921 -0.0178  0.0188
  100SAPS  H15R10075   2.506   1.210   8.028 -0.4938  1.7629 -0.7839
  100SAPS  C21610076   2.500   1.015   7.924 -0.1098  0.3927 -0.3449
  100SAPS  H16R10077   2.610   0.996   7.926 -0.3705 -1.1893 -0.3441
  100SAPS  H16S10078   2.453   0.963   7.837 -1.0586  0.7478 -0.0486
  100SAPS  C21710079   2.449   0.956   8.051 -1.3337  0.1249 -0.4516
  100SAPS  H17R10080   2.340   0.978   8.053 -1.2785  0.3438  0.5658
  100SAPS  H17S10081   2.504   0.997   8.138 -1.1954  0.3965 -0.6642
  100SAPS  C21810082   2.468   0.797   8.055  0.4745  0.4554  0.3375
  100SAPS  H18R10083   2.569   0.777   8.013 -0.6077  2.9877 -3.7899
  100SAPS  H18S10084   2.395   0.749   7.986  0.3858  0.7646  0.2130
  100SAPS  C21910085   2.447   0.725   8.185  0.3056  0.3147 -0.2722
  100SAPS  H19R10086   2.460   0.618   8.157  0.8503  0.2268  0.3260
  100SAPS  H19S10087   2.343   0.730   8.225 -0.1280 -1.1106 -1.1531
  100SAPS  C22010088   2.556   0.751   8.294 -0.5001  0.2928  0.0617
  100SAPS  H20R10089   2.523   0.692   8.382 -3.4225  3.2968  1.1130
  100SAPS  H20S10090   2.561   0.858   8.324  0.7997 -0.3920  2.4478
  100SAPS  H20T10091   2.660   0.724   8.264 -1.0392 -1.2948 -0.4261
  100SAPS   C3310092   2.684   1.506   6.938  1.0606  0.7624  0.2284
  100SAPS   H3X10093   2.710   1.402   6.908 -2.9688  0.2439 -1.7887
  100SAPS   H3Y10094   2.577   1.523   6.961  0.7205  1.2959 -1.6656
  100SAPS   C3410095   2.751   1.541   7.071  0.5310  0.1474  0.8630
  100SAPS   H4X10096   2.719   1.641   7.105 -2.7458 -1.2962  2.2979
  100SAPS   H4Y10097   2.861   1.544   7.055  0.3605  1.6482 -0.0818
  100SAPS   C3510098   2.721   1.433   7.184  0.1437  0.5566  1.5607
  100SAPS   H5X10099   2.761   1.331   7.161  1.4091  1.4129 -0.2039
  100SAPS   H5Y10100   2.614   1.409   7.201 -0.4570  2.1987  0.2894
  100SAPS   C3610101   2.791   1.473   7.315  0.3755  0.2824 -0.3550
  100SAPS   H6X10102   2.777   1.582   7.333 -0.7915  0.3635 -1.6149
  100SAPS   H6Y10103   2.900   1.469   7.299  0.2912  1.4400 -1.2607
  100SAPS   C3710104   2.762   1.383   7.434 -0.4798 -0.0794 -0.2410
  100SAPS   H7X10105   2.780   1.284   7.388  0.4922  1.5392 -3.5407
  100SAPS   H7Y10106   2.662   1.398   7.480  0.5153  2.7039  1.2042
  100SAPS   C3810107   2.864   1.402   7.554 -0.2731  0.7313 -0.0915
  100SAPS   H8X10108   2.862   1.504   7.599  0.2241  0.2318  1.0994
  100SAPS   H8Y10109   2.962   1.376   7.510 -0.5345 -1.7668  0.6887
  100SAPS   C3910110   2.823   1.290   7.655  0.8673  0.3085  0.3710
  100SAPS   H9X10111   2.812   1.193   7.604  0.2810 -0.2606  1.5632
  100SAPS   H9Y10112   2.723   1.323   7.691 -0.1704 -3.7979  1.4662
  100SAPS  C31010113   2.916   1.282   7.783 -0.0837  0.8481 -0.9312
  100SAPS  H10X10114   2.949   1.386   7.805  2.0097  0.0784 -0.3385
  100SAPS  H10Y10115   3.010   1.227   7.760 -1.5006 -2.1804  0.2464
  100SAPS  C31110116   2.839   1.237   7.902 -0.1999  0.5820 -0.5883
  100SAPS  H11X10117   2.811   1.133   7.872 -1.4413  1.3952 -2.3027
  100SAPS  H11Y10118   2.745   1.290   7.928 -2.3048 -4.1478  2.1761
  100SAPS  C31210119   2.928   1.230   8.027  0.3424  0.5429 -0.1355
  100SAPS  H12X10120   2.996   1.317   8.036 -0.5753  1.4643 -1.8017
  100SAPS  H12Y10121   2.985   1.135   8.021  2.3433  1.6232  1.4029
  100SAPS  C31310122   2.853   1.214   8.164  0.1805 -0.8764 -0.6753
  100SAPS  H13X10123   2.790   1.122   8.160 -0.6989 -0.2650 -0.9601
  100SAPS  H13Y10124   2.783   1.297   8.186  1.5492  0.1504 -0.1223
  100SAPS  C31410125   2.946   1.215   8.286  0.1823  0.5416 -0.3621
  100SAPS  H14X10126   2.991   1.316   8.293 -0.1603  0.6878 -0.2435
  100SAPS  H14Y10127   3.033   1.146   8.280 -1.0386 -1.1704  1.0467
  100SAPS  C31510128   2.873   1.184   8.416  0.0956 -0.0836 -0.3908
  100SAPS  H15X10129   2.818   1.087   8.414 -1.3208  0.6740  0.9117
  100SAPS  H15Y10130   2.797   1.263   8.431  0.1975  0.4729 -2.6713
  100SAPS  C31610131   2.976   1.178   8.532  0.3901 -0.0788  0.1290
  100SAPS  H16X10132   3.069   1.128   8.497  0.8724  1.1164 -0.3004
  100SAPS  H16Y10133   2.932   1.116   8.613  0.0532 -2.6778 -1.9381
  100SAPS  C31710134   3.010   1.319   8.570 -0.1562  0.6450 -1.1088
  100SAPS  H17X10135   2.916   1.371   8.597 -1.0315 -1.8924  0.8948
  100SAPS  H17Y10136   3.053   1.368   8.480 -2.3162  0.2849 -2.3773
  100SAPS  C31810137   3.100   1.324   8.688  0.3045 -0.2826  0.3030
  100SAPS  H18X10138   3.046   1.278   8.774  0.8414 -1.1222  0.1969
  100SAPS  H18Y10139   3.124   1.429   8.713 -0.6654  0.0903 -0.2841
  100SAPS  H18Z10140   3.195   1.272   8.666  0.6472  1.0135 -1.3101
  101OSM      N10141   0.828   0.899  10.958 -0.4087 -0.0876  0.4414
  101OSM    C1510142   0.886   0.879  10.826  0.1515  0.3645  0.5027
  101OSM   H15A10143   0.949   0.791  10.827  3.1388  2.3827 -1.0921
  101OSM   H15B10144   0.956   0.959  10.804 -0.3568  0.5632 -0.4297
  101OSM   H15C10145   0.820   0.873  10.740 -1.9181  2.2052  1.8941
  101OSM    C1410146   0.732   0.787  10.975 -0.4113 -0.3142  0.4062
  101OSM   H14A10147   0.684   0.778  11.071  0.4850 -1.3218  0.7688
  101OSM   H14B10148   0.794   0.700  10.957 -0.6293 -0.6044  1.0437
  101OSM   H14C10149   0.656   0.801  10.900  0.9749  0.1474 -0.9530
  101OSM    C1310150   0.936   0.885  11.055  0.3164 -0.4479  0.2176
  101OSM   H13A10151   1.020   0.950  11.034 -0.4615  0.5104 -0.0167
  101OSM   H13B10152   0.973   0.784  11.061  2.3886  0.2898  0.3982
  101OSM   H13C10153   0.899   0.895  11.156  1.4250  2.7437  0.3840
  101OSM    C1210154   0.755   1.031  10.978  0.2980 -0.7030 -0.2297
  101OSM   H12A10155   0.825   1.112  10.994 -1.8340  2.1428 -4.2818
  101OSM   H12B10156   0.688   1.025  11.062 -1.0485  3.5088 -0.8921
  101OSM    C1110157   0.675   1.070  10.850  0.5012 -0.1684 -0.0726
  101OSM   H11A10158   0.601   1.152  10.867 -1.5359 -1.5806 -1.8025
  101OSM   H11B10159   0.605   0.992  10.813  1.4911  0.0363 -2.4516
  101OSM      P10160   0.863   1.225  10.733 -0.0650 -0.0418 -0.4383
  101OSM    O1310161   0.821   1.350  10.796 -0.0075  0.1714 -0.2037
  101OSM    O1410162   0.986   1.163  10.787 -0.5401  0.0845 -0.3235
  101OSM    O1110163   0.877   1.244  10.575 -0.6051 -0.0465  0.3427
  101OSM    O1210164   0.751   1.110  10.735 -0.5504 -0.1736 -0.7897
  101OSM    C1S10165   0.776   1.257  10.485  1.1410 -0.6539 -0.0882
  101OSM    H1S10166   0.697   1.325  10.525  0.6977 -0.7506 -0.7794
  101OSM    H1T10167   0.725   1.161  10.461 -2.8402  1.3100 -0.0157
  101OSM     NF10168   0.725   1.349  10.260  0.3385 -0.2124 -0.2427
  101OSM    HNF10169   0.700   1.275  10.198 -2.1014  2.2998 -2.4030
  101OSM    C2S10170   0.830   1.311  10.356  0.0676  0.3576  0.9157
  101OSM    H2S10171   0.878   1.410  10.374  0.1929  0.1991  1.4480
  101OSM    C3S10172   0.938   1.213  10.304  0.7466 -0.5135  0.4075
  101OSM    H3S10173   0.887   1.117  10.283  2.2680 -1.0661 -0.7871
  101OSM     O310174   1.045   1.176  10.404  0.5085 -0.0732  0.0232
  101OSM    HO310175   0.999   1.198  10.485 -2.2101 -0.9785 -1.2388
  101OSM    C4S10176   1.003   1.265  10.176  0.1227  0.7772  0.2730
  101OSM    H4S10177   0.948   1.224  10.090  1.0741 -0.3292  0.1899
  101OSM    C5S10178   1.105   1.352  10.162  0.9178  0.2057  0.4271
  101OSM    H5S10179   1.144   1.381  10.260  2.0521 -0.6624  0.2509
  101OSM    C6S10180   1.171   1.393  10.037 -0.6071 -0.0517 -0.1077
  101OSM    H6S10181   1.267   1.341  10.019 -0.1511 -0.0719  2.1838
  101OSM    H6T10182   1.205   1.497  10.056 -0.0138 -0.2686  0.0210
  101OSM    C7S10183   1.083   1.386   9.913  0.1875  0.1559  0.4779
  101OSM    H7S10184   0.989   1.443   9.924 -1.0141 -1.3587 -1.7698
  101OSM    H7T10185   1.048   1.281   9.902  0.7319  0.0020  0.1819
  101OSM    C8S10186   1.150   1.437   9.789 -0.4663 -0.3377  0.4595
  101OSM    H8S10187   1.236   1.369   9.772 -0.3355 -0.1225  0.2577
  101OSM    H8T10188   1.184   1.543   9.797  1.4051 -0.8230 -0.8587
  101OSM    C9S10189   1.077   1.417   9.660  0.2546 -0.5062  0.8367
  101OSM    H9S10190   0.994   1.491   9.657  0.4849 -0.2920 -0.3699
  101OSM    H9T10191   1.038   1.312   9.660 -0.6886 -0.1660  1.4539
  101OSM   C10S10192   1.151   1.436   9.524 -0.5740  0.0724  0.4395
  101OSM   H10S10193   1.251   1.389   9.534 -0.2677  0.8108  0.9209
  101OSM   H10T10194   1.156   1.545   9.504 -0.1906  0.1218  0.7986
  101OSM   C11S10195   1.070   1.375   9.407  0.0427  0.5411 -0.0480
  101OSM   H11S10196   0.966   1.412   9.401 -0.3678 -0.2719  1.7154
  101OSM   H11T10197   1.055   1.266   9.417 -1.2869  0.8694  1.6717
  101OSM   C12S10198   1.131   1.404   9.269 -0.0039 -0.4171 -0.8695
  101OSM   H12S10199   1.224   1.464   9.277  0.6437 -1.4892 -0.1944
  101OSM   H12T10200   1.053   1.456   9.210 -0.0060 -2.4209 -2.7034
  101OSM   C13S10201   1.171   1.268   9.199  0.0891  0.5462 -0.6994
  101OSM   H13S10202   1.086   1.197   9.197  0.0544  0.5988 -1.1374
  101OSM   H13T10203   1.246   1.219   9.264  2.4276  1.7363 -2.4139
  101OSM   C14S10204   1.216   1.296   9.051 -0.6076  0.1054 -0.2947
  101OSM   H14S10205   1.270   1.392   9.038  1.7103 -1.1516 -0.1012
  101OSM   H14T10206   1.119   1.298   8.996 -1.0452 -0.0963  0.4518
  101OSM   C15S10207   1.295   1.178   8.992  0.2977 -0.0825  0.2452
  101OSM   H15S10208   1.233   1.091   9.020 -1.0424  0.3097 -1.4182
  101OSM   H15T10209   1.395   1.175   9.040  0.5024  1.9910  0.0138
  101OSM   C16S10210   1.326   1.179   8.840 -0.1639 -0.4055 -0.1377
  101OSM   H16S10211   1.231   1.202   8.787  0.7652  1.6967 -0.9645
  101OSM   H16T10212   1.350   1.084   8.788 -0.6165  0.2303 -1.5415
  101OSM   C17S10213   1.442   1.269   8.795 -0.1623  0.1549 -0.1082
  101OSM   H17S10214   1.435   1.371   8.839  2.1721 -0.5691  2.0359
  101OSM   H17T10215   1.445   1.287   8.686 -0.7142  3.0797  0.2951
  101OSM   C18S10216   1.580   1.202   8.830 -0.1843 -0.2609 -0.6725
  101OSM   H18S10217   1.570   1.096   8.798  1.3639 -0.9765  1.1703
  101OSM   H18T10218   1.586   1.186   8.939  2.6249  1.7689 -0.4901
  101OSM   H18U10219   1.659   1.266   8.786 -1.2427  0.9783 -0.7965
  101OSM    C1F10220   0.644   1.453  10.294 -0.3690  0.2281  0.4822
  101OSM     OF10221   0.657   1.525  10.392 -0.1209 -0.5134 -0.3264
  101OSM    C2F10222   0.515   1.468  10.220  0.0148 -0.3756  0.3825
  101OSM    H2F10223   0.435   1.427  10.285 -0.3989  0.6769  0.5563
  101OSM    H2G10224   0.523   1.400  10.133 -0.5752  0.3186 -0.2168
  101OSM    C3F10225   0.486   1.614  10.177  0.1825 -0.3478  0.3530
  101OSM    H3F10226   0.577   1.657  10.130  0.2398 -0.7511  0.0898
  101OSM    H3G10227   0.479   1.686  10.262 -1.7121 -0.1006  0.0102
  101OSM    C4F10228   0.358   1.632  10.097 -0.2606 -0.0692 -0.2455
  101OSM    H4F10229   0.324   1.736  10.076  0.3560  0.4544  1.2415
  101OSM    H4G10230   0.275   1.590  10.158  0.9224 -1.0522  0.7247
  101OSM    C5F10231   0.374   1.548   9.966 -0.1645 -0.4004 -0.4981
  101OSM    H5F10232   0.369   1.443  10.003 -2.2209  0.2760  1.2568
  101OSM    H5G10233   0.477   1.561   9.926 -1.5812  0.2561 -4.1654
  101OSM    C6F10234   0.263   1.554   9.863 -0.9009  0.1958 -0.3025
  101OSM    H6F10235   0.283   1.644   9.800 -0.3012  0.5368  0.3683
  101OSM    H6G10236   0.173   1.582   9.922 -1.5461  0.1902 -1.2706
  101OSM    C7F10237   0.255   1.439   9.767  0.5105  0.3078  0.6002
  101OSM    H7F10238   0.234   1.344   9.821  2.0618 -1.3535 -1.6100
  101OSM    H7G10239   0.341   1.426   9.698 -1.4621 -0.8206 -1.7396
  101OSM    C8F10240   0.139   1.459   9.663 -0.6209  0.1803 -0.5335
  101OSM    H8F10241   0.112   1.355   9.636  2.6307 -1.1673  1.0025
  101OSM    H8G10242   0.172   1.507   9.568  1.1136 -0.9596 -0.5436
  101OSM    C9F10243   0.013   1.526   9.721  0.4736  0.1756 -0.1770
  101OSM    H9F10244  -0.043   1.464   9.793  2.0729 -0.1636  0.7951
  101OSM   C10F10245  -0.041   1.642   9.692  0.2554 -0.0236 -0.1306
  101OSM   H10F10246  -0.130   1.686   9.740  0.7520  1.1167 -0.2203
  101OSM   C11F10247   0.009   1.740   9.590  0.4233  0.6337 -0.0702
  101OSM   H11F10248   0.117   1.718   9.576  0.4498  1.8211 -1.9421
  101OSM   H11G10249  -0.010   1.842   9.629 -0.7244  1.5139 -2.8039
  101OSM   C12F10250  -0.078   1.747   9.463  0.3496 -0.4744  0.1017
  101OSM   H12F10251  -0.043   1.829   9.396 -2.1824 -0.4392 -1.2380
  101OSM   H12G10252  -0.184   1.767   9.489 -0.3967 -0.1579 -2.9515
  101OSM   C13F10253  -0.074   1.612   9.382 -0.0200 -0.1854  0.4328
  101OSM   H13F10254  -0.133   1.537   9.439  0.6836 -2.1018 -1.2744
  101OSM   H13G10255   0.032   1.576   9.377  0.3181  0.9830 -1.0080
  101OSM   C14F10256  -0.134   1.624   9.244  0.0715 -0.0542  0.0282
  101OSM   H14F10257  -0.083   1.694   9.174  0.6694  1.0347  1.5243
  101OSM   H14G10258  -0.241   1.649   9.257  0.0045  0.2079 -0.9565
  101OSM   C15F10259  -0.131   1.489   9.168  0.2019  0.4615  0.0151
  101OSM   H15F10260  -0.205   1.421   9.214  2.8991 -1.2967  1.9185
  101OSM   H15G10261  -0.029   1.445   9.167 -1.2052 -2.9782 -0.3864
  101OSM   C16F10262  -0.176   1.487   9.017 -0.0600 -0.5626 -0.0764
  101OSM   H16F10263  -0.260   1.557   9.000 -1.1347 -1.4868  1.3888
  101OSM   H16G10264  -0.231   1.395   8.988  1.2597 -2.1982  2.4138
  101OSM   C17F10265  -0.061   1.504   8.911 -0.1562  0.4657 -0.1074
  101OSM   H17F10266   0.033   1.452   8.941 -0.9075 -1.3881 -0.9137
  101OSM   H17G10267  -0.024   1.609   8.916  2.6092 -0.5472  2.3544
  101OSM   C18F10268  -0.097   1.449   8.776  0.2830  0.7377  0.2072
  101OSM   H18F10269  -0.007   1.443   8.711  1.3410  0.6187  1.6282
  101OSM   H18G10270  -0.183   1.508   8.739 -0.4143  2.1098  3.7370
  101OSM   H18H10271  -0.122   1.342   8.787  3.4731  0.0601  1.6569
  102OSM      N10272   0.627   0.198  10.760 -0.7927  0.5512 -0.2984
  102OSM    C1510273   0.626   0.101  10.880 -0.2549 -0.3680 -0.4934
  102OSM   H15A10274   0.615   0.152  10.975 -0.1483 -2.3490  0.6102
  102OSM   H15B10275   0.720   0.049  10.892  0.7788  1.8269  1.2972
  102OSM   H15C10276   0.549   0.026  10.867 -0.1646 -0.4674 -0.4545
  102OSM    C1410277   0.733   0.297  10.779  0.1596  0.2737 -0.2492
  102OSM   H14A10278   0.829   0.249  10.788 -0.6950 -1.6189 -0.9898
  102OSM   H14B10279   0.712   0.354  10.869  1.2292 -1.2518  1.0008
  102OSM   H14C10280   0.735   0.369  10.699 -1.4701  0.5834 -0.0247
  102OSM    C1310281   0.668   0.094  10.648 -0.0447  0.1884  0.0844
  102OSM   H13A10282   0.596   0.013  10.640 -0.5237  0.6723 -0.5499
  102OSM   H13B10283   0.764   0.049  10.669 -0.1415  0.3121  0.7871
  102OSM   H13C10284   0.677   0.136  10.549  1.7731 -1.2723 -0.4117
  102OSM    C1210285   0.500   0.258  10.727  0.0140 -0.1536  0.1296
  102OSM   H12A10286   0.456   0.283  10.822 -0.6085  1.0712 -0.4740
  102OSM   H12B10287   0.434   0.179  10.695  1.7716 -1.5057 -0.2310
  102OSM    C1110288   0.496   0.380  10.637  0.0687 -0.0459 -0.1195
  102OSM   H11A10289   0.398   0.379  10.585 -0.5630  0.7580  1.0194
  102OSM   H11B10290   0.584   0.382  10.570 -0.5967  1.4307 -0.9646
  102OSM      P10291   0.586   0.616  10.671  0.0521 -0.2954 -0.0226
  102OSM    O1310292   0.533   0.737  10.734 -0.3799  0.1270  0.2643
  102OSM    O1410293   0.730   0.588  10.679 -0.3134  0.5724 -0.2320
  102OSM    O1110294   0.543   0.623  10.516 -0.7226 -0.4722 -0.1507
  102OSM    O1210295   0.504   0.488  10.729  0.4177  0.5759  0.0315
  102OSM    C1S10296   0.410   0.671  10.490 -0.2367 -0.1392  0.0077
  102OSM    H1S10297   0.406   0.779  10.516  0.7586  0.2494 -1.4414
  102OSM    H1T10298   0.333   0.616  10.550  3.3815 -2.7524  2.4436
  102OSM     NF10299   0.257   0.739  10.311 -0.1570 -0.5546 -0.6109
  102OSM    HNF10300   0.166   0.703  10.294 -0.3293  0.3750 -1.7178
  102OSM    C2S10301   0.371   0.658  10.343 -0.2981 -0.5007  0.5652
  102OSM    H2S10302   0.447   0.707  10.279  0.1353 -0.2033  1.2976
  102OSM    C3S10303   0.361   0.508  10.292  0.4794  0.0358  0.1606
  102OSM    H3S10304   0.282   0.461  10.355 -0.3751  2.7745  1.1834
  102OSM     O310305   0.480   0.438  10.322 -0.5284 -0.1672 -0.0014
  102OSM    HO310306   0.538   0.484  10.383  0.4461  0.3882 -1.3193
  102OSM    C4S10307   0.330   0.499  10.147 -0.0462  0.6369 -0.1586
  102OSM    H4S10308   0.226   0.464  10.133 -0.4822  1.4005  1.0535
  102OSM    C5S10309   0.416   0.507  10.040 -0.0589 -0.3330  0.4232
  102OSM    H5S10310   0.521   0.518  10.070 -0.2783 -1.0906  1.5197
  102OSM    C6S10311   0.384   0.511   9.887 -0.8879  0.8808 -0.5320
  102OSM    H6S10312   0.359   0.407   9.859 -1.3325  0.8759 -0.1281
  102OSM    H6T10313   0.477   0.525   9.829 -1.2058 -2.2692 -1.9155
  102OSM    C7S10314   0.265   0.597   9.837 -0.6164 -0.6617  0.3615
  102OSM    H7S10315   0.288   0.702   9.867 -2.3686 -0.8017  2.3076
  102OSM    H7T10316   0.174   0.556   9.886 -1.5481  1.6870  0.6864
  102OSM    C8S10317   0.240   0.589   9.688  0.0473  0.6341 -0.4381
  102OSM    H8S10318   0.327   0.623   9.628  0.9476 -3.1501 -1.3905
  102OSM    H8T10319   0.163   0.666   9.668  0.4667  1.1935  0.0668
  102OSM    C9S10320   0.183   0.456   9.637 -0.1763 -0.1191  0.5014
  102OSM    H9S10321   0.100   0.427   9.705  0.3426 -0.1241  1.1328
  102OSM    H9T10322   0.270   0.386   9.640 -0.7056 -0.9756 -2.6305
  102OSM   C10S10323   0.146   0.468   9.488  0.1805  0.1178 -0.5145
  102OSM   H10S10324   0.061   0.539   9.476  0.6850  0.9108  0.6347
  102OSM   H10T10325   0.128   0.367   9.444 -0.3202  0.1303 -0.3364
  102OSM   C11S10326   0.261   0.532   9.399 -0.4534 -0.4610 -0.2366
  102OSM   H11S10327   0.356   0.475   9.406  0.8173  1.8781  2.6485
  102OSM   H11T10328   0.288   0.635   9.431  0.9400 -0.2913 -1.8937
  102OSM   C12S10329   0.222   0.541   9.250 -0.6410 -0.5191 -0.3161
  102OSM   H12S10330   0.142   0.618   9.258 -2.3101 -2.2233 -0.4656
  102OSM   H12T10331   0.199   0.439   9.214  2.5108 -1.6942  0.7723
  102OSM   C13S10332   0.325   0.605   9.151  0.7698  0.4102 -0.6079
  102OSM   H13S10333   0.430   0.582   9.179 -0.1197 -2.3838  0.6087
  102OSM   H13T10334   0.317   0.713   9.174 -0.8127 -0.0972  1.3301
  102OSM   C14S10335   0.285   0.571   9.008 -0.0803 -0.6279 -0.5618
  102OSM   H14S10336   0.227   0.476   9.001  0.0737 -0.7438 -0.2816
  102OSM   H14T10337   0.378   0.542   8.956  1.2835  3.8505 -0.8206
  102OSM   C15S10338   0.205   0.680   8.943 -0.6192  0.1673 -0.4516
  102OSM   H15S10339   0.278   0.763   8.927 -2.1649  1.2081 -2.3018
  102OSM   H15T10340   0.131   0.721   9.015 -0.1343  0.9217 -0.3795
  102OSM   C16S10341   0.152   0.639   8.805  0.4987 -0.2234 -0.1948
  102OSM   H16S10342   0.078   0.717   8.775 -0.1171  0.3542  2.7133
  102OSM   H16T10343   0.101   0.541   8.811  0.0437  0.0604  0.6261
  102OSM   C17S10344   0.267   0.620   8.703 -0.6990  0.1755 -0.0726
  102OSM   H17S10345   0.354   0.561   8.740 -0.1408  2.1148  1.8396
  102OSM   H17T10346   0.313   0.720   8.689 -0.6800  0.2153  0.2622
  102OSM   C18S10347   0.218   0.560   8.566  0.4215  0.3791  0.4350
  102OSM   H18S10348   0.125   0.613   8.536  0.6813  0.6208  0.0562
  102OSM   H18T10349   0.186   0.454   8.579  0.6589  0.2176 -0.2848
  102OSM   H18U10350   0.296   0.574   8.488  0.0448 -0.0814 -0.0309
  102OSM    C1F10351   0.266   0.873  10.311 -0.0056  0.3420  0.2611
  102OSM     OF10352   0.373   0.921  10.322 -0.5761 -0.1623 -0.4735
  102OSM    C2F10353   0.142   0.956  10.293  0.4756  0.6988  0.0788
  102OSM    H2F10354   0.107   1.002  10.388  0.3344  0.4113  0.1678
  102OSM    H2G10355   0.057   0.888  10.267  0.9280  1.4848 -3.7339
  102OSM    C3F10356   0.148   1.070  10.187  0.3020  0.5826  0.8270
  102OSM    H3F10357   0.202   1.161  10.219  5.5756 -0.9671 -3.0218
  102OSM    H3G10358   0.048   1.116  10.169 -0.0340 -0.4549 -0.0580
  102OSM    C4F10359   0.210   1.018  10.050 -0.0525  0.2259  0.5358
  102OSM    H4F10360   0.181   0.911  10.038 -0.4144  0.2644  1.0529
  102OSM    H4G10361   0.321   1.019  10.054  0.0934 -0.0685 -2.5117
  102OSM    C5F10362   0.148   1.089   9.924  0.0983  0.7725 -0.3370
  102OSM    H5F10363   0.155   1.198   9.943  0.3490  0.3524  2.2249
  102OSM    H5G10364   0.044   1.052   9.924  0.5325 -0.5127 -1.3668
  102OSM    C6F10365   0.232   1.059   9.797  0.1305  0.1539 -0.0836
  102OSM    H6F10366   0.322   1.000   9.826  0.1380  0.7061  1.0804
  102OSM    H6G10367   0.267   1.159   9.763 -0.3926  1.4720  3.0176
  102OSM    C7F10368   0.144   1.001   9.694 -0.1481  0.1714 -0.3628
  102OSM    H7F10369   0.075   1.081   9.660  0.2606  0.8777  0.4595
  102OSM    H7G10370   0.087   0.917   9.740 -0.1972  1.8442  2.7761
  102OSM    C8F10371   0.235   0.944   9.581 -0.1644  0.2231 -0.4558
  102OSM    H8F10372   0.275   0.847   9.616 -1.1255  0.2978  0.9236
  102OSM    H8G10373   0.311   1.024   9.567 -1.0878  1.0577 -0.7602
  102OSM    C9F10374   0.146   0.936   9.463 -0.3272  0.0640 -0.2097
  102OSM    H9F10375   0.046   0.891   9.476 -0.4529 -0.0449 -1.5518
  102OSM   C10F10376   0.159   1.001   9.344  0.1987  0.0461 -0.0204
  102OSM   H10F10377   0.086   0.977   9.265 -0.3811 -0.0233  0.5331
  102OSM   C11F10378   0.273   1.095   9.318 -0.2648  0.4458  0.1889
  102OSM   H11F10379   0.370   1.047   9.340 -0.1087  0.3290 -0.7377
  102OSM   H11G10380   0.279   1.183   9.386 -1.8320 -0.3176  1.3334
  102OSM   C12F10381   0.254   1.149   9.175 -0.3173 -0.2348 -0.5219
  102OSM   H12F10382   0.327   1.233   9.169 -1.9791  1.3572  0.8683
  102OSM   H12G10383   0.162   1.207   9.151 -0.6840 -0.8165 -0.5189
  102OSM   C13F10384   0.297   1.050   9.066 -0.1664  0.2827  0.8509
  102OSM   H13F10385   0.240   0.955   9.078 -1.0166  0.5159 -1.1445
  102OSM   H13G10386   0.402   1.017   9.078 -0.4404 -0.2216  1.9057
  102OSM   C14F10387   0.290   1.103   8.923  0.4110  0.0358  0.2288
  102OSM   H14F10388   0.330   1.034   8.846  0.8155 -0.1500  0.6045
  102OSM   H14G10389   0.349   1.193   8.896  0.8044 -0.6923 -1.4077
  102OSM   C15F10390   0.150   1.145   8.876  0.1091 -0.5408 -0.3663
  102OSM   H15F10391   0.161   1.217   8.792  3.2660 -0.7788 -0.2088
  102OSM   H15G10392   0.098   1.202   8.955 -0.5150  1.7141 -2.3411
  102OSM   C16F10393   0.050   1.034   8.832 -0.4431  0.2140  0.6408
  102OSM   H16F10394   0.003   0.977   8.915  1.2493  0.5803  1.8504
  102OSM   H16G10395   0.109   0.964   8.768 -2.2813 -1.0181  0.2277
  102OSM   C17F10396  -0.063   1.091   8.738  0.4543  0.3247  0.5893
  102OSM   H17F10397  -0.023   1.178   8.681  0.9883  0.3416  0.9836
  102OSM   H17G10398  -0.142   1.110   8.814  1.1089 -2.3733  2.0112
  102OSM   C18F10399  -0.132   0.992   8.640 -0.4890  0.0424  0.4611
  102OSM   H18F10400  -0.209   1.044   8.579  0.0501  1.3346  0.8669
  102OSM   H18G10401  -0.187   0.909   8.690  2.1473 -0.7438  2.1372
  102OSM   H18H10402  -0.054   0.954   8.572  0.4478  1.4425  0.7328
  103OSM      N10403   2.602   2.590  11.002  0.0935 -0.3664  0.0757
  103OSM    C1510404   2.616   2.465  11.096 -0.6897  0.1319  0.0429
  103OSM   H15A10405   2.542   2.461  11.174 -1.8852  2.6666 -0.8796
  103OSM   H15B10406   2.707   2.485  11.151 -0.9450  1.3297  0.0502
  103OSM   H15C10407   2.630   2.378  11.034 -3.4987 -0.4215  0.1423
  103OSM    C1410408   2.604   2.719  11.085 -0.3210 -0.8386  0.1134
  103OSM   H14A10409   2.507   2.741  11.129  0.2675  0.2916  0.8705
  103OSM   H14B10410   2.618   2.798  11.014 -1.3990  1.4823  2.4044
  103OSM   H14C10411   2.681   2.720  11.161 -1.2160 -0.5828  1.0276
  103OSM    C1310412   2.723   2.585  10.903 -0.1748 -0.0952 -0.5155
  103OSM   H13A10413   2.817   2.604  10.953 -0.8004 -1.2224  1.1635
  103OSM   H13B10414   2.713   2.658  10.824 -1.5452  1.1760  0.7844
  103OSM   H13C10415   2.732   2.488  10.858 -1.1208  0.7538 -2.5807
  103OSM    C1210416   2.481   2.581  10.920 -0.3385  0.9127 -0.5995
  103OSM   H12A10417   2.391   2.589  10.979 -0.3932  0.8336 -0.6716
  103OSM   H12B10418   2.489   2.484  10.873 -0.1667  1.7266 -2.2800
  103OSM    C1110419   2.461   2.677  10.796  0.4604  0.4296 -0.0979
  103OSM   H11A10420   2.379   2.643  10.730  1.7024 -1.7398 -0.5932
  103OSM   H11B10421   2.549   2.671  10.729 -1.3324  0.2992 -2.4939
  103OSM      P10422   2.289   2.853  10.859  0.1293  0.2788 -0.0785
  103OSM    O1310423   2.211   2.767  10.954 -0.1559 -0.2688  0.2222
  103OSM    O1410424   2.282   2.993  10.902  0.0595 -0.2945  0.3149
  103OSM    O1110425   2.233   2.843  10.718  0.0501  0.1564  0.0369
  103OSM    O1210426   2.437   2.812  10.846 -0.5188 -0.0562 -0.0341
  103OSM    C1S10427   2.101   2.878  10.690  0.4339 -0.4200  0.3382
  103OSM    H1S10428   2.079   2.975  10.740 -0.8364 -0.7068  0.3574
  103OSM    H1T10429   2.030   2.810  10.741 -0.3429 -0.0901 -0.2877
  103OSM     NF10430   1.941   2.961  10.516  0.0056 -0.5951  0.7060
  103OSM    HNF10431   1.859   2.917  10.481  0.2678 -0.5602  0.0444
  103OSM    C2S10432   2.062   2.883  10.534 -0.1924  0.2064 -0.5144
  103OSM    H2S10433   2.144   2.940  10.485  0.3907 -0.3922 -0.2412
  103OSM    C3S10434   2.055   2.738  10.476  0.2228  0.1108 -0.4444
  103OSM    H3S10435   1.969   2.694  10.531  0.2445  0.4381 -0.1437
  103OSM     O310436   2.170   2.660  10.521 -0.1164  0.1390  0.3642
  103OSM    HO310437   2.214   2.714  10.588 -2.1022 -0.3720  2.1046
  103OSM    C4S10438   2.018   2.745  10.333  0.0211 -0.1506  0.3452
  103OSM    H4S10439   1.912   2.721  10.316  0.8841 -1.7910 -3.2004
  103OSM    C5S10440   2.097   2.768  10.225 -0.6153  0.0735  0.0409
  103OSM    H5S10441   2.206   2.775  10.240 -0.1768 -0.7523 -2.5226
  103OSM    C6S10442   2.058   2.766  10.081 -0.8062  1.3804 -0.2447
  103OSM    H6S10443   2.093   2.848  10.014 -3.3014  0.5300 -2.7089
  103OSM    H6T10444   1.947   2.778  10.076 -1.0827 -1.1519 -0.6953
  103OSM    C7S10445   2.088   2.619  10.024  0.1653  0.0367  0.1409
  103OSM    H7S10446   2.015   2.551  10.072  2.5634 -3.0627 -0.4040
  103OSM    H7T10447   2.194   2.602  10.053  0.6745  1.8948 -0.5600
  103OSM    C8S10448   2.070   2.605   9.869 -0.0902  0.2566 -0.4553
  103OSM    H8S10449   1.969   2.638   9.835  0.8965  1.8574 -1.8903
  103OSM    H8T10450   2.086   2.497   9.847 -2.8547 -0.7302  1.9485
  103OSM    C9S10451   2.172   2.685   9.787  0.6441  0.3194  0.2881
  103OSM    H9S10452   2.276   2.670   9.822  0.1185  1.3774  2.3636
  103OSM    H9T10453   2.165   2.795   9.803 -0.8169  0.2686  0.1059
  103OSM   C10S10454   2.154   2.658   9.640 -0.6306 -0.0779 -0.4680
  103OSM   H10S10455   2.053   2.691   9.609 -0.1455 -1.6399 -3.9925
  103OSM   H10T10456   2.171   2.550   9.620  1.4793  0.1626 -0.1607
  103OSM   C11S10457   2.252   2.751   9.572 -0.6344 -0.1444 -0.1605
  103OSM   H11S10458   2.355   2.742   9.615 -0.4640 -0.9200 -0.7321
  103OSM   H11T10459   2.221   2.856   9.591  0.8890  0.0460  1.3987
  103OSM   C12S10460   2.276   2.732   9.416 -0.7000  0.3251  0.2181
  103OSM   H12S10461   2.186   2.766   9.360  0.8180  2.4826 -1.0115
  103OSM   H12T10462   2.279   2.622   9.399  1.8122  0.3805 -0.0095
  103OSM   C13S10463   2.405   2.796   9.359 -0.4214  0.0246 -0.7254
  103OSM   H13S10464   2.482   2.719   9.380 -0.8564  0.2476  1.8528
  103OSM   H13T10465   2.434   2.886   9.417 -1.1443 -0.5864  0.5995
  103OSM   C14S10466   2.406   2.846   9.226 -0.1051 -0.2402  0.3534
  103OSM   H14S10467   2.336   2.931   9.215 -0.2094 -0.3982 -0.2301
  103OSM   H14T10468   2.377   2.773   9.147  0.8298  0.8241 -1.0178
  103OSM   C15S10469   2.548   2.903   9.182  0.0268 -0.1487  0.2825
  103OSM   H15S10470   2.625   2.833   9.220  1.3287  1.3890  0.5301
  103OSM   H15T10471   2.552   3.007   9.222 -3.0663 -0.3450  1.2382
  103OSM   C16S10472   2.557   2.919   9.030 -0.6116 -0.0232  0.1860
  103OSM   H16S10473   2.651   2.972   9.006 -1.0383  0.5023 -0.3363
  103OSM   H16T10474   2.473   2.986   9.002  0.7315  1.6429  0.1219
  103OSM   C17S10475   2.548   2.803   8.935  0.7385  0.4526  0.7871
  103OSM   H17S10476   2.531   2.842   8.833 -1.0695 -0.1061  0.8631
  103OSM   H17T10477   2.461   2.737   8.957 -0.2979  0.8185 -2.0721
  103OSM   C18S10478   2.662   2.701   8.947 -0.2421  0.2310  1.0288
  103OSM   H18S10479   2.654   2.647   9.044 -0.5173  0.6752  1.2526
  103OSM   H18T10480   2.763   2.747   8.949 -0.7152  1.4713 -2.2186
  103OSM   H18U10481   2.670   2.634   8.859 -0.8821  0.8049  0.5365
  103OSM    C1F10482   1.938   3.096  10.545  0.4120 -0.1031  0.9627
  103OSM     OF10483   2.036   3.151  10.594  0.2375  0.8034  0.4611
  103OSM    C2F10484   1.811   3.173  10.506  0.1197  0.5414 -0.0025
  103OSM    H2F10485   1.759   3.195  10.602 -1.6519  0.0904 -0.8424
  103OSM    H2G10486   1.743   3.093  10.472  0.9277 -0.7635  1.4011
  103OSM    C3F10487   1.828   3.305  10.426 -0.1323 -0.5861  0.2542
  103OSM    H3F10488   1.899   3.283  10.343 -1.0093 -1.4063 -0.2857
  103OSM    H3G10489   1.872   3.385  10.489 -0.2179 -1.2740  1.2022
  103OSM    C4F10490   1.698   3.368  10.369  0.9462 -0.0391 -0.3106
  103OSM    H4F10491   1.697   3.479  10.379  0.5097 -0.2895  2.9597
  103OSM    H4G10492   1.621   3.331  10.440  1.2294 -0.7248 -0.3580
  103OSM    C5F10493   1.643   3.314  10.233  0.0658 -1.0834  0.0928
  103OSM    H5F10494   1.548   3.369  10.215 -0.2570 -1.5126  0.4759
  103OSM    H5G10495   1.622   3.205  10.228 -0.9089 -0.9863  1.7207
  103OSM    C6F10496   1.734   3.347  10.116 -0.1489  0.1877 -0.3921
  103OSM    H6F10497   1.835   3.312  10.147 -0.2977 -1.2312 -1.4382
  103OSM    H6G10498   1.731   3.457  10.100 -0.1935  0.3805  0.9036
  103OSM    C7F10499   1.696   3.272   9.985  0.3264 -0.5276 -0.7051
  103OSM    H7F10500   1.606   3.328   9.954  1.7888  2.5983  0.4864
  103OSM    H7G10501   1.665   3.171  10.020  1.1110 -0.3581  0.5205
  103OSM    C8F10502   1.801   3.265   9.872 -0.0264 -0.1071  0.4429
  103OSM    H8F10503   1.842   3.365   9.847  2.3264 -1.2032 -0.2601
  103OSM    H8G10504   1.745   3.216   9.789  0.9355 -0.6427  0.0963
  103OSM    C9F10505   1.921   3.183   9.911  0.1823 -0.0558  0.0278
  103OSM    H9F10506   1.990   3.224   9.986 -1.4556  0.1197  1.4666
  103OSM   C10F10507   1.942   3.058   9.870 -0.6243 -0.5415  0.5228
  103OSM   H10F10508   2.035   3.006   9.899 -0.1228 -0.2188 -0.4507
  103OSM   C11F10509   1.865   2.983   9.761 -0.2949  0.6101 -0.2376
  103OSM   H11F10510   1.755   2.985   9.775 -0.4748 -2.5231 -1.0275
  103OSM   H11G10511   1.893   2.876   9.759  0.7253  0.8751 -0.6382
  103OSM   C12F10512   1.906   3.037   9.627 -0.1953 -0.5086 -0.2433
  103OSM   H12F10513   2.017   3.047   9.630 -0.0518  0.2947 -4.8510
  103OSM   H12G10514   1.875   3.142   9.608  1.8751 -0.0502 -1.2157
  103OSM   C13F10515   1.859   2.949   9.515  0.1906  0.3779  0.3554
  103OSM   H13F10516   1.897   2.845   9.518 -2.3614 -0.6614 -1.6817
  103OSM   H13G10517   1.749   2.937   9.508  0.2888  0.4214 -1.6270
  103OSM   C14F10518   1.916   3.001   9.376  0.3078  0.2639  0.4408
  103OSM   H14F10519   2.026   3.013   9.381  0.5412 -1.4083 -0.3966
  103OSM   H14G10520   1.868   3.095   9.342  1.2297 -0.1353 -2.0994
  103OSM   C15F10521   1.878   2.910   9.257 -0.4548  0.1619  0.3388
  103OSM   H15F10522   1.768   2.907   9.271 -0.0732  0.0161  3.7073
  103OSM   H15G10523   1.911   2.804   9.258 -0.2935  0.2097  0.2182
  103OSM   C16F10524   1.923   2.962   9.119  0.1269  0.1922 -0.9266
  103OSM   H16F10525   1.872   3.059   9.099 -1.8063 -0.5062  0.4586
  103OSM   H16G10526   1.881   2.893   9.044 -1.4618 -0.6366  0.6722
  103OSM   C17F10527   2.069   2.969   9.095  0.7066  0.5061  0.4591
  103OSM   H17F10528   2.119   2.870   9.105 -0.1714  0.0605  0.5108
  103OSM   H17G10529   2.119   3.021   9.180  1.1735 -0.0898  0.5487
  103OSM   C18F10530   2.110   3.037   8.965  0.3246  0.1492 -0.7031
  103OSM   H18F10531   2.103   3.147   8.973  2.0324  0.3445 -1.6008
  103OSM   H18G10532   2.043   2.995   8.886  0.2264 -0.9951 -0.0165
  103OSM   H18H10533   2.217   3.018   8.941  0.0912 -2.7638  0.3797
  104OSM      N10534   5.018   2.607  10.768  0.0932  0.6770 -0.6215
  104OSM    C1510535   4.888   2.630  10.696 -0.0131  0.1829 -0.3012
  104OSM   H15A10536   4.869   2.560  10.616 -1.4137  0.6764 -0.4233
  104OSM   H15B10537   4.873   2.735  10.674 -2.0886  0.0426  0.3379
  104OSM   H15C10538   4.811   2.616  10.770  2.3019  0.8303  2.3257
  104OSM    C1410539   5.012   2.700  10.885  0.4198  0.6777 -0.0043
  104OSM   H14A10540   5.007   2.802  10.849  2.6558  1.1557  0.9465
  104OSM   H14B10541   5.107   2.689  10.935  1.2557  1.3312 -1.4037
  104OSM   H14C10542   4.932   2.677  10.953 -0.0336  1.5155 -0.2541
  104OSM    C1310543   5.023   2.471  10.828 -0.4022  0.8007  0.2800
  104OSM   H13A10544   5.030   2.391  10.755  3.6132 -0.4037  1.8329
  104OSM   H13B10545   4.934   2.456  10.888  0.0970 -0.7066  0.6764
  104OSM   H13C10546   5.107   2.457  10.894 -1.7742 -0.9075  1.7199
  104OSM    C1210547   5.130   2.643  10.670 -0.0182 -0.2370 -0.7357
  104OSM   H12A10548   5.122   2.586  10.579  1.8676 -0.8966 -0.5227
  104OSM   H12B10549   5.226   2.623  10.715 -1.0084  0.1303  1.6116
  104OSM    C1110550   5.128   2.791  10.616  0.1052  0.2905  0.1157
  104OSM   H11A10551   5.024   2.821  10.589 -0.3037  1.1435  2.5492
  104OSM   H11B10552   5.196   2.796  10.528 -1.9055 -0.8130 -1.5559
  104OSM      P10553   5.187   3.036  10.689  0.2333 -0.0952  0.3507
  104OSM    O1310554   5.061   3.115  10.691  0.0990  0.0891 -1.0881
  104OSM    O1410555   5.297   3.073  10.772 -0.0987  0.0854  0.2594
  104OSM    O1110556   5.238   3.027  10.536 -0.0066 -0.2395  0.1809
  104OSM    O1210557   5.153   2.884  10.719  0.2956 -0.4567 -0.2540
  104OSM    C1S10558   5.349   3.119  10.503  0.4695 -0.7024  0.3217
  104OSM    H1S10559   5.439   3.062  10.537  0.8207  0.5770  1.6240
  104OSM    H1T10560   5.361   3.219  10.550 -0.8211  0.0436 -0.9129
  104OSM     NF10561   5.490   3.196  10.321  0.3714  0.1297 -1.1432
  104OSM    HNF10562   5.497   3.294  10.310 -2.5789  0.7558  1.9227
  104OSM    C2S10563   5.359   3.146  10.346 -0.2985 -0.0951  0.1485
  104OSM    H2S10564   5.361   3.048  10.294 -1.5108  0.4164 -0.8929
  104OSM    C3S10565   5.242   3.235  10.301 -0.2672 -0.1399 -0.2923
  104OSM    H3S10566   5.261   3.336  10.345 -2.7798 -0.2214  1.1193
  104OSM     O310567   5.108   3.202  10.343 -0.3323 -0.5701 -0.4484
  104OSM    HO310568   5.117   3.142  10.417  1.7580 -0.5473 -0.6503
  104OSM    C4S10569   5.252   3.255  10.157 -0.0244 -0.3023  0.0548
  104OSM    H4S10570   5.307   3.347  10.134 -0.4683  0.4675  1.9797
  104OSM    C5S10571   5.194   3.178  10.059 -0.1889 -0.1733  0.8364
  104OSM    H5S10572   5.130   3.095  10.092  1.0120 -0.6062  2.1571
  104OSM    C6S10573   5.202   3.199   9.908  0.2818  0.3068 -0.1460
  104OSM    H6S10574   5.096   3.191   9.875  0.3704 -1.4205 -0.0541
  104OSM    H6T10575   5.273   3.128   9.860  1.7474  2.0056 -0.5349
  104OSM    C7S10576   5.249   3.341   9.868 -0.5408 -0.0127 -0.4290
  104OSM    H7S10577   5.352   3.358   9.905 -0.3770 -2.3170  0.2682
  104OSM    H7T10578   5.186   3.417   9.918  1.7879  0.6437  1.6317
  104OSM    C8S10579   5.250   3.364   9.716  0.0590  0.4475  0.1347
  104OSM    H8S10580   5.277   3.466   9.680 -1.0346 -0.9681 -5.1446
  104OSM    H8T10581   5.150   3.346   9.671 -0.6231  1.0970  1.3699
  104OSM    C9S10582   5.360   3.273   9.649  0.1236  0.0001  0.2655
  104OSM    H9S10583   5.308   3.180   9.616  0.5957  0.0361 -0.5878
  104OSM    H9T10584   5.434   3.256   9.730  1.1430 -2.1742 -1.0648
  104OSM   C10S10585   5.432   3.343   9.528 -0.2861  0.0171  0.8405
  104OSM   H10S10586   5.497   3.258   9.497 -0.7331 -0.1607  0.3969
  104OSM   H10T10587   5.493   3.432   9.554  0.7110 -1.0120  2.1849
  104OSM   C11S10588   5.336   3.380   9.422 -0.2748  0.0132  0.2648
  104OSM   H11S10589   5.274   3.467   9.452  1.5534  0.7364  2.0305
  104OSM   H11T10590   5.279   3.289   9.394  1.1086 -0.6211 -0.5300
  104OSM   C12S10591   5.390   3.424   9.285 -0.3312  0.9584  0.1998
  104OSM   H12S10592   5.451   3.340   9.246  0.5524  2.4040 -1.6492
  104OSM   H12T10593   5.450   3.517   9.295  1.9291 -0.1671 -2.2476
  104OSM   C13S10594   5.272   3.446   9.192 -0.2659 -0.0346  0.5662
  104OSM   H13S10595   5.219   3.536   9.231 -1.4816  0.7471 -2.7701
  104OSM   H13T10596   5.205   3.357   9.196 -3.1800  2.1269  1.9357
  104OSM   C14S10597   5.323   3.479   9.056  0.1693 -0.1469 -1.2510
  104OSM   H14S10598   5.391   3.396   9.026  1.0745  1.2206 -3.0551
  104OSM   H14T10599   5.380   3.574   9.061  1.0058 -0.7117  0.2213
  104OSM   C15S10600   5.198   3.500   8.962  0.3442 -0.2669  0.1653
  104OSM   H15S10601   5.235   3.528   8.861  1.1934 -1.3940  0.1497
  104OSM   H15T10602   5.112   3.559   9.001 -0.8388 -2.2505  0.5999
  104OSM   C16S10603   5.136   3.360   8.943  0.3089 -0.0843 -0.3361
  104OSM   H16S10604   5.092   3.317   9.035 -1.2797  1.0790 -0.5370
  104OSM   H16T10605   5.217   3.292   8.908  0.5251  0.2342 -0.4612
  104OSM   C17S10606   5.017   3.373   8.840 -0.2129  0.9444  0.4237
  104OSM   H17S10607   5.047   3.415   8.742  1.0701 -1.9028 -0.4508
  104OSM   H17T10608   4.943   3.441   8.888  0.5584  1.4344  0.9355
  104OSM   C18S10609   4.944   3.235   8.803  0.0395 -0.1381  0.0381
  104OSM   H18S10610   4.855   3.246   8.737  1.0632  0.9325 -1.1994
  104OSM   H18T10611   4.909   3.191   8.899 -0.8554  0.6391  0.0727
  104OSM   H18U10612   5.023   3.178   8.749 -0.5632 -0.3877 -0.5875
  104OSM    C1F10613   5.600   3.121  10.326  0.4904 -0.3806 -0.3233
  104OSM     OF10614   5.592   2.999  10.330  0.1765  0.0453  0.2146
  104OSM    C2F10615   5.726   3.199  10.346  0.3488  0.2644  0.3621
  104OSM    H2F10616   5.747   3.192  10.455  0.2370  0.9608  0.4319
  104OSM    H2G10617   5.711   3.305  10.317  0.8743  0.1124 -0.4988
  104OSM    C3F10618   5.848   3.132  10.282  0.4141 -0.2475  0.3972
  104OSM    H3F10619   5.885   3.046  10.342  2.6209  0.8815  0.7031
  104OSM    H3G10620   5.929   3.208  10.283  0.2370  0.1101 -4.0041
  104OSM    C4F10621   5.834   3.086  10.136  0.4632 -0.3894  0.3954
  104OSM    H4F10622   5.761   3.005  10.119 -0.0325  0.4739 -1.7851
  104OSM    H4G10623   5.932   3.037  10.120 -0.6285 -2.2618 -0.7025
  104OSM    C5F10624   5.817   3.199  10.034 -0.3342 -0.5434  0.6069
  104OSM    H5F10625   5.906   3.265  10.029 -0.4191 -0.4567  0.1943
  104OSM    H5G10626   5.727   3.255  10.067  0.1713  0.0690  0.9668
  104OSM    C6F10627   5.790   3.140   9.894 -0.0811 -0.1189 -0.6468
  104OSM    H6F10628   5.696   3.081   9.899  0.0699 -0.4512 -1.6591
  104OSM    H6G10629   5.870   3.070   9.861  0.1900  1.2988 -3.1633
  104OSM    C7F10630   5.781   3.253   9.792 -0.7505 -0.1778  0.0324
  104OSM    H7F10631   5.883   3.280   9.756 -1.4093  1.5052 -0.6403
  104OSM    H7G10632   5.722   3.341   9.826 -1.2328 -0.6074  0.3260
  104OSM    C8F10633   5.721   3.208   9.661  0.7025  0.4197  0.5802
  104OSM    H8F10634   5.711   3.290   9.587 -1.1353 -0.0704  0.2782
  104OSM    H8G10635   5.622   3.165   9.687  2.2578 -1.4440  3.8134
  104OSM    C9F10636   5.788   3.098   9.578  0.4111 -0.3859  0.4531
  104OSM    H9F10637   5.797   3.008   9.641 -4.0420 -0.3204  1.3581
  104OSM   C10F10638   5.831   3.096   9.450 -0.5978  0.6615 -0.0145
  104OSM   H10F10639   5.879   3.009   9.403 -1.1739 -0.2947  1.1411
  104OSM   C11F10640   5.823   3.216   9.351  0.6322  0.7370  0.7179
  104OSM   H11F10641   5.924   3.257   9.329  0.6122  1.0962  1.2921
  104OSM   H11G10642   5.775   3.304   9.399 -1.3788  1.1083 -1.8784
  104OSM   C12F10643   5.759   3.180   9.214 -0.2032 -0.3311 -0.1162
  104OSM   H12F10644   5.661   3.137   9.245 -0.3613 -0.2712 -0.5286
  104OSM   H12G10645   5.808   3.090   9.170 -0.2336 -0.4351  0.0581
  104OSM   C13F10646   5.748   3.295   9.116 -0.9445  0.1908 -0.1254
  104OSM   H13F10647   5.840   3.331   9.065 -1.5240  2.8312  0.6453
  104OSM   H13G10648   5.715   3.386   9.171 -0.7051 -0.1652  0.6000
  104OSM   C14F10649   5.639   3.259   9.006 -0.3674 -0.1228  0.4861
  104OSM   H14F10650   5.542   3.254   9.060  0.6684  2.3270  2.6650
  104OSM   H14G10651   5.655   3.165   8.949  0.7667 -1.0290  2.2674
  104OSM   C15F10652   5.642   3.371   8.893 -0.1169 -0.7286 -0.7697
  104OSM   H15F10653   5.747   3.381   8.859 -0.0620 -0.3555 -0.4957
  104OSM   H15G10654   5.607   3.462   8.947  0.3786 -0.2645 -1.2363
  104OSM   C16F10655   5.554   3.330   8.775 -0.2015  0.7590 -0.6732
  104OSM   H16F10656   5.456   3.313   8.824  0.8265 -0.5818  0.9763
  104OSM   H16G10657   5.585   3.234   8.729 -0.4167  0.9944 -1.3153
  104OSM   C17F10658   5.543   3.441   8.673 -0.6568 -0.4185 -0.1073
  104OSM   H17F10659   5.522   3.538   8.723  1.2505 -0.8239  1.5226
  104OSM   H17G10660   5.462   3.415   8.601  1.0607  1.3146 -2.7337
  104OSM   C18F10661   5.677   3.453   8.590  0.0880 -0.1775 -0.2705
  104OSM   H18F10662   5.722   3.357   8.558 -0.9946 -0.9884  0.5971
  104OSM   H18G10663   5.749   3.498   8.662 -0.5396 -0.0814  0.3032
  104OSM   H18H10664   5.666   3.521   8.502  0.8210  0.3513  0.0391
  105OSM      N10665   5.616   2.377  11.203  0.0557  0.5573  0.1174
  105OSM    C1510666   5.562   2.515  11.210 -0.4674  0.1162  0.0594
  105OSM   H15A10667   5.455   2.512  11.196 -0.5315 -1.2213  0.7761
  105OSM   H15B10668   5.598   2.579  11.131 -0.0034  0.8139  0.8275
  105OSM   H15C10669   5.581   2.565  11.304 -0.4779  0.6852 -0.2417
  105OSM    C1410670   5.758   2.385  11.248  0.4005 -0.4455 -0.1129
  105OSM   H14A10671   5.829   2.416  11.173  0.4951 -1.1434 -0.3173
  105OSM   H14B10672   5.780   2.281  11.269 -2.6875 -0.8102  1.5575
  105OSM   H14C10673   5.765   2.434  11.344 -1.7200 -1.8458  0.7978
  105OSM    C1310674   5.541   2.292  11.298  0.0374  0.3357 -0.4792
  105OSM   H13A10675   5.577   2.304  11.399 -0.2188 -1.0845 -0.2096
  105OSM   H13B10676   5.569   2.190  11.274  2.3066  0.5491  1.0338
  105OSM   H13C10677   5.435   2.302  11.281 -0.3336 -0.5151  1.1943
  105OSM    C1210678   5.606   2.319  11.063  0.4922 -0.4704 -0.5827
  105OSM   H12A10679   5.511   2.275  11.038  1.1548 -0.8284 -2.5336
  105OSM   H12B10680   5.671   2.236  11.042  3.3066  1.8230 -1.2860
  105OSM    C1110681   5.648   2.416  10.953  0.2216 -0.0395  0.2286
  105OSM   H11A10682   5.669   2.360  10.859 -0.4397  1.2479 -0.7143
  105OSM   H11B10683   5.748   2.465  10.957 -0.1825  0.6323  2.4604
  105OSM      P10684   5.408   2.493  10.870 -0.2052 -0.2148 -0.0293
  105OSM    O1310685   5.346   2.375  10.933 -0.1256 -0.4379 -1.0187
  105OSM    O1410686   5.329   2.614  10.893 -0.1286 -0.1640 -0.2325
  105OSM    O1110687   5.423   2.466  10.722 -0.6308 -1.0312  0.2649
  105OSM    O1210688   5.554   2.522  10.917  0.1435  0.3332 -0.3798
  105OSM    C1S10689   5.526   2.502  10.632  1.3289 -0.3103  0.2258
  105OSM    H1S10690   5.627   2.482  10.675  0.7008 -2.4538  0.7983
  105OSM    H1T10691   5.526   2.613  10.623 -0.8584 -0.0405  2.8457
  105OSM     NF10692   5.641   2.465  10.429  0.0791 -0.4057  0.3333
  105OSM    HNF10693   5.635   2.550  10.377 -1.7577 -0.8744 -0.2688
  105OSM    C2S10694   5.520   2.426  10.499 -0.0800 -0.9217 -0.5161
  105OSM    H2S10695   5.520   2.316  10.517 -2.8652 -0.8659 -0.0924
  105OSM    C3S10696   5.389   2.473  10.427 -0.1214  0.0209 -0.0579
  105OSM    H3S10697   5.386   2.583  10.409 -0.0055  0.5439  2.9066
  105OSM     O310698   5.268   2.455  10.498  0.8718 -0.1383 -0.1044
  105OSM    HO310699   5.290   2.429  10.588 -1.1540 -0.1124  0.4252
  105OSM    C4S10700   5.365   2.407  10.292  0.3484 -0.1286  0.1257
  105OSM    H4S10701   5.325   2.305  10.308 -2.4537  1.1787  1.8944
  105OSM    C5S10702   5.405   2.449  10.167 -0.7338 -0.2526  0.1486
  105OSM    H5S10703   5.447   2.550  10.155 -0.1735 -0.5329 -0.3193
  105OSM    C6S10704   5.396   2.369  10.042  0.3138  0.0253  0.1947
  105OSM    H6S10705   5.498   2.338  10.010 -0.2041 -0.2745 -1.2248
  105OSM    H6T10706   5.374   2.444   9.962  1.6861 -0.0342 -0.2508
  105OSM    C7S10707   5.294   2.261  10.022  1.0554 -0.1409 -0.0819
  105OSM    H7S10708   5.199   2.304  10.061  1.1046 -0.4355  0.3596
  105OSM    H7T10709   5.323   2.165  10.070  2.1312  2.1472  4.2001
  105OSM    C8S10710   5.267   2.238   9.868  0.5606  0.4042 -0.7687
  105OSM    H8S10711   5.345   2.183   9.812  0.2514 -0.9448  0.1168
  105OSM    H8T10712   5.263   2.340   9.822  0.9923  1.0216  0.5385
  105OSM    C9S10713   5.132   2.168   9.838  0.1955  0.1292  0.0796
  105OSM    H9S10714   5.052   2.220   9.894  0.2419  0.3477 -0.0533
  105OSM    H9T10715   5.133   2.063   9.874  0.7879  0.1246  0.0688
  105OSM   C10S10716   5.090   2.168   9.692  0.2195 -0.2874 -0.2260
  105OSM   H10S10717   5.104   2.274   9.661 -2.5091  0.2426  0.2591
  105OSM   H10T10718   4.980   2.150   9.688  0.2568 -0.1855 -2.4977
  105OSM   C11S10719   5.166   2.072   9.602 -0.1718  0.4292  0.1852
  105OSM   H11S10720   5.163   1.966   9.637  2.0182  0.7486  1.3959
  105OSM   H11T10721   5.272   2.102   9.612  0.1911 -0.0482 -1.9286
  105OSM   C12S10722   5.127   2.090   9.458 -0.2327 -0.2018  0.5005
  105OSM   H12S10723   5.150   2.196   9.432 -2.2772  0.0886 -0.2040
  105OSM   H12T10724   5.019   2.065   9.452  0.2836 -2.5747  0.4692
  105OSM   C13S10725   5.206   2.003   9.350  0.1405 -0.7411 -0.7027
  105OSM   H13S10726   5.180   1.897   9.368  1.1218 -0.8684 -0.0087
  105OSM   H13T10727   5.316   2.012   9.364  0.0381 -1.5581  0.6577
  105OSM   C14S10728   5.173   2.040   9.203 -0.0459 -0.6001  0.1871
  105OSM   H14S10729   5.210   2.142   9.180 -0.4938 -0.3579  0.5285
  105OSM   H14T10730   5.064   2.050   9.182 -0.1294 -2.9145 -0.5881
  105OSM   C15S10731   5.239   1.958   9.084  0.2554  0.1582 -0.4296
  105OSM   H15S10732   5.192   1.981   8.986 -1.1851 -1.1062 -0.0580
  105OSM   H15T10733   5.217   1.849   9.095 -1.7277  0.5090 -0.6527
  105OSM   C16S10734   5.391   1.971   9.068 -0.0813 -0.0157 -1.1227
  105OSM   H16S10735   5.440   1.949   9.165  1.9825  2.2056 -1.6028
  105OSM   H16T10736   5.418   2.076   9.042 -2.0126 -0.3700 -4.9312
  105OSM   C17S10737   5.448   1.884   8.954 -0.1723  0.2112 -0.5171
  105OSM   H17S10738   5.400   1.899   8.855 -1.7751  0.5572  0.2916
  105OSM   H17T10739   5.433   1.781   8.994 -2.0289  0.6085 -0.1595
  105OSM   C18S10740   5.599   1.896   8.947  0.5944 -0.1244  0.7417
  105OSM   H18S10741   5.627   2.002   8.926 -1.0755  0.3993  1.0882
  105OSM   H18T10742   5.638   1.830   8.867 -1.0202  1.6401 -1.5747
  105OSM   H18U10743   5.645   1.879   9.046 -0.1304  0.4128  1.1801
  105OSM    C1F10744   5.760   2.415  10.453 -0.7021  0.1626 -0.1527
  105OSM     OF10745   5.775   2.328  10.539  0.0716  0.1573 -0.3971
  105OSM    C2F10746   5.883   2.473  10.382  0.4124  0.1932  0.0692
  105OSM    H2F10747   5.954   2.388  10.375 -2.2705 -2.3510  2.2496
  105OSM    H2G10748   5.924   2.548  10.453 -0.1065  0.5632 -0.0197
  105OSM    C3F10749   5.864   2.540  10.249  0.0419  0.3555  0.0531
  105OSM    H3F10750   5.937   2.621  10.228  2.3392 -1.2814  1.5721
  105OSM    H3G10751   5.767   2.593  10.239  0.3908  0.6306 -2.2735
  105OSM    C4F10752   5.863   2.436  10.129  0.4010 -0.4594  0.7598
  105OSM    H4F10753   5.806   2.350  10.171  0.6214 -1.1610 -0.3498
  105OSM    H4G10754   5.969   2.411  10.108  0.8575  0.2983  2.1454
  105OSM    C5F10755   5.794   2.486  10.005  0.1682 -0.1713  0.4440
  105OSM    H5F10756   5.684   2.481  10.020  0.0933  1.8910  0.7556
  105OSM    H5G10757   5.825   2.425   9.918 -0.5615 -3.0644  2.1192
  105OSM    C6F10758   5.826   2.632   9.964  1.2581  0.4606 -0.5134
  105OSM    H6F10759   5.936   2.641   9.981  1.4747 -2.8281  0.2010
  105OSM    H6G10760   5.778   2.709  10.027 -0.9472  0.2809 -1.9329
  105OSM    C7F10761   5.789   2.664   9.819 -0.0248  0.3011 -0.0996
  105OSM    H7F10762   5.852   2.600   9.755 -0.8536  0.7746 -1.4089
  105OSM    H7G10763   5.824   2.768   9.804 -0.0211  0.2995 -0.1022
  105OSM    C8F10764   5.632   2.667   9.791  1.2433  0.2774  0.4174
  105OSM    H8F10765   5.565   2.583   9.816 -0.7719  1.8741  0.5377
  105OSM    H8G10766   5.632   2.648   9.682 -2.3789  0.5054  0.3247
  105OSM    C9F10767   5.550   2.785   9.832  0.1404  0.1710 -0.5123
  105OSM    H9F10768   5.527   2.804   9.938 -0.6807  1.7579 -0.9610
  105OSM   C10F10769   5.503   2.881   9.752 -0.2414 -0.1712 -0.2044
  105OSM   H10F10770   5.450   2.963   9.803 -1.4399 -1.3773  0.5095
  105OSM   C11F10771   5.509   2.888   9.596 -0.0097  0.2712 -0.0396
  105OSM   H11F10772   5.587   2.821   9.554  1.3383  2.4820 -1.0972
  105OSM   H11G10773   5.539   2.988   9.560  1.7525 -0.8772 -1.8888
  105OSM   C12F10774   5.375   2.859   9.536 -0.0940  0.1497 -0.4396
  105OSM   H12F10775   5.291   2.925   9.567 -0.7879 -0.4503 -1.0373
  105OSM   H12G10776   5.354   2.752   9.553 -1.8986  0.1920 -2.2342
  105OSM   C13F10777   5.367   2.872   9.381 -0.2480 -0.4396 -0.4888
  105OSM   H13F10778   5.274   2.817   9.356 -1.3692  0.8943  0.7151
  105OSM   H13G10779   5.450   2.819   9.329  0.2025 -1.3688  1.1422
  105OSM   C14F10780   5.363   3.019   9.333 -0.4928  0.5574  0.2373
  105OSM   H14F10781   5.438   3.085   9.382 -2.0942  1.4912  1.4746
  105OSM   H14G10782   5.260   3.054   9.355 -0.4009  1.0583 -0.1242
  105OSM   C15F10783   5.385   3.030   9.184  0.6487 -0.3011 -0.4291
  105OSM   H15F10784   5.489   2.996   9.166  1.1023  0.2140  1.1129
  105OSM   H15G10785   5.375   3.138   9.158  1.1961 -0.5339 -1.6336
  105OSM   C16F10786   5.283   2.957   9.091  0.5048  0.5705  0.3110
  105OSM   H16F10787   5.179   2.981   9.122  0.0267  2.1238 -2.3203
  105OSM   H16G10788   5.308   2.848   9.094 -2.9139 -0.3316 -1.3026
  105OSM   C17F10789   5.309   3.002   8.945  0.2150 -0.7359 -0.3699
  105OSM   H17F10790   5.409   2.969   8.910 -0.4167 -0.6031 -2.3599
  105OSM   H17G10791   5.304   3.113   8.944 -0.6836 -0.7818 -1.3863
  105OSM   C18F10792   5.212   2.928   8.854 -0.2467  0.6254  0.1184
  105OSM   H18F10793   5.114   2.978   8.870 -0.5128  0.1111  0.0935
  105OSM   H18G10794   5.213   2.819   8.870  0.4397  0.6424  0.2076
  105OSM   H18H10795   5.242   2.942   8.748  2.2579  1.6017  0.9264
  106OSM      N10796   0.160   0.579  10.936  0.1136 -0.1091  0.8657
  106OSM    C1510797   0.146   0.711  10.867  0.3010  0.5173  0.9497
  106OSM   H15A10798   0.235   0.754  10.824 -1.7491  4.5802  0.4614
  106OSM   H15B10799   0.113   0.785  10.939 -2.1047  0.5260 -0.0865
  106OSM   H15C10800   0.064   0.699  10.798  0.3270 -1.1296  1.1905
  106OSM    C1410801   0.261   0.577  11.044  0.0908  0.1230  0.2107
  106OSM   H14A10802   0.362   0.575  11.006 -0.8457 -1.5435 -2.3177
  106OSM   H14B10803   0.257   0.491  11.109 -0.9093  1.7733  2.4021
  106OSM   H14C10804   0.266   0.662  11.111  1.0484 -0.7175  1.2244
  106OSM    C1310805   0.029   0.541  10.997 -0.3971  0.0473 -0.7184
  106OSM   H13A10806   0.033   0.444  11.045  0.6528  0.5693  0.2976
  106OSM   H13B10807  -0.043   0.536  10.917 -0.7647  1.6327 -0.5050
  106OSM   H13C10808  -0.002   0.619  11.065 -0.4910 -0.9699  0.4289
  106OSM    C1210809   0.182   0.478  10.826  0.2124 -0.0568  0.1314
  106OSM   H12A10810   0.188   0.380  10.871  0.3685  0.2855  0.8607
  106OSM   H12B10811   0.282   0.493  10.789  0.7915 -0.1126  1.6130
  106OSM    C1110812   0.080   0.468  10.701  0.4604  0.3061  0.3091
  106OSM   H11A10813   0.136   0.395  10.639 -2.3392 -1.6655 -0.0097
  106OSM   H11B10814   0.068   0.561  10.642 -2.0673  0.1708  0.5523
  106OSM      P10815  -0.106   0.284  10.732 -0.0874 -0.2598 -0.4319
  106OSM    O1310816  -0.023   0.194  10.812 -0.2605  0.2165  0.1268
  106OSM    O1410817  -0.247   0.282  10.776 -0.2948  0.4608 -0.1512
  106OSM    O1110818  -0.092   0.260  10.579  0.2102 -0.8124 -0.4504
  106OSM    O1210819  -0.048   0.434  10.741  0.6516  0.4581 -0.5871
  106OSM    C1S10820  -0.150   0.345  10.479 -0.2782  0.2300 -0.3567
  106OSM    H1S10821  -0.148   0.454  10.500  2.1775  0.1006  0.2388
  106OSM    H1T10822  -0.257   0.323  10.460 -0.2134  0.9854 -1.7068
  106OSM     NF10823  -0.101   0.438  10.254 -0.3051 -0.3406 -0.1514
  106OSM    HNF10824  -0.148   0.412  10.170 -0.7267 -1.2173  0.3516
  106OSM    C2S10825  -0.070   0.328  10.348  0.8079 -0.4974 -0.2550
  106OSM    H2S10826   0.034   0.348  10.381  1.4198  1.0998 -2.9754
  106OSM    C3S10827  -0.087   0.179  10.289  0.4799 -0.6080  0.2386
  106OSM    H3S10828  -0.192   0.150  10.269  0.4493 -1.0029  0.9592
  106OSM     O310829  -0.036   0.082  10.381  0.5467  0.8076  0.8144
  106OSM    HO310830  -0.010   0.129  10.461 -0.2058 -1.3847  2.4002
  106OSM    C4S10831  -0.018   0.172  10.163 -0.0927 -0.4766  0.0472
  106OSM    H4S10832  -0.095   0.188  10.086  0.2239  2.6203  0.3180
  106OSM    C5S10833   0.111   0.131  10.143  0.0057 -0.0292  0.1391
  106OSM    H5S10834   0.161   0.096  10.234  0.9109 -1.8277 -1.0134
  106OSM    C6S10835   0.176   0.121  10.009 -0.0144  0.3966 -0.5981
  106OSM    H6S10836   0.260   0.192   9.995 -1.5646  2.3142 -0.3239
  106OSM    H6T10837   0.109   0.134   9.921 -0.6462  0.8670 -0.0514
  106OSM    C7S10838   0.243  -0.020   9.989 -0.1543  0.3312  0.0033
  106OSM    H7S10839   0.183  -0.111  10.010  2.0188 -1.3698 -0.8936
  106OSM    H7T10840   0.326  -0.041  10.060 -0.6617  0.0264  0.5115
  106OSM    C8S10841   0.301  -0.054   9.845  0.2567 -0.2049 -0.1796
  106OSM    H8S10842   0.213  -0.039   9.779 -0.9912 -0.4252  1.3802
  106OSM    H8T10843   0.334  -0.160   9.834 -0.7060 -0.6135  0.7516
  106OSM    C9S10844   0.425   0.029   9.806 -0.2282 -0.2013 -0.1916
  106OSM    H9S10845   0.498  -0.003   9.884 -1.8199 -0.9564  1.0490
  106OSM    H9T10846   0.389   0.133   9.816 -1.7378 -0.6880 -0.3340
  106OSM   C10S10847   0.479   0.015   9.663  0.2888  0.4098 -0.3167
  106OSM   H10S10848   0.479  -0.093   9.636  1.0573  0.4629 -0.5414
  106OSM   H10T10849   0.586   0.040   9.648  0.4894 -1.0778 -1.4894
  106OSM   C11S10850   0.403   0.086   9.551  0.2675 -0.3624 -0.3199
  106OSM   H11S10851   0.428   0.194   9.555  0.7411 -0.4724 -0.2971
  106OSM   H11T10852   0.295   0.074   9.573  0.3467 -1.9568 -0.7331
  106OSM   C12S10853   0.430   0.044   9.414 -0.1417  0.0125  0.3158
  106OSM   H12S10854   0.395  -0.061   9.403  1.1253 -0.3304 -0.6183
  106OSM   H12T10855   0.538   0.056   9.391 -0.0498  0.3262  0.9040
  106OSM   C13S10856   0.362   0.126   9.310  0.3205  0.0732  0.3548
  106OSM   H13S10857   0.405   0.228   9.303  1.9433 -0.6019  0.1539
  106OSM   H13T10858   0.255   0.125   9.341  0.5080  2.1712  1.1541
  106OSM   C14S10859   0.360   0.065   9.173 -0.6408  0.1949  0.7970
  106OSM   H14S10860   0.292  -0.022   9.163  0.1512 -0.4529  0.9721
  106OSM   H14T10861   0.460   0.019   9.157 -1.3013 -0.9630 -0.0325
  106OSM   C15S10862   0.332   0.169   9.065  0.3512 -0.9370 -0.1881
  106OSM   H15S10863   0.387   0.263   9.086 -1.0712  0.3047 -1.8698
  106OSM   H15T10864   0.230   0.207   9.086  1.1189  1.8156 -1.3219
  106OSM   C16S10865   0.338   0.109   8.924 -0.2597 -0.5242  0.9599
  106OSM   H16S10866   0.249   0.043   8.918 -0.0460 -0.8108  0.9417
  106OSM   H16T10867   0.431   0.055   8.895 -0.4498  0.2430 -1.2160
  106OSM   C17S10868   0.311   0.227   8.827 -0.0582 -0.1970  0.2688
  106OSM   H17S10869   0.385   0.308   8.844  1.0959 -1.0914 -0.4245
  106OSM   H17T10870   0.210   0.273   8.835 -0.0759 -0.0774 -0.6004
  106OSM   C18S10871   0.320   0.178   8.683 -0.0938  0.4134 -0.6801
  106OSM   H18S10872   0.268   0.242   8.609  1.0337 -1.8963 -3.5595
  106OSM   H18T10873   0.281   0.077   8.658 -0.7292  0.9308 -1.8055
  106OSM   H18U10874   0.427   0.161   8.658 -0.0392 -0.6730  0.2443
  106OSM    C1F10875  -0.063   0.569  10.267  0.4123  0.2363  0.0123
  106OSM     OF10876   0.006   0.601  10.362  0.2066  0.1117 -0.6461
  106OSM    C2F10877  -0.115   0.668  10.167  0.0380  0.0055 -0.4365
  106OSM    H2F10878  -0.108   0.773  10.202 -1.4789  0.5388 -1.6761
  106OSM    H2G10879  -0.221   0.642  10.146 -0.1098  1.1672 -1.1563
  106OSM    C3F10880  -0.035   0.664  10.035  0.1030 -0.3428 -0.0343
  106OSM    H3F10881  -0.036   0.556  10.012 -3.5399 -1.0522  3.0796
  106OSM    H3G10882   0.070   0.700  10.038 -0.4013  1.1543  0.3915
  106OSM    C4F10883  -0.095   0.741   9.916  0.1506 -0.4971 -0.2969
  106OSM    H4F10884  -0.034   0.710   9.827  0.5997 -3.0718  0.8382
  106OSM    H4G10885  -0.062   0.844   9.940 -0.2767 -1.0234  2.6847
  106OSM    C5F10886  -0.242   0.733   9.885 -0.3501  0.0188 -0.1844
  106OSM    H5F10887  -0.304   0.746   9.976 -2.0576  1.0322 -1.4669
  106OSM    H5G10888  -0.265   0.626   9.863  2.6688 -0.6508 -0.3051
  106OSM    C6F10889  -0.289   0.823   9.771 -0.0174 -0.2106 -0.1575
  106OSM    H6F10890  -0.273   0.931   9.793  0.9006 -0.3067 -0.3389
  106OSM    H6G10891  -0.397   0.811   9.750 -0.1088 -3.1649  1.6405
  106OSM    C7F10892  -0.217   0.793   9.641 -0.5347 -0.2574  0.6650
  106OSM    H7F10893  -0.219   0.687   9.609 -1.2933 -0.4265  1.2474
  106OSM    H7G10894  -0.112   0.829   9.645 -0.5272 -0.0710 -0.7975
  106OSM    C8F10895  -0.277   0.874   9.519 -0.4608  0.0744 -0.2912
  106OSM    H8F10896  -0.258   0.980   9.546 -4.3665  0.5854  0.6656
  106OSM    H8G10897  -0.387   0.859   9.518 -0.5469  0.7533 -1.7302
  106OSM    C9F10898  -0.219   0.841   9.380  0.2381 -0.0345  0.6454
  106OSM    H9F10899  -0.206   0.732   9.369 -0.3432 -0.0492  0.0844
  106OSM   C10F10900  -0.189   0.926   9.281  0.4353 -0.4429  1.0388
  106OSM   H10F10901  -0.162   0.888   9.181 -1.1220  0.7852  0.1379
  106OSM   C11F10902  -0.195   1.073   9.288 -0.5498 -0.0183 -0.9079
  106OSM   H11F10903  -0.100   1.102   9.238  1.6686  0.3675  3.2649
  106OSM   H11G10904  -0.192   1.106   9.394 -0.5414 -1.1655 -0.5482
  106OSM   C12F10905  -0.322   1.138   9.217  0.0643 -0.4256 -0.2112
  106OSM   H12F10906  -0.314   1.249   9.216  0.6868 -0.4672 -0.0107
  106OSM   H12G10907  -0.409   1.105   9.277 -1.0472 -1.1324 -2.1833
  106OSM   C13F10908  -0.322   1.096   9.069 -0.4059 -0.8892 -0.0846
  106OSM   H13F10909  -0.341   0.987   9.054  0.5806 -1.6297  3.4935
  106OSM   H13G10910  -0.233   1.124   9.010 -0.8246 -3.3232 -1.9547
  106OSM   C14F10911  -0.442   1.161   9.008 -0.1975 -0.4392  0.0609
  106OSM   H14F10912  -0.422   1.270   9.000 -1.9563 -0.2126 -1.8246
  106OSM   H14G10913  -0.528   1.140   9.076  0.4590 -0.5277  0.8642
  106OSM   C15F10914  -0.464   1.100   8.870 -0.0863  0.2721 -0.4543
  106OSM   H15F10915  -0.484   0.993   8.891 -1.8377  1.0816  2.2232
  106OSM   H15G10916  -0.370   1.109   8.811  1.0820 -0.0293  1.3101
  106OSM   C16F10917  -0.585   1.163   8.795 -0.1393 -0.5650 -0.4733
  106OSM   H16F10918  -0.584   1.270   8.822  0.0475 -0.9103  0.9523
  106OSM   H16G10919  -0.677   1.119   8.840  0.4674 -0.5254  0.8433
  106OSM   C17F10920  -0.586   1.117   8.648  0.1196  0.4188 -0.1643
  106OSM   H17F10921  -0.486   1.140   8.606 -0.2180  1.3397 -0.4747
  106OSM   H17G10922  -0.663   1.168   8.586 -2.3095 -0.3185  2.1040
  106OSM   C18F10923  -0.616   0.968   8.639  0.0376 -0.9528  0.5601
  106OSM   H18F10924  -0.536   0.904   8.682  0.0400 -1.3219  0.0150
  106OSM   H18G10925  -0.627   0.932   8.534 -1.9845  0.5420  0.2305
  106OSM   H18H10926  -0.705   0.939   8.699 -0.2998 -0.3368  0.3577
  107OSM      N10927   1.153   5.170  11.276 -0.2650  0.4151 -0.0989
  107OSM    C1510928   1.162   5.220  11.417  0.0706 -0.2746 -0.6799
  107OSM   H15A10929   1.137   5.152  11.497 -1.4187  0.1389 -0.7725
  107OSM   H15B10930   1.074   5.280  11.436  1.0436  1.0908 -0.4149
  107OSM   H15C10931   1.259   5.264  11.429 -0.4435  0.7733 -0.3235
  107OSM    C1410932   1.264   5.067  11.252  0.3046  0.0767  0.0511
  107OSM   H14A10933   1.365   5.103  11.269 -0.4999  1.2528  2.7176
  107OSM   H14B10934   1.257   5.024  11.154  0.9170 -2.2720  1.0045
  107OSM   H14C10935   1.252   4.985  11.321 -0.7712  0.0346 -0.1839
  107OSM    C1310936   1.027   5.098  11.259 -0.0242 -0.9422 -0.1295
  107OSM   H13A10937   1.019   5.024  11.337 -0.6304 -0.3378  0.3813
  107OSM   H13B10938   1.026   5.030  11.175  0.6079 -3.9019  2.1687
  107OSM   H13C10939   0.947   5.169  11.244  0.4144 -0.7891 -1.8668
  107OSM    C1210940   1.187   5.277  11.174 -0.5310  0.3878  1.0952
  107OSM   H12A10941   1.191   5.231  11.076  2.5539  0.7341  1.0134
  107OSM   H12B10942   1.290   5.305  11.186 -0.8102  1.5580  0.7845
  107OSM    C1110943   1.096   5.405  11.165  0.6892 -0.6754 -0.0267
  107OSM   H11A10944   1.148   5.493  11.121 -1.4509  1.4812  1.6933
  107OSM   H11B10945   1.079   5.443  11.267 -0.5948  0.2926 -0.5827
  107OSM      P10946   0.954   5.352  10.951  0.0809  0.4604 -0.0755
  107OSM    O1310947   0.898   5.217  10.930 -0.3096  0.1466 -0.5129
  107OSM    O1410948   0.887   5.457  10.874  0.8141 -0.8076  0.4386
  107OSM    O1110949   1.101   5.331  10.897  0.2603  0.2415 -0.7846
  107OSM    O1210950   0.966   5.383  11.111 -0.3116  0.4354 -0.2131
  107OSM    C1S10951   1.124   5.252  10.779  0.2097  0.5546 -0.9332
  107OSM    H1S10952   1.033   5.198  10.746  0.8641 -0.0674 -1.7452
  107OSM    H1T10953   1.196   5.173  10.812  0.6076  0.2193 -2.5511
  107OSM     NF10954   1.190   5.248  10.542 -0.4029 -0.0825 -0.0848
  107OSM    HNF10955   1.282   5.211  10.530  0.3692  1.5742  0.5543
  107OSM    C2S10956   1.186   5.335  10.660 -0.1228  0.1340  0.3984
  107OSM    H2S10957   1.118   5.420  10.639  0.5716  1.0499  1.8512
  107OSM    C3S10958   1.329   5.388  10.700 -0.3691  0.3586 -0.1434
  107OSM    H3S10959   1.397   5.301  10.717  1.1958  1.8680  1.5423
  107OSM     O310960   1.330   5.466  10.823 -1.1162 -0.2034  0.4435
  107OSM    HO310961   1.240   5.454  10.856 -1.6588  0.6980 -0.6714
  107OSM    C4S10962   1.389   5.473  10.592 -0.6741 -0.7487 -0.5437
  107OSM    H4S10963   1.331   5.563  10.567  1.5107  0.7929 -0.1727
  107OSM    C5S10964   1.510   5.446  10.530  0.3119 -0.3276  0.0621
  107OSM    H5S10965   1.562   5.349  10.518 -2.0625 -1.5675 -0.5235
  107OSM    C6S10966   1.562   5.527  10.414  0.2565 -0.2079  0.0583
  107OSM    H6S10967   1.664   5.572  10.417  0.1576  0.0324 -0.1939
  107OSM    H6T10968   1.503   5.621  10.401  0.6919 -0.3045 -2.8895
  107OSM    C7S10969   1.524   5.452  10.281 -0.1597  0.2838 -0.0535
  107OSM    H7S10970   1.414   5.439  10.282  0.0629 -1.7560 -0.6563
  107OSM    H7T10971   1.572   5.353  10.293  0.5374  0.1897 -3.3309
  107OSM    C8S10972   1.588   5.504  10.150  0.4285  0.0590 -0.7031
  107OSM    H8S10973   1.697   5.484  10.163 -0.0841 -3.2094 -0.9728
  107OSM    H8T10974   1.582   5.615  10.148  0.8639  0.1174  0.6803
  107OSM    C9S10975   1.544   5.434  10.022 -0.0836 -0.1832  0.8944
  107OSM    H9S10976   1.433   5.432  10.029 -0.1878 -0.0615 -0.6821
  107OSM    H9T10977   1.580   5.330  10.040 -0.5404 -0.5421 -0.2324
  107OSM   C10S10978   1.592   5.493   9.891 -0.8316 -0.3227  0.6659
  107OSM   H10S10979   1.702   5.506   9.892 -0.6632 -1.2526 -1.7087
  107OSM   H10T10980   1.544   5.593   9.880 -1.1876 -0.4527  1.0372
  107OSM   C11S10981   1.535   5.414   9.770  0.1567 -0.3267  0.0194
  107OSM   H11S10982   1.426   5.393   9.781  0.2508  0.1082  1.8743
  107OSM   H11T10983   1.587   5.317   9.752 -1.3450 -1.2525  0.6099
  107OSM   C12S10984   1.552   5.492   9.638 -0.0663  0.2375  0.3149
  107OSM   H12S10985   1.660   5.515   9.625  0.0282  2.0971  3.7850
  107OSM   H12T10986   1.498   5.585   9.667 -2.1843 -1.2959  1.4066
  107OSM   C13S10987   1.505   5.425   9.506 -0.2654  0.7741 -0.9263
  107OSM   H13S10988   1.404   5.383   9.529  0.3686 -0.6838 -0.7753
  107OSM   H13T10989   1.573   5.345   9.470 -2.1925 -1.2274 -0.2951
  107OSM   C14S10990   1.493   5.529   9.394  0.4088 -0.2994  0.0676
  107OSM   H14S10991   1.587   5.587   9.395  0.8540 -1.0294  0.8788
  107OSM   H14T10992   1.413   5.603   9.413  2.4667  1.6562  1.2324
  107OSM   C15S10993   1.474   5.473   9.257 -0.7126  0.1833  0.3697
  107OSM   H15S10994   1.433   5.370   9.265  1.5395 -0.6320  1.8667
  107OSM   H15T10995   1.579   5.452   9.230 -0.4240  3.0736 -0.9382
  107OSM   C16S10996   1.398   5.563   9.161 -0.8546  0.2672 -0.9746
  107OSM   H16S10997   1.420   5.671   9.179  1.0185 -0.1452 -0.7315
  107OSM   H16T10998   1.292   5.549   9.193 -0.4039 -0.0407  0.4173
  107OSM   C17S10999   1.412   5.537   9.010  0.4000  0.3812 -0.4097
  107OSM   H17S11000   1.513   5.573   8.977  0.2692 -0.8192 -2.1861
  107OSM   H17T11001   1.335   5.593   8.952  1.4785  2.3051 -0.0558
  107OSM   C18S11002   1.398   5.392   8.967  0.1581  0.3158  0.3497
  107OSM   H18S11003   1.432   5.386   8.862 -1.6072  2.6696 -0.3805
  107OSM   H18T11004   1.297   5.344   8.966  0.7689 -0.9842 -0.6047
  107OSM   H18U11005   1.458   5.325   9.032 -0.2625  0.7091  1.1552
  107OSM    C1F11006   1.086   5.227  10.463  0.1783 -0.0016 -0.2367
  107OSM     OF11007   0.980   5.286  10.482 -0.2360  0.3286 -0.2979
  107OSM    C2F11008   1.105   5.129  10.350  0.0531  0.4583  0.4304
  107OSM    H2F11009   1.015   5.065  10.335 -0.4207  1.1688  0.1892
  107OSM    H2G11010   1.176   5.059  10.399 -1.5845 -0.7820  1.0679
  107OSM    C3F11011   1.163   5.196  10.228  0.0886 -0.3548  0.1108
  107OSM    H3F11012   1.250   5.259  10.254  0.8655 -0.7212 -1.4734
  107OSM    H3G11013   1.087   5.269  10.193 -0.7838 -1.7014 -0.9058
  107OSM    C4F11014   1.214   5.096  10.120 -0.1851 -0.4376  0.1044
  107OSM    H4F11015   1.135   5.025  10.088  0.0740 -0.3071 -0.8449
  107OSM    H4G11016   1.298   5.037  10.161  0.5307  0.7297  0.3345
  107OSM    C5F11017   1.265   5.178   9.990 -0.5914 -0.5782 -0.2583
  107OSM    H5F11018   1.334   5.111   9.934 -1.4431 -0.1758 -1.8160
  107OSM    H5G11019   1.328   5.263  10.025  0.4911 -1.1790 -0.6973
  107OSM    C6F11020   1.156   5.238   9.905 -0.9330  0.3040 -0.0013
  107OSM    H6F11021   1.216   5.293   9.829  1.3402 -1.5922  0.3917
  107OSM    H6G11022   1.090   5.311   9.957 -1.0471 -0.0458  0.3428
  107OSM    C7F11023   1.071   5.138   9.833  0.2170  0.1342  0.1335
  107OSM    H7F11024   1.010   5.188   9.755 -0.2693  4.0039  2.9037
  107OSM    H7G11025   0.997   5.097   9.905 -0.4180  2.1913  0.6886
  107OSM    C8F11026   1.138   5.013   9.753  0.2475 -0.2428 -1.1067
  107OSM    H8F11027   1.048   4.959   9.715 -0.9707 -0.0989  1.4168
  107OSM    H8G11028   1.180   4.947   9.832 -1.8127  1.7596  1.8160
  107OSM    C9F11029   1.245   5.035   9.649  0.2344 -0.1382 -0.5075
  107OSM    H9F11030   1.336   4.982   9.679  0.0609  0.2113  0.6885
  107OSM   C10F11031   1.236   5.113   9.538 -0.5588  0.3386 -0.2187
  107OSM   H10F11032   1.313   5.112   9.460  1.9467  3.3699  2.0404
  107OSM   C11F11033   1.113   5.197   9.512  0.0573  0.2464  0.2942
  107OSM   H11F11034   1.113   5.292   9.569  0.1305  0.2889  0.2254
  107OSM   H11G11035   1.015   5.146   9.525 -0.4367  1.6473  2.5256
  107OSM   C12F11036   1.118   5.257   9.377 -0.1239  0.8510 -0.2872
  107OSM   H12F11037   1.158   5.187   9.300  1.6416 -0.3152  1.6499
  107OSM   H12G11038   1.190   5.342   9.383 -0.5471  1.1420  0.7616
  107OSM   C13F11039   0.980   5.302   9.321 -0.4142 -0.3935  0.1029
  107OSM   H13F11040   0.943   5.380   9.392  1.4268 -0.4107  1.1293
  107OSM   H13G11041   0.903   5.223   9.331 -1.3308  0.4391 -0.3261
  107OSM   C14F11042   0.976   5.350   9.174 -0.0296  0.3406  0.1268
  107OSM   H14F11043   0.995   5.261   9.111  0.2651 -1.3562  2.5524
  107OSM   H14G11044   1.061   5.420   9.160 -1.5553  2.2923  0.2293
  107OSM   C15F11045   0.837   5.404   9.129  0.3337 -0.3295  0.0985
  107OSM   H15F11046   0.818   5.497   9.187 -1.0464  0.3577 -1.4124
  107OSM   H15G11047   0.761   5.327   9.156  0.6574 -1.4064 -1.9286
  107OSM   C16F11048   0.840   5.431   8.976 -0.4468 -0.6543  0.3925
  107OSM   H16F11049   0.733   5.454   8.956 -0.6785 -0.4763  1.7355
  107OSM   H16G11050   0.874   5.338   8.925 -0.5817 -0.5210  0.0632
  107OSM   C17F11051   0.924   5.557   8.921 -0.0417  0.1625  0.3360
  107OSM   H17F11052   1.032   5.539   8.941 -0.0081 -1.1597 -1.0421
  107OSM   H17G11053   0.866   5.641   8.967 -0.1388  0.1563  0.2247
  107OSM   C18F11054   0.911   5.569   8.774  0.0956 -0.3183  0.2832
  107OSM   H18F11055   0.956   5.471   8.749  2.0127  0.9340 -1.3219
  107OSM   H18G11056   0.976   5.651   8.735 -0.6684  0.3349  0.3818
  107OSM   H18H11057   0.805   5.585   8.745 -0.2112 -2.4725  0.1443
  108OSM      N11058   5.014   1.542  11.277 -0.2759 -0.0800  0.0049
  108OSM    C1511059   5.011   1.453  11.400 -0.1205  0.2908 -0.6540
  108OSM   H15A11060   5.004   1.509  11.492  1.5240  0.0155 -0.3487
  108OSM   H15B11061   5.103   1.397  11.406  0.4228  1.4206  2.5270
  108OSM   H15C11062   4.922   1.392  11.401 -1.4184  2.1429 -0.9130
  108OSM    C1411063   4.910   1.648  11.285  0.2480  0.5410  0.0388
  108OSM   H14A11064   4.804   1.627  11.284 -0.0053  1.7250  0.3815
  108OSM   H14B11065   4.916   1.718  11.203  1.8840 -1.4910 -1.6115
  108OSM   H14C11066   4.935   1.711  11.370  1.4904 -1.0282  0.8723
  108OSM    C1311067   5.137   1.620  11.267 -0.2509  0.2706  0.9064
  108OSM   H13A11068   5.144   1.681  11.178  1.2476 -2.2201 -0.7383
  108OSM   H13B11069   5.229   1.563  11.276 -0.2194  0.4428  1.7526
  108OSM   H13C11070   5.137   1.695  11.345  0.5649  1.3131 -0.0682
  108OSM    C1211071   5.000   1.452  11.160  0.6487  0.3043  0.0143
  108OSM   H12A11072   4.916   1.385  11.174 -2.1240  3.6187 -0.2742
  108OSM   H12B11073   5.081   1.380  11.162 -0.0059 -0.6119 -3.0529
  108OSM    C1111074   4.988   1.516  11.019 -0.2687  0.0268  0.1020
  108OSM   H11A11075   4.907   1.592  11.011 -0.0490  0.3694  1.0869
  108OSM   H11B11076   4.962   1.437  10.946 -2.8217  1.0123 -0.1031
  108OSM      P11077   5.133   1.648  10.843 -0.1583  0.3078  0.2427
  108OSM    O1311078   5.101   1.789  10.876 -0.1253 -0.3603 -0.2280
  108OSM    O1411079   5.268   1.614  10.780  0.3170  0.2270  0.0284
  108OSM    O1111080   5.019   1.587  10.761 -0.5278  0.5694 -0.6578
  108OSM    O1211081   5.120   1.568  10.980  0.3454  0.0845 -0.0538
  108OSM    C1S11082   4.933   1.661  10.674 -0.1710 -0.3841  0.0393
  108OSM    H1S11083   4.926   1.763  10.718 -0.8557 -2.0818  4.0455
  108OSM    H1T11084   4.828   1.625  10.680 -0.6136  0.9203  0.1817
  108OSM     NF11085   4.931   1.761  10.446  0.9104 -0.2203  0.4358
  108OSM    HNF11086   4.847   1.731  10.401  0.4498  1.7922 -0.0803
  108OSM    C2S11087   4.991   1.656  10.525 -0.5835  0.1749  0.2341
  108OSM    H2S11088   5.101   1.671  10.528 -0.7610  1.5554 -0.0884
  108OSM    C3S11089   4.966   1.520  10.465 -0.1186 -1.0793  0.0579
  108OSM    H3S11090   4.856   1.503  10.465 -0.2207 -0.4275  0.3075
  108OSM     O311091   5.019   1.414  10.539  0.1477 -0.2173 -0.1805
  108OSM    HO311092   5.035   1.450  10.627  3.8505 -3.2158  0.5217
  108OSM    C4S11093   5.015   1.512  10.325  0.8560  0.5834 -0.0942
  108OSM    H4S11094   5.124   1.500  10.309  1.1935  1.5186  1.4353
  108OSM    C5S11095   4.930   1.502  10.219  0.5024  0.2332  0.2392
  108OSM    H5S11096   4.822   1.498  10.241  0.4449  0.0719 -0.0669
  108OSM    C6S11097   4.971   1.488  10.079 -0.4378  0.2705 -0.6529
  108OSM    H6S11098   4.947   1.388  10.038  1.2492 -0.5428  0.2516
  108OSM    H6T11099   5.083   1.489  10.082 -0.4088  1.4448 -1.7045
  108OSM    C7S11100   4.915   1.595   9.988  0.1914  0.6397  0.1768
  108OSM    H7S11101   4.955   1.692  10.024  0.0848 -0.5377  3.6201
  108OSM    H7T11102   4.806   1.592  10.009  0.0947 -2.1863 -0.5288
  108OSM    C8S11103   4.948   1.565   9.838  0.3675  0.2978 -0.0835
  108OSM    H8S11104   4.887   1.485   9.793  0.8034  0.8298 -1.6464
  108OSM    H8T11105   5.057   1.542   9.845 -0.1744 -1.8018  2.4655
  108OSM    C9S11106   4.929   1.693   9.742 -0.1611 -0.6307 -0.1676
  108OSM    H9S11107   4.975   1.783   9.789  2.0603 -1.1907 -1.2036
  108OSM    H9T11108   4.819   1.703   9.738 -0.0438  1.6431  0.9431
  108OSM   C10S11109   4.992   1.676   9.602 -0.2754 -0.3010 -0.5596
  108OSM   H10S11110   4.969   1.568   9.586  1.4245 -0.8956  0.9042
  108OSM   H10T11111   5.102   1.687   9.609 -0.3403  0.8755 -1.2852
  108OSM   C11S11112   4.909   1.757   9.505 -0.0056 -0.5030 -0.3238
  108OSM   H11S11113   4.948   1.861   9.508  3.5083 -1.7366 -0.3298
  108OSM   H11T11114   4.802   1.748   9.532  0.7209 -3.6139  1.8290
  108OSM   C12S11115   4.929   1.706   9.357  0.5791  0.1929  0.1138
  108OSM   H12S11116   5.027   1.656   9.343 -0.7091 -2.3995  0.0020
  108OSM   H12T11117   4.931   1.799   9.296  2.8701 -0.6787 -1.1795
  108OSM   C13S11118   4.814   1.608   9.315  0.3051 -0.4083  0.0424
  108OSM   H13S11119   4.712   1.647   9.336 -0.9100 -3.3827 -0.2057
  108OSM   H13T11120   4.828   1.513   9.370 -1.1559 -0.4544  0.3338
  108OSM   C14S11121   4.812   1.583   9.160 -0.2362  0.0927 -0.3249
  108OSM   H14S11122   4.747   1.497   9.132  0.1340  0.6738 -3.0848
  108OSM   H14T11123   4.917   1.558   9.134  0.0171  1.3412 -0.5353
  108OSM   C15S11124   4.770   1.698   9.069  0.5698  0.0334 -0.1702
  108OSM   H15S11125   4.813   1.797   9.094  0.4013  0.0045  0.2278
  108OSM   H15T11126   4.661   1.702   9.089  0.1394 -1.2378 -2.0268
  108OSM   C16S11127   4.796   1.656   8.924  0.5545 -0.3924 -0.3474
  108OSM   H16S11128   4.721   1.576   8.903 -1.9293  1.3866  1.3828
  108OSM   H16T11129   4.896   1.609   8.918 -0.0538 -1.4307 -2.9373
  108OSM   C17S11130   4.773   1.758   8.807 -0.3193 -0.4526 -0.7403
  108OSM   H17S11131   4.673   1.808   8.808  0.2811  0.7717 -1.5613
  108OSM   H17T11132   4.786   1.711   8.707  0.1878  1.2208 -1.4852
  108OSM   C18S11133   4.876   1.870   8.814  0.9751 -0.4340  0.4637
  108OSM   H18S11134   4.844   1.961   8.759 -2.1987 -0.9620  1.3777
  108OSM   H18T11135   4.972   1.834   8.771  0.2311 -0.5749 -1.1435
  108OSM   H18U11136   4.899   1.906   8.916 -1.8866  0.2372  0.9090
  108OSM    C1F11137   4.961   1.888  10.459 -0.5777 -0.4020  0.1743
  108OSM     OF11138   5.028   1.925  10.554 -0.2688  0.1784 -0.3715
  108OSM    C2F11139   4.933   1.984  10.350  0.8387 -0.0260  0.3663
  108OSM    H2F11140   5.025   1.993  10.288  0.3943  1.5638 -0.0804
  108OSM    H2G11141   4.916   2.089  10.383  2.0109 -0.1651  1.4508
  108OSM    C3F11142   4.824   1.946  10.253  0.4995  0.6015 -0.0360
  108OSM    H3F11143   4.728   1.924  10.303  0.0929  1.7038 -0.3288
  108OSM    H3G11144   4.851   1.851  10.202  1.2044 -0.2265  1.8472
  108OSM    C4F11145   4.787   2.071  10.164  0.8405 -0.7380  0.9739
  108OSM    H4F11146   4.888   2.109  10.138  0.2364 -1.7289 -3.1795
  108OSM    H4G11147   4.739   2.154  10.219 -0.7847  1.4690 -3.5212
  108OSM    C5F11148   4.699   2.028  10.044  0.5836 -0.1245 -0.4299
  108OSM    H5F11149   4.602   2.010  10.095 -0.1532  1.7464 -1.1426
  108OSM    H5G11150   4.736   1.930  10.006 -0.3521 -0.7500  0.2484
  108OSM    C6F11151   4.708   2.117   9.919 -0.3445  1.2695 -0.1035
  108OSM    H6F11152   4.808   2.108   9.870 -0.4820 -0.2429 -0.1157
  108OSM    H6G11153   4.686   2.223   9.941 -0.2137  1.1727  0.5131
  108OSM    C7F11154   4.599   2.071   9.822  0.6032  0.2541 -0.1252
  108OSM    H7F11155   4.511   2.123   9.865  0.2184 -0.0285 -0.5761
  108OSM    H7G11156   4.584   1.961   9.830 -1.4338  0.4981 -0.2712
  108OSM    C8F11157   4.621   2.115   9.682 -0.4028 -0.2978 -0.2002
  108OSM    H8F11158   4.721   2.084   9.645  0.8887  3.0373  0.3372
  108OSM    H8G11159   4.625   2.225   9.695  0.8700 -0.4070  0.4790
  108OSM    C9F11160   4.504   2.075   9.583  0.4578  0.2686  0.9399
  108OSM    H9F11161   4.401   2.073   9.621  0.8527  0.3040  2.0045
  108OSM   C10F11162   4.501   2.032   9.457 -0.9383  0.0320  0.2536
  108OSM   H10F11163   4.410   2.001   9.405  1.0929 -1.4279 -2.5172
  108OSM   C11F11164   4.630   2.009   9.384  0.6277  0.0046  0.0473
  108OSM   H11F11165   4.604   1.926   9.315 -1.3872  0.3239  0.3856
  108OSM   H11G11166   4.709   1.982   9.457 -2.0515 -2.5399  2.1478
  108OSM   C12F11167   4.672   2.138   9.298  0.5490 -0.3099  0.4425
  108OSM   H12F11168   4.776   2.121   9.263  0.9382  0.8827  0.9956
  108OSM   H12G11169   4.662   2.228   9.363  0.2208  2.9197 -3.9034
  108OSM   C13F11170   4.581   2.160   9.179 -0.3936 -0.0312  0.7740
  108OSM   H13F11171   4.479   2.174   9.222 -0.3596  1.6189  0.3646
  108OSM   H13G11172   4.589   2.082   9.101  0.2278  1.9562 -1.2182
  108OSM   C14F11173   4.604   2.295   9.109  0.4692  0.5233 -0.3982
  108OSM   H14F11174   4.715   2.302   9.096  0.6049  1.7822  1.2904
  108OSM   H14G11175   4.596   2.382   9.177  0.8511 -0.4813  0.9621
  108OSM   C15F11176   4.522   2.319   8.983  0.4318 -0.0450  0.1589
  108OSM   H15F11177   4.525   2.227   8.920 -1.3105 -1.3091  1.8797
  108OSM   H15G11178   4.565   2.407   8.930  1.0353  1.0833  2.4838
  108OSM   C16F11179   4.380   2.364   9.022  0.4642  0.0087  0.0773
  108OSM   H16F11180   4.403   2.450   9.088 -3.7069  2.4741 -1.4700
  108OSM   H16G11181   4.323   2.301   9.092 -2.3160  1.4725 -0.7878
  108OSM   C17F11182   4.291   2.404   8.906 -0.4184 -0.3088 -0.6654
  108OSM   H17F11183   4.274   2.321   8.834  0.1899  1.1947 -2.5623
  108OSM   H17G11184   4.338   2.487   8.850  1.8604 -1.5767 -0.6897
  108OSM   C18F11185   4.151   2.460   8.952  0.0935 -0.8972  0.0547
  108OSM   H18F11186   4.092   2.378   8.998 -1.9116  1.0407  1.0925
  108OSM   H18G11187   4.095   2.502   8.865  0.9863 -1.8566 -0.9922
  108OSM   H18H11188   4.179   2.547   9.015  2.3868  0.3990 -2.6458
  109OSM      N11189   5.531   3.711  11.006  0.7977 -1.0540  0.3573
  109OSM    C1511190   5.589   3.717  11.152 -1.4306  0.0107  0.3464
  109OSM   H15A11191   5.660   3.637  11.168  0.6478  1.9416  1.0707
  109OSM   H15B11192   5.514   3.721  11.229  0.7890  0.4070  2.5324
  109OSM   H15C11193   5.646   3.808  11.164  0.0334 -1.0879  1.8515
  109OSM    C1411194   5.644   3.738  10.917 -0.1021 -0.2529 -0.1163
  109OSM   H14A11195   5.684   3.837  10.933 -1.1399  0.1183  0.2911
  109OSM   H14B11196   5.626   3.715  10.813  0.1755  1.1385 -0.4885
  109OSM   H14C11197   5.726   3.674  10.943  0.1529 -0.4034 -1.2944
  109OSM    C1311198   5.490   3.574  10.979  0.2381  0.7943 -0.6603
  109OSM   H13A11199   5.442   3.557  10.884 -0.6097  0.5639 -0.1970
  109OSM   H13B11200   5.426   3.542  11.060 -0.5638  0.1049 -1.5514
  109OSM   H13C11201   5.578   3.512  10.985 -0.6240 -0.5287 -1.2293
  109OSM    C1211202   5.413   3.805  10.981 -0.7949 -0.7781 -0.8985
  109OSM   H12A11203   5.446   3.904  11.009  1.7114 -1.1035 -2.5105
  109OSM   H12B11204   5.335   3.791  11.054 -0.8968  2.0587 -0.3985
  109OSM    C1111205   5.346   3.806  10.847  0.5462  0.0929  0.6693
  109OSM   H11A11206   5.430   3.839  10.782  0.7077 -0.6371  0.5022
  109OSM   H11B11207   5.269   3.885  10.836 -1.0769 -1.5097  0.2785
  109OSM      P11208   5.291   3.626  10.657  0.3994  0.3187  0.2227
  109OSM    O1311209   5.426   3.619  10.602 -0.2358  0.0859  0.1844
  109OSM    O1411210   5.214   3.499  10.650  0.1081 -0.6029  0.1279
  109OSM    O1111211   5.221   3.738  10.578 -0.4027  0.0685  0.2590
  109OSM    O1211212   5.287   3.684  10.802 -0.7856  0.9705  0.5371
  109OSM    C1S11213   5.246   3.779  10.449 -0.5719  0.3766 -0.8095
  109OSM    H1S11214   5.350   3.762  10.415 -0.7636 -0.8713 -0.7959
  109OSM    H1T11215   5.233   3.890  10.448  1.2476  0.5997 -0.6111
  109OSM     NF11216   5.168   3.771  10.223 -0.3578 -0.1503  0.4459
  109OSM    HNF11217   5.124   3.854  10.190  0.9026  0.5699  0.5479
  109OSM    C2S11218   5.135   3.723  10.357 -0.1011 -0.0020 -0.1062
  109OSM    H2S11219   5.143   3.612  10.358 -0.5647 -0.0330  1.1497
  109OSM    C3S11220   4.997   3.774  10.408 -0.3400 -0.1386  0.0456
  109OSM    H3S11221   5.012   3.883  10.422  1.6742 -0.6493  2.2554
  109OSM     O311222   4.954   3.717  10.531 -0.0027  0.1790 -0.3409
  109OSM    HO311223   5.039   3.695  10.569 -0.6970 -5.3075 -1.4798
  109OSM    C4S11224   4.879   3.759  10.313  0.8103 -0.5997 -0.4847
  109OSM    H4S11225   4.855   3.659  10.275 -1.6840 -0.3238  0.2910
  109OSM    C5S11226   4.818   3.858  10.249 -0.5129 -0.6169  0.4031
  109OSM    H5S11227   4.854   3.961  10.260 -1.3304 -0.0142 -2.1469
  109OSM    C6S11228   4.713   3.842  10.142 -0.1929 -0.3541 -0.3515
  109OSM    H6S11229   4.651   3.933  10.138 -0.0980 -0.2300  0.9575
  109OSM    H6T11230   4.638   3.761  10.157 -0.5296 -0.3311 -1.7988
  109OSM    C7S11231   4.769   3.823  10.000  0.5629  0.3806 -0.0323
  109OSM    H7S11232   4.681   3.810   9.934 -1.1255 -0.6506  2.3195
  109OSM    H7T11233   4.812   3.721   9.994 -1.9005 -0.6917 -0.1029
  109OSM    C8S11234   4.878   3.926   9.957 -0.3104  0.2102 -0.2138
  109OSM    H8S11235   4.978   3.895   9.996  1.2451  1.7100 -2.8349
  109OSM    H8T11236   4.850   4.022  10.005  0.1449  1.1271 -1.7380
  109OSM    C9S11237   4.895   3.951   9.807  0.0308  0.2126 -0.0904
  109OSM    H9S11238   4.815   4.023   9.778  2.0702  3.1037  1.1730
  109OSM    H9T11239   4.865   3.862   9.748 -0.4700  0.2826  0.0596
  109OSM   C10S11240   5.026   4.003   9.759  0.0793  0.4641  0.0123
  109OSM   H10S11241   5.098   3.919   9.769 -2.1300 -1.2681  1.9257
  109OSM   H10T11242   5.062   4.084   9.826  1.3087 -0.3968  0.4017
  109OSM   C11S11243   5.018   4.064   9.612  0.2054 -0.2596 -0.0198
  109OSM   H11S11244   5.110   4.122   9.589  1.2904 -1.2923  1.6249
  109OSM   H11T11245   4.928   4.129   9.618  0.8178  0.9294 -2.9481
  109OSM   C12S11246   4.989   3.955   9.504 -0.1742  0.3739 -0.8953
  109OSM   H12S11247   4.883   3.923   9.506 -0.3467  1.0262  0.6344
  109OSM   H12T11248   5.059   3.870   9.519 -1.1139 -0.1742  0.4555
  109OSM   C13S11249   5.009   3.999   9.362  0.4461  0.3357  0.3634
  109OSM   H13S11250   5.118   4.014   9.349  0.2420  0.6160 -1.1660
  109OSM   H13T11251   4.947   4.089   9.339 -2.8989 -2.1419 -0.7969
  109OSM   C14S11252   4.961   3.897   9.259  0.0413 -0.6115 -0.1442
  109OSM   H14S11253   4.851   3.895   9.245 -0.0120 -1.0727  0.3575
  109OSM   H14T11254   4.994   3.794   9.286  2.9510  0.8084  2.0523
  109OSM   C15S11255   5.007   3.924   9.115 -0.1811  0.8035  0.4518
  109OSM   H15S11256   4.983   4.025   9.077 -0.6400  0.6061  0.2192
  109OSM   H15T11257   4.946   3.860   9.048 -1.0200  1.4569  0.5834
  109OSM   C16S11258   5.150   3.880   9.072  0.1569  0.1633 -0.1929
  109OSM   H16S11259   5.159   3.773   9.099  0.2596  0.1763 -0.1750
  109OSM   H16T11260   5.224   3.932   9.137 -0.7665  1.5595 -0.2251
  109OSM   C17S11261   5.159   3.895   8.921 -0.3418  0.0082 -0.6846
  109OSM   H17S11262   5.064   3.875   8.868 -1.2551  1.8914  0.1908
  109OSM   H17T11263   5.229   3.821   8.877  0.3690  0.7916 -0.9061
  109OSM   C18S11264   5.193   4.040   8.890  0.3156  0.3688 -0.1683
  109OSM   H18S11265   5.185   4.060   8.781  1.1689  1.2279 -0.0779
  109OSM   H18T11266   5.291   4.068   8.934  0.5846  0.1478 -0.6143
  109OSM   H18U11267   5.107   4.094   8.935  0.1530 -0.3193  0.3559
  109OSM    C1F11268   5.273   3.719  10.151  0.7493 -0.1181  0.0271
  109OSM     OF11269   5.364   3.660  10.209  0.2133  0.1832  0.4272
  109OSM    C2F11270   5.277   3.759  10.002 -0.6170  0.2256  0.0244
  109OSM    H2F11271   5.242   3.863   9.989  0.0138  0.3932 -0.3886
  109OSM    H2G11272   5.199   3.697   9.953  1.0389 -1.5780 -0.3732
  109OSM    C3F11273   5.404   3.738   9.932  0.1456  0.4327 -0.6130
  109OSM    H3F11274   5.451   3.639   9.949  2.3644  1.8970  2.3241
  109OSM    H3G11275   5.475   3.819   9.961 -1.6087  0.8863  2.6293
  109OSM    C4F11276   5.381   3.758   9.781  0.6172 -0.6850  0.1615
  109OSM    H4F11277   5.316   3.848   9.774  0.5369 -0.6879  0.8287
  109OSM    H4G11278   5.320   3.670   9.750  0.2798  0.1317 -1.5478
  109OSM    C5F11279   5.519   3.773   9.717 -0.5859 -0.3093 -0.0065
  109OSM    H5F11280   5.573   3.678   9.736 -4.0461 -2.4809 -0.4694
  109OSM    H5G11281   5.581   3.851   9.766 -1.9546  0.9669 -0.2761
  109OSM    C6F11282   5.498   3.813   9.572 -0.1076 -0.6328 -0.0987
  109OSM    H6F11283   5.453   3.914   9.565 -2.2873 -1.3994  2.0866
  109OSM    H6G11284   5.422   3.744   9.527 -1.3424  0.8128 -0.2714
  109OSM    C7F11285   5.627   3.820   9.499 -0.4052 -0.2785  0.2424
  109OSM    H7F11286   5.658   3.716   9.478 -2.4972 -1.4480  2.6248
  109OSM    H7G11287   5.691   3.866   9.578 -0.8168  0.2763  0.2594
  109OSM    C8F11288   5.623   3.900   9.367  0.3816 -0.2168  0.2012
  109OSM    H8F11289   5.563   3.988   9.400  0.4885  0.7892 -2.1545
  109OSM    H8G11290   5.552   3.846   9.300  2.6507 -2.7200 -0.2553
  109OSM    C9F11291   5.754   3.932   9.306 -0.0296  0.7151  0.4728
  109OSM    H9F11292   5.827   3.971   9.378  2.1726  0.2267 -1.4255
  109OSM   C10F11293   5.801   3.884   9.192 -0.2506  0.0553 -0.4833
  109OSM   H10F11294   5.908   3.903   9.173  0.3019 -0.8710  1.5874
  109OSM   C11F11295   5.725   3.799   9.100  0.9831 -0.7312  0.4545
  109OSM   H11F11296   5.622   3.781   9.137  0.2830  0.9327 -0.6265
  109OSM   H11G11297   5.773   3.699   9.091  1.3359 -0.4737 -0.4991
  109OSM   C12F11298   5.700   3.844   8.949  0.2106  0.2497 -0.3903
  109OSM   H12F11299   5.803   3.840   8.909 -0.0600  0.2256 -1.0917
  109OSM   H12G11300   5.663   3.948   8.951  0.9333  0.5280 -1.6504
  109OSM   C13F11301   5.610   3.750   8.857 -0.5763  0.2371 -0.1628
  109OSM   H13F11302   5.521   3.710   8.910  0.6682 -0.7711  1.2199
  109OSM   H13G11303   5.684   3.673   8.826 -1.2274  0.7831 -3.1510
  109OSM   C14F11304   5.555   3.814   8.731 -0.0848  0.1604  0.5872
  109OSM   H14F11305   5.457   3.864   8.749 -1.1608 -1.9536  0.6974
  109OSM   H14G11306   5.529   3.742   8.651  1.0026  0.0201  0.3582
  109OSM   C15F11307   5.651   3.920   8.675 -0.0477  0.1669 -0.3733
  109OSM   H15F11308   5.738   3.863   8.636  0.0715  0.9682 -1.2950
  109OSM   H15G11309   5.694   3.991   8.749 -2.6150  0.2144  1.1383
  109OSM   C16F11310   5.601   4.005   8.561  0.5204 -0.0791  0.6962
  109OSM   H16F11311   5.499   4.037   8.589 -0.6401 -3.0409  0.0659
  109OSM   H16G11312   5.576   3.949   8.468 -1.8439 -1.5157  2.1576
  109OSM   C17F11313   5.686   4.125   8.528 -0.3457  0.0754 -0.4260
  109OSM   H17F11314   5.666   4.199   8.608  1.6175 -0.6076  0.7391
  109OSM   H17G11315   5.657   4.179   8.435 -1.0022  0.5807  0.0706
  109OSM   C18F11316   5.836   4.091   8.504  0.3788  0.4444  0.8560
  109OSM   H18F11317   5.853   4.037   8.408 -2.2986  1.3341 -0.1708
  109OSM   H18G11318   5.875   4.028   8.587  0.5943  0.1442  0.5308
  109OSM   H18H11319   5.903   4.179   8.496 -1.2419  1.4107 -3.2572
  110OSM      N11320   5.660   2.859  10.822  0.3299  0.1326  0.3866
  110OSM    C1511321   5.617   2.833  10.961  0.2380  0.8426  0.1561
  110OSM   H15A11322   5.567   2.737  10.966 -0.0268  1.0383  1.5477
  110OSM   H15B11323   5.545   2.907  10.992  0.9081  2.4779 -2.0397
  110OSM   H15C11324   5.700   2.820  11.028  2.0329 -0.6320 -2.2726
  110OSM    C1411325   5.536   2.870  10.733  0.3115  0.1162 -0.1736
  110OSM   H14A11326   5.479   2.959  10.757  0.5551 -0.2305  1.7829
  110OSM   H14B11327   5.470   2.787  10.750  1.1453 -0.8816 -1.7232
  110OSM   H14C11328   5.569   2.858  10.631 -1.1810 -0.6085 -0.5732
  110OSM    C1311329   5.732   2.995  10.816  0.3678  0.4492  0.2312
  110OSM   H13A11330   5.823   2.992  10.875  0.8880  1.4559 -0.5021
  110OSM   H13B11331   5.680   3.079  10.860 -1.8869 -0.9685  0.3486
  110OSM   H13C11332   5.767   3.020  10.717 -0.2967  0.1907 -0.0701
  110OSM    C1211333   5.747   2.750  10.768 -0.7040  0.4858 -0.6196
  110OSM   H12A11334   5.763   2.774  10.664 -3.0345  1.2923 -0.8210
  110OSM   H12B11335   5.695   2.656  10.779  0.4746 -0.6492 -3.9786
  110OSM    C1111336   5.887   2.739  10.832 -0.2392  0.2790  0.3519
  110OSM   H11A11337   5.878   2.757  10.942  2.9117  0.0771  0.6817
  110OSM   H11B11338   5.965   2.811  10.800  1.1380 -0.7567  1.3094
  110OSM      P11339   6.060   2.551  10.864  0.2624  0.2629 -0.1488
  110OSM    O1311340   6.092   2.604  10.996  0.0344 -0.4661 -0.2746
  110OSM    O1411341   6.058   2.401  10.861  0.5436  0.0723 -0.1072
  110OSM    O1111342   6.161   2.608  10.756 -0.4756 -0.0118  0.5357
  110OSM    O1211343   5.928   2.603  10.813  0.1758 -0.4395  0.6833
  110OSM    C1S11344   6.160   2.565  10.620  0.3959  0.6509  0.8449
  110OSM    H1S11345   6.109   2.631  10.546  2.2239  0.7422 -0.3717
  110OSM    H1T11346   6.121   2.461  10.607 -0.5155  0.9448  1.1673
  110OSM     NF11347   6.318   2.532  10.433 -0.1516  0.2387  0.3843
  110OSM    HNF11348   6.335   2.437  10.408  0.8582  0.4244  0.3654
  110OSM    C2S11349   6.314   2.558  10.572  0.5205 -0.0217 -0.1983
  110OSM    H2S11350   6.353   2.660  10.593 -2.3346  1.2940 -0.9805
  110OSM    C3S11351   6.391   2.463  10.664 -0.2765 -0.3594 -0.0371
  110OSM    H3S11352   6.354   2.359  10.674 -1.2080  0.1118  1.4752
  110OSM     O311353   6.400   2.502  10.798 -0.1762  0.0756  0.0446
  110OSM    HO311354   6.340   2.577  10.804 -0.2394  0.2831 -2.6247
  110OSM    C4S11355   6.534   2.452  10.612  0.0107 -0.0813  0.5591
  110OSM    H4S11356   6.604   2.537  10.622  2.2868 -1.9111  0.6247
  110OSM    C5S11357   6.578   2.340  10.560 -0.8440  1.2698 -0.7202
  110OSM    H5S11358   6.509   2.255  10.561  0.4212  0.1686 -3.3690
  110OSM    C6S11359   6.713   2.313  10.504  0.5846  0.5495 -0.2044
  110OSM    H6S11360   6.765   2.232  10.559  1.7060  0.4334 -1.4113
  110OSM    H6T11361   6.772   2.408  10.505  1.0625  0.2545 -0.3243
  110OSM    C7S11362   6.711   2.253  10.360  0.1199 -0.6275 -0.2490
  110OSM    H7S11363   6.668   2.151  10.372 -1.7085 -0.0045 -1.3021
  110OSM    H7T11364   6.819   2.247  10.335 -0.3849 -1.9706 -2.2993
  110OSM    C8S11365   6.634   2.327  10.250  0.0056 -0.1317  0.6409
  110OSM    H8S11366   6.640   2.437  10.258 -0.7327 -0.0598  0.1965
  110OSM    H8T11367   6.530   2.294  10.272 -1.1099  2.6339 -0.3618
  110OSM    C9S11368   6.675   2.274  10.108  0.2297 -0.6601 -0.3819
  110OSM    H9S11369   6.672   2.163  10.114 -0.5214 -0.5938  0.5255
  110OSM    H9T11370   6.781   2.300  10.087 -0.0759  0.9313  0.0264
  110OSM   C10S11371   6.581   2.339   9.999 -1.2231  0.2769 -0.5886
  110OSM   H10S11372   6.573   2.447  10.021 -1.1359 -0.1875  1.8930
  110OSM   H10T11373   6.489   2.277  10.007 -0.3713 -0.9333  0.0630
  110OSM   C11S11374   6.645   2.323   9.858  0.0774 -0.6165  0.2370
  110OSM   H11S11375   6.660   2.215   9.838  1.2634 -0.5995  1.0408
  110OSM   H11T11376   6.746   2.368   9.862 -1.3543  3.1569 -2.6773
  110OSM   C12S11377   6.569   2.396   9.744  0.0287  0.3013 -0.4730
  110OSM   H12S11378   6.582   2.506   9.754  1.2200  0.2637 -1.4494
  110OSM   H12T11379   6.469   2.352   9.763  0.6069 -0.2671  1.3745
  110OSM   C13S11380   6.627   2.354   9.608 -0.2450  0.4253 -0.1426
  110OSM   H13S11381   6.636   2.243   9.610 -0.7209  0.3923  0.5633
  110OSM   H13T11382   6.727   2.400   9.594  0.3137 -1.5981 -3.2383
  110OSM   C14S11383   6.539   2.412   9.507  0.0284  0.5287 -0.1180
  110OSM   H14S11384   6.530   2.521   9.528 -3.6982  0.7426 -2.3496
  110OSM   H14T11385   6.437   2.368   9.510  0.4737 -0.4403  1.1038
  110OSM   C15S11386   6.596   2.387   9.369 -0.7304 -0.4802  0.5477
  110OSM   H15S11387   6.589   2.287   9.322 -2.4563 -0.1930  0.1726
  110OSM   H15T11388   6.705   2.405   9.381 -0.7989 -0.6616  1.4149
  110OSM   C16S11389   6.543   2.483   9.266 -0.8868  0.1302  0.3260
  110OSM   H16S11390   6.598   2.467   9.171 -0.0576  3.4536  0.1687
  110OSM   H16T11391   6.564   2.585   9.305  0.0660 -0.8367  2.4326
  110OSM   C17S11392   6.392   2.469   9.228  0.9374  0.2391 -0.3882
  110OSM   H17S11393   6.333   2.491   9.319  0.7278  0.9371 -0.6921
  110OSM   H17T11394   6.375   2.360   9.210  0.2049  0.4817 -1.2199
  110OSM   C18S11395   6.351   2.548   9.104 -0.0716 -0.3680 -0.2172
  110OSM   H18S11396   6.361   2.657   9.124  1.6103 -0.6961  0.8785
  110OSM   H18T11397   6.241   2.542   9.090  0.2935  1.3069 -4.6401
  110OSM   H18U11398   6.408   2.522   9.012 -0.3096 -1.0645 -0.1726
  110OSM    C1F11399   6.294   2.617  10.338  0.0476  0.0590  0.0195
  110OSM     OF11400   6.262   2.730  10.366  0.8105 -0.0271 -0.1839
  110OSM    C2F11401   6.302   2.559  10.198 -0.3265  0.3761 -0.3165
  110OSM    H2F11402   6.244   2.464  10.198  1.4612 -0.7337  0.2638
  110OSM    H2G11403   6.409   2.534  10.189  0.1794  2.1039  0.6319
  110OSM    C3F11404   6.239   2.652  10.092 -0.0305  0.1103  0.7444
  110OSM    H3F11405   6.292   2.750  10.094 -0.2272  0.2021  1.7035
  110OSM    H3G11406   6.132   2.675  10.115 -0.1209 -2.5214  3.1802
  110OSM    C4F11407   6.254   2.584   9.961  0.5584 -0.1724 -0.0495
  110OSM    H4F11408   6.185   2.498   9.967  0.0839  0.1438 -0.9260
  110OSM    H4G11409   6.360   2.558   9.942  0.7518  1.4753 -1.3267
  110OSM    C5F11410   6.223   2.668   9.836  0.3899 -0.3226 -0.1399
  110OSM    H5F11411   6.310   2.736   9.833  0.7281 -0.7691 -0.5091
  110OSM    H5G11412   6.139   2.740   9.851  1.9456  1.8607 -1.6197
  110OSM    C6F11413   6.190   2.587   9.710 -0.2599 -0.5228  0.0441
  110OSM    H6F11414   6.104   2.520   9.734 -0.8907  0.0100 -0.7339
  110OSM    H6G11415   6.274   2.519   9.685  0.5838  0.9174 -1.0953
  110OSM    C7F11416   6.154   2.665   9.579 -0.5494 -0.2792  0.4747
  110OSM    H7F11417   6.255   2.696   9.543 -1.1650  0.6920 -0.4123
  110OSM    H7G11418   6.082   2.744   9.607 -0.3515  0.6094 -1.5077
  110OSM    C8F11419   6.082   2.576   9.475  0.0858 -0.8472 -0.0021
  110OSM    H8F11420   6.141   2.486   9.448 -0.6140 -1.4832  0.5474
  110OSM    H8G11421   6.084   2.635   9.381 -0.5663  1.4926  1.3978
  110OSM    C9F11422   5.936   2.529   9.506  0.3154  0.2835  0.1346
  110OSM    H9F11423   5.933   2.453   9.585 -1.1600 -1.3586 -1.4568
  110OSM   C10F11424   5.825   2.590   9.466  0.0783 -0.4190 -0.3164
  110OSM   H10F11425   5.730   2.557   9.510  1.1268 -1.2719  1.3884
  110OSM   C11F11426   5.809   2.713   9.383  0.3579  0.8338 -0.6298
  110OSM   H11F11427   5.905   2.759   9.350  1.3723 -0.1485  0.8780
  110OSM   H11G11428   5.755   2.779   9.453 -1.4045  1.4229 -2.4758
  110OSM   C12F11429   5.722   2.688   9.260  0.4275  0.5367  0.1474
  110OSM   H12F11430   5.621   2.678   9.306 -0.2031  1.6057 -0.9985
  110OSM   H12G11431   5.752   2.592   9.213 -0.0334  0.2539  0.4208
  110OSM   C13F11432   5.716   2.808   9.149 -0.3616  0.6341  0.0105
  110OSM   H13F11433   5.673   2.897   9.199 -0.6842  0.9330 -0.7900
  110OSM   H13G11434   5.633   2.774   9.083  0.8853 -2.5229 -0.0204
  110OSM   C14F11435   5.846   2.822   9.071 -0.1405  0.1912  0.4289
  110OSM   H14F11436   5.887   2.722   9.049 -1.2486 -0.2052  0.1089
  110OSM   H14G11437   5.922   2.870   9.136 -0.2945 -0.4947  1.1244
  110OSM   C15F11438   5.823   2.910   8.947 -0.7810  0.3300 -0.4979
  110OSM   H15F11439   5.793   3.012   8.979  0.6725  1.2366 -1.9733
  110OSM   H15G11440   5.734   2.868   8.895 -2.9195  2.1495  1.5286
  110OSM   C16F11441   5.944   2.919   8.849  1.1244 -0.3382 -0.3989
  110OSM   H16F11442   5.943   2.843   8.768 -0.6906  0.7779 -1.4418
  110OSM   H16G11443   6.039   2.911   8.905  1.4345 -0.2426 -0.9100
  110OSM   C17F11444   5.942   3.055   8.781  0.1373 -0.2533 -0.2717
  110OSM   H17F11445   5.839   3.095   8.770  1.0750  2.7016  1.2797
  110OSM   H17G11446   5.983   3.056   8.678 -0.8141  1.5852 -0.6661
  110OSM   C18F11447   6.018   3.164   8.858  0.4351  1.1216 -0.1461
  110OSM   H18F11448   5.989   3.157   8.965 -3.2040 -0.8999 -1.1718
  110OSM   H18G11449   6.002   3.267   8.822 -0.4844  1.2077  0.4899
  110OSM   H18H11450   6.126   3.139   8.868  0.1821  0.4940  1.2535
  111OSM      N11451   0.463   6.203  10.919 -0.5166  0.5107  0.3761
  111OSM    C1511452   0.357   6.231  11.021  0.0493 -0.4989 -0.1008
  111OSM   H15A11453   0.332   6.336  11.029  1.0927 -0.1775 -0.8548
  111OSM   H15B11454   0.386   6.192  11.117 -0.4814 -0.3739  0.1118
  111OSM   H15C11455   0.264   6.186  10.989 -0.6649  0.0629  1.1378
  111OSM    C1411456   0.469   6.059  10.902 -0.0847  0.1849  0.1656
  111OSM   H14A11457   0.379   6.012  10.865  0.6593  0.6132 -2.2875
  111OSM   H14B11458   0.512   6.008  10.987  2.6459 -1.1185 -1.8961
  111OSM   H14C11459   0.538   6.037  10.821 -0.9865 -1.2067 -0.2535
  111OSM    C1311460   0.409   6.263  10.789 -0.4443  0.2207 -0.2947
  111OSM   H13A11461   0.308   6.230  10.770 -0.9016  2.8266 -2.6939
  111OSM   H13B11462   0.457   6.235  10.697  1.2285 -1.2440  1.0034
  111OSM   H13C11463   0.406   6.371  10.789 -0.9200  0.2091  0.2005
  111OSM    C1211464   0.590   6.275  10.952  0.3416  0.0808  0.0161
  111OSM   H12A11465   0.625   6.249  11.051  0.6268  0.5919  0.0556
  111OSM   H12B11466   0.568   6.381  10.957  1.2817  0.2071  1.8989
  111OSM    C1111467   0.706   6.257  10.853 -0.0342  0.5171  0.2584
  111OSM   H11A11468   0.712   6.148  10.830 -0.7852  0.2478  1.3115
  111OSM   H11B11469   0.806   6.281  10.892 -0.0186  2.1775 -0.7552
  111OSM      P11470   0.712   6.473  10.715  0.1543  0.1350 -0.2884
  111OSM    O1311471   0.600   6.546  10.771  0.0682 -0.7344 -0.0894
  111OSM    O1411472   0.842   6.500  10.784 -0.3697 -0.7449 -0.0893
  111OSM    O1111473   0.736   6.511  10.562  0.2125  0.3484  0.5647
  111OSM    O1211474   0.690   6.318  10.727  0.1563 -0.1181  0.0590
  111OSM    C1S11475   0.821   6.425  10.487 -0.2220  0.0180  0.3032
  111OSM    H1S11476   0.866   6.348  10.553  0.4321  0.3794  0.2722
  111OSM    H1T11477   0.909   6.482  10.449 -2.1588  2.4296 -0.7228
  111OSM     NF11478   0.859   6.261  10.299 -0.1088  0.0920  0.0934
  111OSM    HNF11479   0.891   6.286  10.208 -0.5724 -2.6841 -0.8611
  111OSM    C2S11480   0.756   6.347  10.362  0.2972  0.0966  0.8040
  111OSM    H2S11481   0.671   6.284  10.395  0.5664 -0.7581 -0.1346
  111OSM    C3S11482   0.689   6.461  10.275  0.0430  0.7838  0.2223
  111OSM    H3S11483   0.768   6.531  10.239  2.1409 -1.3089  0.6435
  111OSM     O311484   0.596   6.553  10.341 -0.1321 -0.0886  0.7132
  111OSM    HO311485   0.634   6.564  10.429  2.4711 -1.5846 -0.1711
  111OSM    C4S11486   0.615   6.395  10.156  0.2040 -0.2906 -0.8308
  111OSM    H4S11487   0.685   6.358  10.079  0.0323  0.0746 -1.1654
  111OSM    C5S11488   0.482   6.372  10.149 -0.0616 -0.4007  0.0298
  111OSM    H5S11489   0.416   6.392  10.235  0.2513  0.0094  0.1722
  111OSM    C6S11490   0.416   6.309  10.029  0.5860 -0.2797 -0.0664
  111OSM    H6S11491   0.328   6.371   9.999  0.3849 -0.3508  0.3818
  111OSM    H6T11492   0.374   6.209  10.050  0.9871 -0.3598  0.3520
  111OSM    C7S11493   0.504   6.288   9.902 -0.4819 -0.1754  0.0774
  111OSM    H7S11494   0.602   6.243   9.927 -0.3658 -0.2140 -0.4380
  111OSM    H7T11495   0.526   6.390   9.863 -1.4560  0.2138  0.5184
  111OSM    C8S11496   0.425   6.218   9.788  0.0700  0.6436 -0.0509
  111OSM    H8S11497   0.325   6.264   9.778  0.5290  1.7071  0.2682
  111OSM    H8T11498   0.403   6.112   9.815  1.9833  0.2564  0.0491
  111OSM    C9S11499   0.505   6.215   9.658  0.1169 -0.2070  0.0248
  111OSM    H9S11500   0.573   6.128   9.647  0.2688 -0.4406  2.4149
  111OSM    H9T11501   0.575   6.300   9.647  1.1420 -0.8908  1.1480
  111OSM   C10S11502   0.408   6.239   9.530 -0.3062 -0.0123 -0.0234
  111OSM   H10S11503   0.352   6.334   9.543 -1.9611 -1.0783  0.8448
  111OSM   H10T11504   0.323   6.167   9.529 -1.1740  0.9947  0.2993
  111OSM   C11S11505   0.483   6.257   9.400 -0.1230 -0.2825 -0.0890
  111OSM   H11S11506   0.548   6.169   9.383 -1.2353 -0.5185 -3.3988
  111OSM   H11T11507   0.550   6.345   9.409 -2.7865  2.0543 -2.1689
  111OSM   C12S11508   0.385   6.264   9.283 -0.1913 -0.1594  0.1078
  111OSM   H12S11509   0.328   6.359   9.282  1.0639  0.5947 -0.6983
  111OSM   H12T11510   0.313   6.180   9.289 -0.1531 -0.2266 -0.3732
  111OSM   C13S11511   0.455   6.243   9.143 -0.4630 -0.9076 -0.5745
  111OSM   H13S11512   0.372   6.246   9.069 -1.4266 -0.6623  0.4939
  111OSM   H13T11513   0.503   6.142   9.145  4.6448  1.4096  0.6091
  111OSM   C14S11514   0.559   6.348   9.115  1.2692  0.3618  0.0398
  111OSM   H14S11515   0.635   6.285   9.064  0.8779  1.4140 -1.8858
  111OSM   H14T11516   0.602   6.384   9.212  0.9053 -0.8011  0.6488
  111OSM   C15S11517   0.512   6.462   9.029  0.3136  0.3569  0.5351
  111OSM   H15S11518   0.586   6.545   9.025 -0.5697  1.0538 -2.9113
  111OSM   H15T11519   0.423   6.516   9.069  0.5425  0.6316  0.6709
  111OSM   C16S11520   0.474   6.423   8.883  0.3851  0.0075 -0.0421
  111OSM   H16S11521   0.383   6.359   8.881 -1.3538  2.3597  0.4624
  111OSM   H16T11522   0.571   6.379   8.852  0.7187 -0.4101  1.5531
  111OSM   C17S11523   0.443   6.538   8.788  0.3233 -0.2185  0.5014
  111OSM   H17S11524   0.395   6.613   8.853 -3.0783 -0.3041 -1.7673
  111OSM   H17T11525   0.368   6.499   8.716  0.5263 -1.5704  0.9982
  111OSM   C18S11526   0.566   6.588   8.713 -0.1331 -0.2518  0.7852
  111OSM   H18S11527   0.600   6.512   8.639 -3.2394 -0.0526 -0.9341
  111OSM   H18T11528   0.642   6.608   8.791  1.0046 -3.1659  0.5015
  111OSM   H18U11529   0.544   6.684   8.662  0.4694 -0.9692 -0.8556
  111OSM    C1F11530   0.911   6.152  10.359 -0.5076 -0.3615  0.1326
  111OSM     OF11531   0.855   6.100  10.456  0.0186 -0.1811 -0.1448
  111OSM    C2F11532   1.030   6.084  10.301 -0.3748 -0.7080  0.0518
  111OSM    H2F11533   1.038   5.983  10.346 -0.1477 -0.6309  0.1863
  111OSM    H2G11534   1.118   6.142  10.337 -1.0121  0.1401  0.2574
  111OSM    C3F11535   1.024   6.089  10.151  0.0930 -0.5345 -0.6480
  111OSM    H3F11536   1.118   6.033  10.132 -0.0709 -1.1984  0.4533
  111OSM    H3G11537   1.035   6.190  10.107 -0.2053 -0.4797 -0.5973
  111OSM    C4F11538   0.919   5.999  10.094 -0.2549  0.3668  0.1988
  111OSM    H4F11539   0.815   6.035  10.109  0.3772  1.5048  1.9986
  111OSM    H4G11540   0.925   5.898  10.142  0.1932 -0.7420 -2.1453
  111OSM    C5F11541   0.946   5.974   9.951 -0.7741  0.5711 -0.3900
  111OSM    H5F11542   1.047   5.927   9.944 -1.1953 -0.8271  2.5095
  111OSM    H5G11543   0.966   6.073   9.904  0.1594  0.5777  0.0035
  111OSM    C6F11544   0.846   5.873   9.878  0.5616  0.0319  0.1578
  111OSM    H6F11545   0.838   5.780   9.937  0.5229  0.7108  1.2384
  111OSM    H6G11546   0.894   5.846   9.782 -0.9626 -0.9098 -0.3468
  111OSM    C7F11547   0.717   5.934   9.854 -0.7117 -0.7262  0.3252
  111OSM    H7F11548   0.720   5.999   9.763  2.1022 -1.3050 -0.0291
  111OSM    H7G11549   0.691   6.007   9.934  1.5280 -0.2057  0.5954
  111OSM    C8F11550   0.615   5.814   9.846  0.1282  0.4376  0.6356
  111OSM    H8F11551   0.599   5.775   9.948 -1.3810  1.1741  0.6960
  111OSM    H8G11552   0.659   5.730   9.787 -0.0219 -0.2060  1.4271
  111OSM    C9F11553   0.476   5.867   9.795 -0.3370  0.0237  0.0479
  111OSM    H9F11554   0.409   5.920   9.864 -0.4588  0.2606 -0.2522
  111OSM   C10F11555   0.443   5.848   9.659  0.0377  0.2176  0.6277
  111OSM   H10F11556   0.348   5.894   9.626  0.4857  0.7822  0.1147
  111OSM   C11F11557   0.530   5.792   9.550 -0.2887 -0.0765  0.9962
  111OSM   H11F11558   0.561   5.687   9.572 -0.3818 -0.1242  0.9046
  111OSM   H11G11559   0.626   5.848   9.548  0.1344 -0.8150  0.4357
  111OSM   C12F11560   0.471   5.799   9.408  0.0351  0.0777  0.5276
  111OSM   H12F11561   0.524   5.718   9.353 -1.5457  0.1411 -1.1109
  111OSM   H12G11562   0.503   5.894   9.361 -0.5428  0.9655  1.9155
  111OSM   C13F11563   0.320   5.778   9.380 -0.1608 -0.6441 -0.1861
  111OSM   H13F11564   0.266   5.861   9.432 -0.1972 -1.8105  1.6984
  111OSM   H13G11565   0.298   5.681   9.429  0.2712  0.1722  1.6733
  111OSM   C14F11566   0.294   5.792   9.230  0.8723  0.2233 -0.2240
  111OSM   H14F11567   0.300   5.901   9.209  1.2373  0.2112 -0.1774
  111OSM   H14G11568   0.190   5.763   9.206  0.3695  0.3047  1.7061
  111OSM   C15F11569   0.383   5.720   9.132  0.7033 -0.0552  0.6933
  111OSM   H15F11570   0.366   5.611   9.142 -1.0041  0.0031 -1.2768
  111OSM   H15G11571   0.486   5.760   9.144  0.3468  1.2276 -0.3452
  111OSM   C16F11572   0.345   5.739   8.980  0.4643  0.2235  0.5354
  111OSM   H16F11573   0.247   5.689   8.968  1.5683 -1.6003 -1.0151
  111OSM   H16G11574   0.413   5.684   8.912  0.9534  0.4529  0.8362
  111OSM   C17F11575   0.345   5.882   8.919  0.0532  0.0335  0.4887
  111OSM   H17F11576   0.441   5.932   8.945 -0.8986  1.7958  0.6688
  111OSM   H17G11577   0.260   5.942   8.955 -1.3319 -1.1977 -0.6482
  111OSM   C18F11578   0.332   5.869   8.769  0.1642 -0.2476  0.5910
  111OSM   H18F11579   0.333   5.968   8.719 -1.2816  0.2296  1.4715
  111OSM   H18G11580   0.237   5.821   8.737  1.3250 -1.5908 -0.9847
  111OSM   H18H11581   0.418   5.814   8.725  0.1208 -0.7270  1.0964
  112OSM      N11582   1.914   3.400  11.225 -0.4597  0.2887  0.0620
  112OSM    C1511583   1.842   3.451  11.350 -0.8005 -0.3910  0.7638
  112OSM   H15A11584   1.738   3.464  11.324 -0.7003  0.2316  0.6685
  112OSM   H15B11585   1.874   3.551  11.377 -0.5255  0.0669 -1.1810
  112OSM   H15C11586   1.859   3.385  11.434  0.7145 -0.4496  0.4275
  112OSM    C1411587   2.058   3.383  11.262  1.0124 -0.2379  0.3537
  112OSM   H14A11588   2.106   3.471  11.302  1.1703  0.8390 -2.1055
  112OSM   H14B11589   2.114   3.360  11.173 -0.3141  2.8011 -1.3420
  112OSM   H14C11590   2.074   3.295  11.323 -0.3509  0.3457  1.5778
  112OSM    C1311591   1.864   3.266  11.181  0.2650 -0.5474  0.0853
  112OSM   H13A11592   1.758   3.266  11.165  0.3221 -0.0365 -0.2954
  112OSM   H13B11593   1.884   3.193  11.259  0.8660 -0.2653  0.1976
  112OSM   H13C11594   1.923   3.229  11.098  0.9292  0.8384 -0.0780
  112OSM    C1211595   1.903   3.501  11.116  0.5297  0.4866 -0.3904
  112OSM   H12A11596   1.947   3.457  11.027  1.0381  0.9447 -0.3657
  112OSM   H12B11597   1.966   3.584  11.142 -0.6232  1.3659 -0.3848
  112OSM    C1111598   1.767   3.554  11.074  0.5893  0.0285 -0.1752
  112OSM   H11A11599   1.787   3.656  11.035 -1.3561  1.2342  1.8756
  112OSM   H11B11600   1.697   3.569  11.159 -0.0218 -1.2181 -0.4400
  112OSM      P11601   1.554   3.444  10.988  0.2248  0.2466  0.0097
  112OSM    O1311602   1.510   3.386  10.864 -0.3375  0.2123 -0.3364
  112OSM    O1411603   1.535   3.374  11.116 -0.4218  0.0594 -0.2511
  112OSM    O1111604   1.484   3.586  11.000  0.5701  0.1111 -0.4939
  112OSM    O1211605   1.708   3.482  10.973 -0.0798 -0.3739  0.6848
  112OSM    C1S11606   1.517   3.697  10.914  0.2140 -0.0199  0.1273
  112OSM    H1S11607   1.624   3.687  10.887  0.3140 -0.1494  0.5652
  112OSM    H1T11608   1.490   3.790  10.969  1.2582 -0.1276  0.8305
  112OSM     NF11609   1.481   3.783  10.689 -0.5235  0.2948 -0.3133
  112OSM    HNF11610   1.448   3.877  10.685 -0.0810  0.4164 -1.2460
  112OSM    C2S11611   1.428   3.694  10.778  0.0866 -0.3571 -1.0335
  112OSM    H2S11612   1.438   3.595  10.730  1.1025 -0.5490 -0.4363
  112OSM    C3S11613   1.274   3.718  10.814  0.1576  0.0347  0.0373
  112OSM    H3S11614   1.277   3.822  10.853 -1.7761 -0.1491  0.7201
  112OSM     O311615   1.216   3.629  10.910 -0.2298 -0.0978  0.3238
  112OSM    HO311616   1.294   3.584  10.942 -1.8049 -2.5815  0.7684
  112OSM    C4S11617   1.189   3.712  10.686 -0.3977 -0.1226  0.3784
  112OSM    H4S11618   1.139   3.808  10.663  1.9866  1.1747  0.4873
  112OSM    C5S11619   1.154   3.610  10.604  0.9104 -0.3742  0.4241
  112OSM    H5S11620   1.182   3.510  10.640  2.5917  0.1210  0.5335
  112OSM    C6S11621   1.070   3.597  10.479 -0.0881 -0.6648 -1.2442
  112OSM    H6S11622   0.998   3.515  10.500 -0.9617  0.6785  1.2122
  112OSM    H6T11623   1.134   3.574  10.391  0.7916 -1.2179 -0.4766
  112OSM    C7S11624   0.986   3.721  10.441  0.3534 -0.4079  0.7529
  112OSM    H7S11625   1.045   3.812  10.417  1.1708 -1.4085 -1.1292
  112OSM    H7T11626   0.933   3.750  10.534  1.5484 -0.3156  1.4151
  112OSM    C8S11627   0.886   3.697  10.327  0.1160  0.0116  0.1544
  112OSM    H8S11628   0.836   3.793  10.302  3.1159  1.6278  0.1662
  112OSM    H8T11629   0.805   3.629  10.363  0.2082 -1.2562 -1.9485
  112OSM    C9S11630   0.955   3.656  10.198  0.2070  0.2132 -0.4317
  112OSM    H9S11631   1.025   3.571  10.218 -1.7498 -1.1463  0.8176
  112OSM    H9T11632   1.020   3.737  10.159  1.7661 -1.4037 -1.2945
  112OSM   C10S11633   0.845   3.627  10.092 -0.0005 -0.4183  0.0932
  112OSM   H10S11634   0.775   3.713  10.085  1.0759  0.6064  1.6659
  112OSM   H10T11635   0.797   3.532  10.125 -0.5195 -0.1620  0.0620
  112OSM   C11S11636   0.902   3.599   9.954  0.2183  0.3443  0.2165
  112OSM   H11S11637   0.863   3.500   9.922  0.7277  0.0931  0.3647
  112OSM   H11T11638   1.013   3.587   9.953  0.1220 -0.5755 -0.4746
  112OSM   C12S11639   0.852   3.707   9.850  0.7081 -0.0850 -0.2645
  112OSM   H12S11640   0.881   3.806   9.891  0.4329 -0.3339  0.5353
  112OSM   H12T11641   0.741   3.701   9.849  0.7715 -1.9515 -2.4384
  112OSM   C13S11642   0.905   3.684   9.710 -0.5783 -0.6551 -0.2452
  112OSM   H13S11643   1.015   3.694   9.701 -0.6517  0.7017  0.1619
  112OSM   H13T11644   0.866   3.772   9.654  2.3666  1.3589  0.7662
  112OSM   C14S11645   0.887   3.547   9.653  0.1408 -0.3768  0.0268
  112OSM   H14S11646   0.778   3.524   9.652  0.3030 -1.1331 -2.8278
  112OSM   H14T11647   0.939   3.468   9.711 -0.6964 -0.1424  1.1136
  112OSM   C15S11648   0.928   3.541   9.505 -0.6685 -0.1301 -0.3737
  112OSM   H15S11649   1.035   3.565   9.492 -0.6139 -0.6681 -0.9460
  112OSM   H15T11650   0.868   3.615   9.447  0.2111 -0.4475 -1.7102
  112OSM   C16S11651   0.900   3.404   9.431  0.3955 -0.7737 -0.5954
  112OSM   H16S11652   0.882   3.419   9.322  0.4363 -0.9857 -0.6314
  112OSM   H16T11653   0.799   3.366   9.457  0.3262 -0.2012 -0.0078
  112OSM   C17S11654   0.988   3.294   9.478 -0.0301 -0.9136 -0.4363
  112OSM   H17S11655   0.980   3.291   9.589  0.0214 -0.7116 -0.4258
  112OSM   H17T11656   1.095   3.320   9.464 -0.2756  0.3590  0.0541
  112OSM   C18S11657   0.958   3.167   9.417  0.0311  0.0293  0.0306
  112OSM   H18S11658   0.976   3.153   9.308 -0.3085 -3.0886  0.3275
  112OSM   H18T11659   0.854   3.129   9.433 -0.2671  0.0500 -1.6703
  112OSM   H18U11660   1.016   3.090   9.473 -0.9091 -0.8396 -0.1592
  112OSM    C1F11661   1.596   3.765  10.620  0.0440 -0.2544  0.5538
  112OSM     OF11662   1.649   3.659  10.633  0.0775  0.3711  0.5437
  112OSM    C2F11663   1.647   3.873  10.528  0.0051 -0.0107 -0.5215
  112OSM    H2F11664   1.732   3.841  10.464  0.9508  0.4121  0.5123
  112OSM    H2G11665   1.701   3.946  10.592  2.3148 -1.6474 -0.5262
  112OSM    C3F11666   1.537   3.916  10.434  0.6210  0.4888  0.6091
  112OSM    H3F11667   1.575   4.001  10.373 -0.8067 -0.4324 -1.6243
  112OSM    H3G11668   1.450   3.958  10.487  0.1715  0.2048  0.1068
  112OSM    C4F11669   1.498   3.803  10.344  0.7777  0.0894  0.3208
  112OSM    H4F11670   1.447   3.723  10.402 -0.1119 -0.5183 -1.2664
  112OSM    H4G11671   1.589   3.754  10.304  0.4229 -0.4778  0.1982
  112OSM    C5F11672   1.391   3.854  10.245  0.2273  0.0204 -0.3349
  112OSM    H5F11673   1.443   3.931  10.184  1.1982 -1.4251 -1.3559
  112OSM    H5G11674   1.300   3.894  10.295 -0.7583 -1.1215 -1.1959
  112OSM    C6F11675   1.366   3.745  10.139 -0.6254 -0.1412 -0.0181
  112OSM    H6F11676   1.274   3.689  10.166 -0.5569 -1.6520 -2.7673
  112OSM    H6G11677   1.447   3.670  10.153  0.3378  0.7240 -0.8684
  112OSM    C7F11678   1.352   3.804  10.001  0.4891  0.4102  0.0978
  112OSM    H7F11679   1.451   3.849   9.976  0.2432  0.9855  0.1376
  112OSM    H7G11680   1.274   3.883  10.003  1.3586  1.2840  0.5340
  112OSM    C8F11681   1.299   3.697   9.897 -0.3178  0.6917  0.4762
  112OSM    H8F11682   1.254   3.750   9.811  1.1740 -1.0794 -1.4416
  112OSM    H8G11683   1.212   3.643   9.939 -0.7567  1.6248  0.7957
  112OSM    C9F11684   1.414   3.615   9.850 -0.1977 -0.1044 -0.1352
  112OSM    H9F11685   1.487   3.602   9.932 -1.7743 -0.4809  1.2196
  112OSM   C10F11686   1.436   3.570   9.722  0.1449  0.7746  0.0590
  112OSM   H10F11687   1.520   3.502   9.698 -1.7778 -1.9439  0.7900
  112OSM   C11F11688   1.334   3.588   9.615  0.8239 -0.2642 -0.6912
  112OSM   H11F11689   1.236   3.608   9.662  2.5195 -0.0209  2.8878
  112OSM   H11G11690   1.335   3.486   9.571 -0.7097 -0.5319 -0.1315
  112OSM   C12F11691   1.380   3.683   9.510  0.7479  0.1745 -0.1717
  112OSM   H12F11692   1.480   3.649   9.476  1.2694  0.6356  0.8987
  112OSM   H12G11693   1.394   3.782   9.558  1.6264 -0.6793  1.3322
  112OSM   C13F11694   1.289   3.718   9.388 -0.0590 -0.5403  0.4380
  112OSM   H13F11695   1.348   3.777   9.314 -0.0478 -0.3291  0.6164
  112OSM   H13G11696   1.209   3.782   9.430 -0.8342 -1.5662  0.5225
  112OSM   C14F11697   1.256   3.592   9.316  0.3606  0.2337  0.0209
  112OSM   H14F11698   1.203   3.521   9.383  1.5884 -2.2520 -1.5888
  112OSM   H14G11699   1.357   3.552   9.296  0.9628  1.8618 -0.2594
  112OSM   C15F11700   1.184   3.598   9.180  0.1568 -0.8525  0.1233
  112OSM   H15F11701   1.083   3.641   9.193  0.5512  0.0871  0.1334
  112OSM   H15G11702   1.179   3.498   9.131  0.2329 -1.2287  0.8731
  112OSM   C16F11703   1.246   3.686   9.079 -0.3528  0.5925  1.1054
  112OSM   H16F11704   1.357   3.679   9.075 -0.5094 -0.5674 -2.9331
  112OSM   H16G11705   1.229   3.791   9.111 -2.7371  1.7914 -3.7426
  112OSM   C17F11706   1.195   3.671   8.930 -0.6156 -0.7250 -0.1980
  112OSM   H17F11707   1.089   3.705   8.932 -0.6717 -0.9114  2.5265
  112OSM   H17G11708   1.205   3.565   8.897  1.3440 -0.3915 -0.7597
  112OSM   C18F11709   1.285   3.761   8.844 -0.0544 -0.3867 -0.8045
  112OSM   H18F11710   1.258   3.756   8.736  1.0567  1.0437 -1.1606
  112OSM   H18G11711   1.391   3.731   8.858 -0.5375 -0.4247  3.2307
  112OSM   H18H11712   1.284   3.867   8.876 -0.3807 -0.1694 -1.5136
  113OSM      N11713   4.876   6.689  11.120  0.1011 -0.5433 -0.1672
  113OSM    C1511714   4.949   6.612  11.018 -0.2110  0.3304  0.3554
  113OSM   H15A11715   5.055   6.603  11.033 -0.5861  0.4630  3.4372
  113OSM   H15B11716   4.929   6.645  10.917 -1.9805 -0.7236  0.3184
  113OSM   H15C11717   4.902   6.514  11.013 -1.4316  0.9877 -1.6361
  113OSM    C1411718   4.734   6.690  11.082  0.3072 -0.0646  0.1391
  113OSM   H14A11719   4.712   6.725  10.982 -1.7591 -1.7081 -0.0116
  113OSM   H14B11720   4.667   6.751  11.141  0.7164 -1.0549  1.6626
  113OSM   H14C11721   4.698   6.588  11.089 -0.5826  0.3162  1.1457
  113OSM    C1311722   4.897   6.612  11.246 -0.3772 -0.0299 -0.0071
  113OSM   H13A11723   5.004   6.612  11.259 -0.8336 -0.4809  4.6322
  113OSM   H13B11724   4.864   6.510  11.239 -1.0767  0.0335  2.0329
  113OSM   H13C11725   4.844   6.655  11.330 -1.6122 -1.6180  0.0550
  113OSM    C1211726   4.933   6.833  11.140 -0.2612 -0.3271 -0.1999
  113OSM   H12A11727   5.024   6.832  11.199 -0.7060  3.1521  0.6601
  113OSM   H12B11728   4.861   6.883  11.204 -0.4305  0.5474 -1.0617
  113OSM    C1111729   4.958   6.911  11.013  0.0478  0.3619 -0.3815
  113OSM   H11A11730   4.870   6.917  10.945  0.5379  1.8703 -0.9041
  113OSM   H11B11731   5.048   6.866  10.967 -0.2433 -0.6780  0.0616
  113OSM      P11732   4.875   7.156  11.088  0.4762 -0.1619 -0.2254
  113OSM    O1311733   4.760   7.093  11.158 -0.0920 -0.3753  0.5023
  113OSM    O1411734   4.935   7.278  11.151 -0.4824 -0.4776 -0.1136
  113OSM    O1111735   4.837   7.193  10.941  0.2406  0.3761  0.4842
  113OSM    O1211736   4.985   7.039  11.074 -0.2210  0.0600  0.3396
  113OSM    C1S11737   4.933   7.216  10.841  0.9375  0.0040  0.2558
  113OSM    H1S11738   4.964   7.120  10.794 -1.2852 -0.9425  0.6464
  113OSM    H1T11739   5.023   7.263  10.887  0.8496 -1.5683  2.1104
  113OSM     NF11740   5.003   7.352  10.658  0.3346 -0.5053  0.2437
  113OSM    HNF11741   5.066   7.424  10.687  0.3483 -0.3900 -0.0680
  113OSM    C2S11742   4.885   7.329  10.735  0.3081  0.9220 -0.2028
  113OSM    H2S11743   4.803   7.284  10.675  1.0660  0.9116 -1.2465
  113OSM    C3S11744   4.835   7.457  10.806  0.3287  0.2635 -0.4269
  113OSM    H3S11745   4.908   7.499  10.878  1.4687 -3.1939  0.5048
  113OSM     O311746   4.719   7.439  10.885 -0.1009 -0.4295  0.0394
  113OSM    HO311747   4.720   7.345  10.905  0.2735 -0.6136 -0.8386
  113OSM    C4S11748   4.806   7.557  10.696 -0.1591  0.1166  0.0245
  113OSM    H4S11749   4.894   7.621  10.683  1.0927 -1.4942  0.5198
  113OSM    C5S11750   4.698   7.561  10.613 -0.5084  1.1810  0.1000
  113OSM    H5S11751   4.621   7.482  10.621  1.0275 -0.2805  0.6200
  113OSM    C6S11752   4.682   7.651  10.496 -0.5092 -0.2455 -0.6493
  113OSM    H6S11753   4.730   7.749  10.518  0.9603 -1.0994  0.0212
  113OSM    H6T11754   4.572   7.667  10.494 -0.7776 -1.7013  1.2938
  113OSM    C7S11755   4.726   7.597  10.364  0.0210  0.1984  0.1677
  113OSM    H7S11756   4.699   7.671  10.285  0.8467 -0.0919 -0.3993
  113OSM    H7T11757   4.673   7.500  10.356 -0.6571  0.5387  0.4777
  113OSM    C8S11758   4.875   7.555  10.357  0.5513 -0.5697  0.0632
  113OSM    H8S11759   4.889   7.477  10.434  0.0484 -0.2192  0.5144
  113OSM    H8T11760   4.934   7.646  10.378 -2.0272  1.0075  0.7023
  113OSM    C9S11761   4.915   7.502  10.218 -0.1385  0.4920  0.7649
  113OSM    H9S11762   4.884   7.396  10.208 -0.5928  0.6127  0.8836
  113OSM    H9T11763   5.026   7.509  10.206 -0.1209 -0.6086  0.2243
  113OSM   C10S11764   4.859   7.595  10.109  0.4556  0.5019 -0.6857
  113OSM   H10S11765   4.887   7.700  10.133 -1.3065  0.6390  0.9687
  113OSM   H10T11766   4.748   7.588  10.102  0.3754  0.1763  0.7197
  113OSM   C11S11767   4.918   7.566   9.968 -0.5397  0.0585 -0.1460
  113OSM   H11S11768   4.908   7.456   9.958  0.7873 -0.6027  4.6558
  113OSM   H11T11769   5.028   7.586   9.966 -0.5966  0.3865 -0.0497
  113OSM   C12S11770   4.839   7.627   9.857 -0.0138 -0.0521 -0.2015
  113OSM   H12S11771   4.850   7.738   9.852  0.3038 -0.0188  0.9759
  113OSM   H12T11772   4.731   7.604   9.864 -0.4986  2.7368  2.3524
  113OSM   C13S11773   4.877   7.571   9.718  0.0533 -0.0743 -0.7922
  113OSM   H13S11774   4.858   7.462   9.705  4.2337 -0.5829 -3.3202
  113OSM   H13T11775   4.988   7.573   9.718  0.0739 -0.6805 -1.7899
  113OSM   C14S11776   4.823   7.640   9.595 -1.2221 -0.7752  0.6058
  113OSM   H14S11777   4.862   7.744   9.588 -3.2957  0.0832  1.5404
  113OSM   H14T11778   4.713   7.650   9.598 -1.1815 -0.4405  0.9403
  113OSM   C15S11779   4.863   7.576   9.461 -0.0584 -0.2680 -0.3466
  113OSM   H15S11780   4.826   7.472   9.447 -2.2051  0.4250 -0.0162
  113OSM   H15T11781   4.973   7.570   9.468 -0.1774 -1.1176  0.9490
  113OSM   C16S11782   4.823   7.655   9.341 -0.4965  0.1068  0.4313
  113OSM   H16S11783   4.856   7.761   9.348 -1.0410  0.3972 -1.1551
  113OSM   H16T11784   4.713   7.669   9.351 -0.3575  2.3712 -0.7878
  113OSM   C17S11785   4.879   7.589   9.198 -0.2091 -0.1982  0.1359
  113OSM   H17S11786   4.834   7.487   9.196 -0.1034 -0.2217 -1.5603
  113OSM   H17T11787   4.987   7.588   9.221  0.1568  4.0131 -1.0705
  113OSM   C18S11788   4.859   7.669   9.071  0.1042  0.3768  0.3443
  113OSM   H18S11789   4.748   7.670   9.058  0.1678  0.0715 -0.1947
  113OSM   H18T11790   4.904   7.621   8.982  0.8526  0.3536  0.7300
  113OSM   H18U11791   4.885   7.777   9.075 -0.0142  0.5182 -2.2643
  113OSM    C1F11792   5.039   7.259  10.572  0.2862 -0.3468  0.4451
  113OSM     OF11793   4.962   7.165  10.551  0.3722  0.1180 -0.0963
  113OSM    C2F11794   5.163   7.295  10.494  0.4969  0.7134  0.1908
  113OSM    H2F11795   5.250   7.299  10.563 -0.8795  1.7455  1.8950
  113OSM    H2G11796   5.152   7.399  10.455 -2.1804  0.6200  0.5814
  113OSM    C3F11797   5.212   7.188  10.393 -0.5169  0.0441  0.4355
  113OSM    H3F11798   5.188   7.088  10.436 -0.5791 -0.9542 -1.8364
  113OSM    H3G11799   5.321   7.189  10.372 -0.4660  0.4156  0.7037
  113OSM    C4F11800   5.139   7.199  10.253  0.2207  0.0319 -0.0042
  113OSM    H4F11801   5.136   7.304  10.217 -2.5934 -0.7603 -2.3595
  113OSM    H4G11802   5.033   7.166  10.252  0.7706 -1.7799  0.1689
  113OSM    C5F11803   5.214   7.117  10.144 -0.1481 -0.3714  0.3050
  113OSM    H5F11804   5.216   7.014  10.185 -0.6976 -0.5849 -0.1944
  113OSM    H5G11805   5.315   7.162  10.131  0.2865 -1.3844  0.1472
  113OSM    C6F11806   5.144   7.131  10.008 -0.1843  0.2823  0.0321
  113OSM    H6F11807   5.145   7.239   9.983  1.4237  0.5879  1.3299
  113OSM    H6G11808   5.042   7.090  10.023 -1.1475  1.5415 -2.7257
  113OSM    C7F11809   5.214   7.065   9.886 -0.4694  0.7361  0.1400
  113OSM    H7F11810   5.240   6.958   9.895 -0.9446  0.5167 -1.0282
  113OSM    H7G11811   5.307   7.125   9.883  0.0297  0.0080  0.9030
  113OSM    C8F11812   5.137   7.073   9.751  0.3705  0.1764  1.3161
  113OSM    H8F11813   5.121   7.178   9.721 -0.2171  0.0465  1.1893
  113OSM    H8G11814   5.039   7.027   9.774 -0.6859  2.0229  0.5631
  113OSM    C9F11815   5.210   7.004   9.633  0.0379 -0.1111 -0.4069
  113OSM    H9F11816   5.222   6.897   9.651  0.5571 -0.3000 -1.8791
  113OSM   C10F11817   5.256   7.066   9.520  0.7125  0.1015  0.4932
  113OSM   H10F11818   5.306   7.009   9.441  0.6044  0.3658  0.2352
  113OSM   C11F11819   5.242   7.215   9.490  0.3879 -0.8971 -0.5251
  113OSM   H11F11820   5.309   7.276   9.554  3.0211 -3.0741 -1.0840
  113OSM   H11G11821   5.141   7.251   9.516  0.2889 -1.1982 -0.4899
  113OSM   C12F11822   5.292   7.265   9.355  0.1265 -0.0348  0.0438
  113OSM   H12F11823   5.399   7.238   9.346  0.0913  0.5346 -2.4384
  113OSM   H12G11824   5.310   7.375   9.362 -1.2665  0.2365 -0.5392
  113OSM   C13F11825   5.216   7.217   9.230  0.9407 -0.1498 -0.0152
  113OSM   H13F11826   5.106   7.219   9.246  0.7346 -1.1021 -1.2253
  113OSM   H13G11827   5.241   7.111   9.210  0.1385 -0.4296  0.4310
  113OSM   C14F11828   5.236   7.302   9.103 -0.4329  0.1706  0.4804
  113OSM   H14F11829   5.339   7.277   9.072  0.1283  1.9542  0.8574
  113OSM   H14G11830   5.236   7.410   9.129 -2.1935 -0.1487  1.9659
  113OSM   C15F11831   5.142   7.268   8.987  0.2258  0.5465 -0.0435
  113OSM   H15F11832   5.035   7.284   9.011  0.7620 -1.0785  3.8100
  113OSM   H15G11833   5.147   7.158   8.973 -2.5259 -0.0520  3.1609
  113OSM   C16F11834   5.158   7.339   8.850 -0.2567 -0.0947 -0.6372
  113OSM   H16F11835   5.236   7.416   8.863 -0.3747 -0.1498  0.4861
  113OSM   H16G11836   5.062   7.382   8.815 -0.0220  2.2942  1.5316
  113OSM   C17F11837   5.202   7.254   8.731 -0.2691  0.7514 -0.1447
  113OSM   H17F11838   5.277   7.186   8.777 -1.1422  0.9320  1.5808
  113OSM   H17G11839   5.245   7.311   8.646 -0.1657 -2.0158 -2.0275
  113OSM   C18F11840   5.081   7.174   8.677 -0.0083 -0.2185 -0.3856
  113OSM   H18F11841   5.106   7.083   8.618  1.7825 -0.0149  0.0174
  113OSM   H18G11842   5.014   7.239   8.617 -0.7736  0.3812  1.1024
  113OSM   H18H11843   5.008   7.137   8.752 -1.4498  0.9821 -1.1697
  114OSM      N11844   6.298   3.312  11.270 -0.0050 -0.5827 -0.1014
  114OSM    C1511845   6.387   3.417  11.323 -0.1814  0.2674 -0.7314
  114OSM   H15A11846   6.368   3.515  11.281 -0.7049  0.4784 -0.0336
  114OSM   H15B11847   6.486   3.389  11.291 -0.7049  1.4071 -3.4352
  114OSM   H15C11848   6.396   3.428  11.430 -0.3731 -2.0592 -0.4639
  114OSM    C1411849   6.337   3.176  11.318  0.1975 -0.3931  0.2810
  114OSM   H14A11850   6.425   3.139  11.268  0.3164 -0.2323  0.3732
  114OSM   H14B11851   6.255   3.109  11.295  0.1355  0.0635 -0.8811
  114OSM   H14C11852   6.356   3.171  11.424  3.4244 -1.5914 -0.3210
  114OSM    C1311853   6.161   3.333  11.316 -0.1997  0.3737  0.8920
  114OSM   H13A11854   6.154   3.351  11.422 -1.2850 -1.0537  1.0890
  114OSM   H13B11855   6.105   3.244  11.291  1.3428 -0.4437  0.2427
  114OSM   H13C11856   6.117   3.412  11.257  0.6694 -3.0416 -4.8110
  114OSM    C1211857   6.304   3.324  11.116  0.8128 -0.0823  0.3355
  114OSM   H12A11858   6.286   3.428  11.095 -4.0590 -1.5083 -3.4098
  114OSM   H12B11859   6.217   3.271  11.080  0.0078  1.0422  0.6041
  114OSM    C1111860   6.436   3.273  11.047 -0.1708  0.5318  0.5624
  114OSM   H11A11861   6.429   3.265  10.937  1.5216 -0.7263  0.5191
  114OSM   H11B11862   6.450   3.167  11.078  1.0033  0.6390  0.4390
  114OSM      P11863   6.582   3.487  11.034 -0.2599  0.0744  0.1294
  114OSM    O1311864   6.454   3.556  11.002  0.0284  0.3863 -0.5362
  114OSM    O1411865   6.666   3.549  11.146  0.6407 -0.3748 -0.0964
  114OSM    O1111866   6.670   3.463  10.903  0.5333  0.2132  0.0685
  114OSM    O1211867   6.552   3.343  11.087 -0.4040  0.4510 -0.3117
  114OSM    C1S11868   6.613   3.406  10.784  0.8487 -0.2393  0.1919
  114OSM    H1S11869   6.502   3.407  10.779  0.7896 -0.4679  1.1899
  114OSM    H1T11870   6.646   3.300  10.787  3.2308  0.4581  0.1183
  114OSM     NF11871   6.605   3.400  10.538  0.0226 -0.2538  0.3384
  114OSM    HNF11872   6.665   3.368  10.465 -0.1681 -0.1223  0.1234
  114OSM    C2S11873   6.666   3.463  10.650 -0.6484 -0.3309 -0.6725
  114OSM    H2S11874   6.634   3.569  10.657 -1.3939 -0.7139  1.8814
  114OSM    C3S11875   6.823   3.448  10.645  0.1413 -0.3400 -0.6282
  114OSM    H3S11876   6.838   3.338  10.647 -0.8532 -0.4904 -1.1051
  114OSM     O311877   6.888   3.511  10.755 -0.1169  1.0952 -0.5861
  114OSM    HO311878   6.821   3.533  10.821  0.3557 -3.6796  1.6980
  114OSM    C4S11879   6.878   3.504  10.515  0.0176  0.7771  0.2609
  114OSM    H4S11880   6.921   3.423  10.454 -1.4570  0.3593 -0.2553
  114OSM    C5S11881   6.894   3.634  10.475 -0.4690  0.4638  0.0983
  114OSM    H5S11882   6.854   3.701  10.553 -1.0602  0.2510 -0.0179
  114OSM    C6S11883   6.949   3.697  10.346  0.2273  0.1751 -0.1646
  114OSM    H6S11884   7.005   3.792  10.367 -1.7131  1.1707  0.6201
  114OSM    H6T11885   6.863   3.710  10.277  0.4102  0.9839 -0.2494
  114OSM    C7S11886   7.052   3.614  10.265  0.9110 -0.4365  0.4837
  114OSM    H7S11887   6.992   3.528  10.229 -1.5719  0.8150  1.5105
  114OSM    H7T11888   7.137   3.569  10.320  0.6433 -0.0594  1.2187
  114OSM    C8S11889   7.111   3.693  10.148  0.2260 -0.0944  0.0849
  114OSM    H8S11890   7.179   3.778  10.169  1.5977 -0.7676 -1.5141
  114OSM    H8T11891   7.025   3.725  10.085  1.3520  1.0143 -0.9037
  114OSM    C9S11892   7.186   3.593  10.051 -0.0329 -0.4435 -0.3371
  114OSM    H9S11893   7.114   3.509  10.042  2.0540 -2.1517 -1.7032
  114OSM    H9T11894   7.284   3.556  10.088 -0.7734 -2.9977 -0.8624
  114OSM   C10S11895   7.197   3.656   9.918 -0.1431  0.0114  0.6054
  114OSM   H10S11896   7.270   3.740   9.922 -0.0438 -0.1381  2.5287
  114OSM   H10T11897   7.092   3.682   9.892  0.5573  2.0950 -0.2355
  114OSM   C11S11898   7.260   3.560   9.810  0.0814  0.1338  0.2752
  114OSM   H11S11899   7.189   3.474   9.804 -0.0365  0.3179 -1.0443
  114OSM   H11T11900   7.366   3.540   9.837  0.0441  0.5648  0.7585
  114OSM   C12S11901   7.273   3.626   9.668  0.3699  0.1687  0.6593
  114OSM   H12S11902   7.356   3.700   9.672  1.6373 -1.2734  1.8661
  114OSM   H12T11903   7.185   3.691   9.653 -0.6699 -1.5294 -0.7370
  114OSM   C13S11904   7.285   3.539   9.542 -0.4168 -0.3377  0.5501
  114OSM   H13S11905   7.193   3.486   9.511 -1.5403  1.1948  1.1644
  114OSM   H13T11906   7.360   3.464   9.574  1.1830  0.7628 -0.5269
  114OSM   C14S11907   7.331   3.626   9.427 -0.1103  0.4303 -0.2912
  114OSM   H14S11908   7.425   3.674   9.460 -0.7542  1.9755 -0.6691
  114OSM   H14T11909   7.266   3.710   9.393  0.0378  0.7628  0.2380
  114OSM   C15S11910   7.359   3.541   9.303  0.4074 -0.2169 -0.1589
  114OSM   H15S11911   7.267   3.538   9.241 -1.4415  0.8816  2.4597
  114OSM   H15T11912   7.392   3.435   9.313 -2.9728 -1.4726 -1.4866
  114OSM   C16S11913   7.464   3.611   9.211  1.1169 -0.5476 -0.0182
  114OSM   H16S11914   7.558   3.605   9.270  2.0428  1.6845 -1.2214
  114OSM   H16T11915   7.444   3.719   9.194 -0.5255 -0.5178  1.9056
  114OSM   C17S11916   7.488   3.531   9.080 -0.0871 -0.9665  0.1529
  114OSM   H17S11917   7.407   3.528   9.005  0.9003  1.1729 -1.0542
  114OSM   H17T11918   7.495   3.427   9.119 -0.3443 -0.7717  0.7327
  114OSM   C18S11919   7.609   3.572   8.996 -0.5616 -0.3924 -0.2779
  114OSM   H18S11920   7.702   3.574   9.057 -1.7525  2.8951  1.5605
  114OSM   H18T11921   7.599   3.678   8.962 -2.7659 -0.1758  0.9413
  114OSM   H18U11922   7.631   3.501   8.914  0.8894 -0.7081  0.3609
  114OSM    C1F11923   6.470   3.380  10.522 -0.1756 -0.1437 -0.3434
  114OSM     OF11924   6.385   3.444  10.574  0.4591  0.4520 -0.3325
  114OSM    C2F11925   6.437   3.289  10.410  0.2500 -0.5905 -0.2884
  114OSM    H2F11926   6.433   3.189  10.457  2.2678 -0.1579  0.8893
  114OSM    H2G11927   6.500   3.295  10.319  2.7035 -1.7764  1.2717
  114OSM    C3F11928   6.286   3.314  10.365  0.0009  0.1511  0.4337
  114OSM    H3F11929   6.279   3.413  10.315 -0.1564 -0.4907 -0.8274
  114OSM    H3G11930   6.213   3.315  10.449 -1.5571 -4.0711 -0.7619
  114OSM    C4F11931   6.227   3.209  10.267 -0.0572 -0.0087  0.0983
  114OSM    H4F11932   6.121   3.223  10.239  0.3616  0.8857 -1.1008
  114OSM    H4G11933   6.248   3.112  10.316  0.9127  0.6355  0.9680
  114OSM    C5F11934   6.303   3.199  10.129 -0.1198 -0.2044  0.0896
  114OSM    H5F11935   6.403   3.162  10.159 -0.0941  0.0742  0.3555
  114OSM    H5G11936   6.311   3.300  10.084 -0.4954 -0.3255 -0.2518
  114OSM    C6F11937   6.243   3.092  10.036  0.1454  0.7268  0.5872
  114OSM    H6F11938   6.154   3.038  10.074 -0.8903  0.0843 -2.6740
  114OSM    H6G11939   6.317   3.010  10.021  0.4563  1.5067 -2.4867
  114OSM    C7F11940   6.208   3.154   9.893  0.4848  0.0222  0.1076
  114OSM    H7F11941   6.304   3.203   9.866  1.3710 -1.1345  1.1066
  114OSM    H7G11942   6.132   3.233   9.906  0.4230 -0.0938  0.4380
  114OSM    C8F11943   6.175   3.047   9.785 -0.2355  0.4800 -0.2800
  114OSM    H8F11944   6.086   2.987   9.813  1.8988 -2.0892  1.2500
  114OSM    H8G11945   6.263   2.980   9.774 -0.7576 -0.0524 -1.1910
  114OSM    C9F11946   6.160   3.121   9.655  0.4350 -0.4612 -0.0788
  114OSM    H9F11947   6.063   3.170   9.637  0.2210  0.0470  2.3640
  114OSM   C10F11948   6.239   3.119   9.555 -0.4958 -0.4851 -0.1730
  114OSM   H10F11949   6.226   3.190   9.472  3.4070 -1.2161 -1.5408
  114OSM   C11F11950   6.371   3.038   9.544 -0.0745  0.1560  0.0984
  114OSM   H11F11951   6.365   2.928   9.554  0.8565  0.1214  0.3773
  114OSM   H11G11952   6.429   3.059   9.637  0.7687 -1.3588 -0.0727
  114OSM   C12F11953   6.450   3.068   9.422 -0.3393  0.4318 -0.2379
  114OSM   H12F11954   6.545   3.011   9.421 -0.7577 -0.3010  1.0606
  114OSM   H12G11955   6.477   3.175   9.407  1.1749  0.0600 -0.2156
  114OSM   C13F11956   6.379   3.017   9.294 -0.0462 -0.3201 -0.4018
  114OSM   H13F11957   6.293   3.082   9.268 -0.6546  0.5209  3.5043
  114OSM   H13G11958   6.332   2.917   9.310 -2.5622  1.2059  2.0917
  114OSM   C14F11959   6.463   3.011   9.172 -0.9253  0.4988  0.0338
  114OSM   H14F11960   6.537   2.928   9.183 -0.5489  0.6176 -1.5401
  114OSM   H14G11961   6.538   3.091   9.157 -0.0999 -0.7041 -2.5727
  114OSM   C15F11962   6.397   2.983   9.033 -0.5925 -0.5520  0.3109
  114OSM   H15F11963   6.318   3.060   9.018  0.1781  0.5863  1.8998
  114OSM   H15G11964   6.343   2.886   9.034 -0.5426 -0.5831 -0.2502
  114OSM   C16F11965   6.479   2.965   8.909  0.0421  0.2185  0.2421
  114OSM   H16F11966   6.550   3.051   8.903  0.5578 -0.1742  0.7283
  114OSM   H16G11967   6.410   2.977   8.823  0.8972  1.0025 -0.3435
  114OSM   C17F11968   6.547   2.831   8.895 -0.3278 -0.2006  0.2672
  114OSM   H17F11969   6.474   2.748   8.909  1.2220 -1.4277  1.2214
  114OSM   H17G11970   6.625   2.813   8.972  1.5408 -1.9809 -1.9514
  114OSM   C18F11971   6.628   2.824   8.766  0.1126 -0.0471  0.1120
  114OSM   H18F11972   6.680   2.921   8.748 -1.5849  0.6345 -1.3736
  114OSM   H18G11973   6.566   2.808   8.675 -0.5032 -0.1379  0.5378
  114OSM   H18H11974   6.701   2.743   8.785  0.5909  0.5276  0.7356
  115OSM      N11975   4.458   2.245  10.794  0.0111 -0.2762  0.2940
  115OSM    C1511976   4.593   2.194  10.832 -0.1477 -0.4028  0.1197
  115OSM   H15A11977   4.596   2.124  10.913 -0.2886  2.3807  2.6234
  115OSM   H15B11978   4.654   2.273  10.874 -0.2048  0.8021 -1.9934
  115OSM   H15C11979   4.640   2.152  10.744  0.5045  1.3446 -0.3909
  115OSM    C1411980   4.390   2.314  10.906  0.5173  0.2489 -0.1068
  115OSM   H14A11981   4.356   2.241  10.977 -0.1958  2.9280  2.3964
  115OSM   H14B11982   4.295   2.360  10.881  0.1513  0.0735  0.9296
  115OSM   H14C11983   4.448   2.397  10.941  0.5513  0.9582 -1.7605
  115OSM    C1311984   4.486   2.347  10.683 -0.3879  0.0836  0.3805
  115OSM   H13A11985   4.392   2.377  10.638 -0.1267 -0.7448 -0.7631
  115OSM   H13B11986   4.553   2.309  10.607 -1.3139  0.3466 -0.5812
  115OSM   H13C11987   4.532   2.436  10.721 -1.1287  0.6515 -0.0359
  115OSM    C1211988   4.377   2.128  10.739  0.0508  0.6381 -0.1801
  115OSM   H12A11989   4.426   2.088  10.652 -0.7657  1.3537 -0.9707
  115OSM   H12B11990   4.276   2.155  10.713 -1.1995 -0.5298  3.1235
  115OSM    C1111991   4.362   2.001  10.837 -0.0304 -0.3135 -0.4372
  115OSM   H11A11992   4.463   1.957  10.849 -0.1781 -0.5435 -0.0106
  115OSM   H11B11993   4.299   1.922  10.791 -0.3158  1.0979 -2.5011
  115OSM      P11994   4.160   2.035  11.008 -0.0984  0.1971 -0.2703
  115OSM    O1311995   4.130   1.900  11.065  0.5480  0.2147 -0.1015
  115OSM    O1411996   4.115   2.145  11.096 -0.0244 -0.2283  0.5395
  115OSM    O1111997   4.086   2.046  10.864 -0.0811  0.4393 -0.3943
  115OSM    O1211998   4.315   2.047  10.966  0.5289 -0.4503 -0.1308
  115OSM    C1S11999   4.044   2.176  10.823  0.1695  0.2626  0.0443
  115OSM    H1S12000   4.131   2.245  10.811 -0.8048  1.0680 -2.9414
  115OSM    H1T12001   3.980   2.224  10.899 -0.6294 -1.9129  0.7762
  115OSM     NF12002   3.950   2.294  10.638  0.4665 -0.5629  0.5963
  115OSM    HNF12003   3.857   2.330  10.650 -0.4303 -2.8846  0.9268
  115OSM    C2S12004   3.979   2.163  10.684 -0.2692 -0.4396 -0.7742
  115OSM    H2S12005   4.055   2.115  10.619 -0.6142 -0.1365 -1.4104
  115OSM    C3S12006   3.855   2.077  10.682  0.1088  0.5465  0.7256
  115OSM    H3S12007   3.776   2.129  10.740 -1.0608  1.6404 -1.8043
  115OSM     O312008   3.872   1.944  10.741  0.4743  0.1489  0.2270
  115OSM    HO312009   3.954   1.953  10.791  1.0385 -1.4363 -0.3953
  115OSM    C4S12010   3.805   2.052  10.539 -0.1481  0.3850 -0.1034
  115OSM    H4S12011   3.850   1.965  10.487 -0.2984  0.6699 -0.7228
  115OSM    C5S12012   3.700   2.112  10.480  0.8024  0.5465  0.1253
  115OSM    H5S12013   3.645   2.191  10.533  1.5895  0.4976  1.0296
  115OSM    C6S12014   3.635   2.079  10.346  0.5012  0.3093  0.4160
  115OSM    H6S12015   3.627   2.166  10.277  2.4547  0.8238  0.8091
  115OSM    H6T12016   3.530   2.050  10.369 -0.4868  2.9673 -0.4670
  115OSM    C7S12017   3.685   1.964  10.256  0.2943 -0.1246  0.4631
  115OSM    H7S12018   3.683   1.876  10.323 -0.2970  0.3691  1.0987
  115OSM    H7T12019   3.787   1.978  10.215  0.1234 -2.4239 -0.8414
  115OSM    C8S12020   3.586   1.931  10.136  1.0540 -0.5237  0.6635
  115OSM    H8S12021   3.482   1.949  10.169  0.4067 -0.6790 -1.2820
  115OSM    H8T12022   3.597   1.822  10.119 -0.7285 -0.3549 -1.6719
  115OSM    C9S12023   3.601   2.008  10.003  0.2811  0.5180 -0.3504
  115OSM    H9S12024   3.698   1.983   9.955 -0.8772  0.9350 -3.0238
  115OSM    H9T12025   3.609   2.112  10.039 -1.2943  0.3500  0.5430
  115OSM   C10S12026   3.501   1.959   9.907  0.6964  0.8381 -0.0748
  115OSM   H10S12027   3.400   1.995   9.936  1.4069  1.0569  2.2302
  115OSM   H10T12028   3.493   1.848   9.903 -0.5206  0.9452 -1.0003
  115OSM   C11S12029   3.535   2.011   9.774  0.2578  0.7524  0.0280
  115OSM   H11S12030   3.628   1.959   9.741  0.1350  1.2636 -1.1434
  115OSM   H11T12031   3.558   2.119   9.786 -0.9503  0.8352  1.9075
  115OSM   C12S12032   3.409   1.992   9.680  1.0677  0.3884  0.1691
  115OSM   H12S12033   3.315   2.026   9.728  0.3148 -0.2898 -0.7950
  115OSM   H12T12034   3.408   1.881   9.674 -0.5441  0.3525  0.7439
  115OSM   C13S12035   3.431   2.054   9.541 -0.2006  0.0975 -0.1608
  115OSM   H13S12036   3.528   2.032   9.492 -0.1950  0.9249 -0.5227
  115OSM   H13T12037   3.429   2.163   9.563  0.1554 -0.3988  2.4983
  115OSM   C14S12038   3.328   2.009   9.448 -0.3096  0.1283 -0.5715
  115OSM   H14S12039   3.228   2.048   9.478  0.9473  3.0487 -0.0744
  115OSM   H14T12040   3.319   1.899   9.461  1.0894  0.0623 -0.0606
  115OSM   C15S12041   3.365   2.020   9.298 -0.2578  0.7151  0.1920
  115OSM   H15S12042   3.264   2.010   9.253 -0.2661  1.8141 -0.0479
  115OSM   H15T12043   3.442   1.943   9.276 -2.1138 -0.9271 -0.6227
  115OSM   C16S12044   3.401   2.165   9.265  0.2533 -0.3358  0.0277
  115OSM   H16S12045   3.496   2.190   9.316  0.4049 -0.5977 -0.1265
  115OSM   H16T12046   3.327   2.241   9.299  0.0458 -0.4414 -0.1871
  115OSM   C17S12047   3.413   2.179   9.116 -0.5230 -0.0012 -0.0512
  115OSM   H17S12048   3.468   2.275   9.103 -0.4946  0.1418  1.0435
  115OSM   H17T12049   3.307   2.191   9.086 -0.0643 -1.0966 -2.1487
  115OSM   C18S12050   3.484   2.065   9.042  0.0483  0.3616 -0.0823
  115OSM   H18S12051   3.507   2.103   8.939 -0.4685 -1.1105 -0.7502
  115OSM   H18T12052   3.428   1.974   9.013 -0.8797  0.5051  1.2296
  115OSM   H18U12053   3.585   2.047   9.084  0.2810 -0.5003 -0.9972
  115OSM    C1F12054   4.041   2.384  10.610 -0.3025 -0.1073 -0.1727
  115OSM     OF12055   4.162   2.356  10.608 -0.3110  0.6324 -0.2171
  115OSM    C2F12056   3.993   2.521  10.572  0.6201 -0.3873  0.4082
  115OSM    H2F12057   4.065   2.591  10.618  3.2248 -1.7522 -1.4394
  115OSM    H2G12058   3.894   2.551  10.611  0.4773  0.0813 -0.3042
  115OSM    C3F12059   3.994   2.544  10.421  0.2705  0.3575 -0.5943
  115OSM    H3F12060   3.929   2.468  10.372 -0.6351  0.8393 -0.1490
  115OSM    H3G12061   4.097   2.526  10.383  0.3392  0.1165 -0.2905
  115OSM    C4F12062   3.969   2.691  10.378  0.2976  0.4374  0.1773
  115OSM    H4F12063   4.063   2.750  10.375  0.1701  0.5985 -4.5522
  115OSM    H4G12064   3.897   2.735  10.450  0.6534 -0.4413  1.0815
  115OSM    C5F12065   3.903   2.686  10.239  0.0729 -0.1434  0.1641
  115OSM    H5F12066   3.823   2.609  10.239 -1.6361  1.5935 -1.0921
  115OSM    H5G12067   3.977   2.674  10.157 -0.7788  0.6702 -0.7391
  115OSM    C6F12068   3.816   2.808  10.205 -0.4217  0.3258  0.6021
  115OSM    H6F12069   3.874   2.899  10.181 -1.1908  0.9173  0.9547
  115OSM    H6G12070   3.767   2.837  10.301 -2.0990  0.2368 -0.2036
  115OSM    C7F12071   3.710   2.791  10.086 -0.9548  0.3858 -0.5497
  115OSM    H7F12072   3.657   2.889  10.088 -1.4206  0.1399 -0.6302
  115OSM    H7G12073   3.642   2.707  10.112  1.6495 -0.8264  2.7281
  115OSM    C8F12074   3.773   2.768   9.949  0.3340 -0.4554  0.1942
  115OSM    H8F12075   3.836   2.677   9.953  1.5725  0.4304  1.0840
  115OSM    H8G12076   3.844   2.853   9.943  1.4611 -1.3841  0.2228
  115OSM    C9F12077   3.665   2.759   9.845 -0.6980 -0.3629  0.2902
  115OSM    H9F12078   3.563   2.741   9.880  0.2365 -0.4365  3.0557
  115OSM   C10F12079   3.683   2.777   9.717 -0.0215 -0.1249  0.3664
  115OSM   H10F12080   3.605   2.749   9.644 -0.5433 -0.5233  1.0741
  115OSM   C11F12081   3.808   2.816   9.642 -0.6633 -0.0730 -0.4539
  115OSM   H11F12082   3.897   2.799   9.707 -0.0663  1.2270 -0.9199
  115OSM   H11G12083   3.801   2.917   9.597  1.0134 -0.2196 -1.0989
  115OSM   C12F12084   3.830   2.714   9.524  0.1711 -0.1243 -0.1173
  115OSM   H12F12085   3.737   2.699   9.465 -0.8225 -0.0694  1.3963
  115OSM   H12G12086   3.870   2.614   9.548 -0.0622 -0.3349 -0.6107
  115OSM   C13F12087   3.925   2.779   9.431 -0.5808 -0.3022  0.1363
  115OSM   H13F12088   3.971   2.700   9.368 -0.3275  0.0496 -0.1259
  115OSM   H13G12089   4.006   2.840   9.478 -0.4920 -0.4782  0.2135
  115OSM   C14F12090   3.859   2.880   9.339  0.0482  0.6209 -0.7648
  115OSM   H14F12091   3.819   2.970   9.391  1.0633  1.4866 -1.4527
  115OSM   H14G12092   3.774   2.830   9.288 -0.0806  0.1899 -0.1257
  115OSM   C15F12093   3.962   2.945   9.242  0.1156  0.3474 -0.2092
  115OSM   H15F12094   4.052   2.973   9.300  0.6975 -0.8676 -0.5163
  115OSM   H15G12095   3.927   3.048   9.221 -0.3150  0.0582 -0.9281
  115OSM   C16F12096   3.979   2.873   9.111 -0.6883 -0.2313  0.2901
  115OSM   H16F12097   4.058   2.799   9.137  2.2575  2.9409  0.6696
  115OSM   H16G12098   4.020   2.944   9.036  0.7803  0.1430  1.4312
  115OSM   C17F12099   3.866   2.800   9.039  0.5573  0.6844 -0.4540
  115OSM   H17F12100   3.769   2.846   9.070 -0.1027 -0.1608 -1.2156
  115OSM   H17G12101   3.871   2.699   9.085 -2.1450  0.2449 -0.9994
  115OSM   C18F12102   3.871   2.784   8.888 -0.6339  0.0103  1.0871
  115OSM   H18F12103   3.899   2.877   8.835  2.4928 -1.4395  0.0572
  115OSM   H18G12104   3.780   2.738   8.843  0.5273  0.5005 -1.8698
  115OSM   H18H12105   3.957   2.716   8.871  1.1507  1.6774  3.2543
  116OSM      N12106   6.443   5.941  10.734 -0.1934  0.2206 -0.2256
  116OSM    C1512107   6.520   5.844  10.824  0.2428  0.0359  0.5298
  116OSM   H15A12108   6.590   5.896  10.888  1.1560 -0.2457 -0.2305
  116OSM   H15B12109   6.579   5.775  10.765  1.3006 -0.7752  2.4887
  116OSM   H15C12110   6.460   5.777  10.885  0.9900 -1.8926 -0.8056
  116OSM    C1412111   6.341   5.866  10.655  0.2520 -0.4011 -0.4684
  116OSM   H14A12112   6.269   5.832  10.729  0.1644  1.6065  0.3862
  116OSM   H14B12113   6.396   5.787  10.605  1.3025 -0.2708  0.4721
  116OSM   H14C12114   6.305   5.927  10.573  1.5196  2.3491  0.9751
  116OSM    C1312115   6.373   6.049  10.819  0.3437  0.4307  0.1730
  116OSM   H13A12116   6.440   6.104  10.884  1.0870 -1.5823  1.1464
  116OSM   H13B12117   6.311   5.999  10.891 -1.2650 -0.6779 -1.9375
  116OSM   H13C12118   6.316   6.109  10.750  0.1994 -0.4183 -0.4564
  116OSM    C1212119   6.547   5.999  10.638  0.0920  0.2527  0.4360
  116OSM   H12A12120   6.500   6.075  10.578  0.4719  0.4617  0.4078
  116OSM   H12B12121   6.581   5.929  10.564 -0.1048  1.3907 -0.7543
  116OSM    C1112122   6.679   6.062  10.697  0.4682 -0.2823 -0.3103
  116OSM   H11A12123   6.641   6.116  10.786  1.9908 -0.4804  0.4694
  116OSM   H11B12124   6.720   6.136  10.625  1.0917 -0.3825 -0.0583
  116OSM      P12125   6.898   6.015  10.819 -0.1323 -0.1773  0.6192
  116OSM    O1312126   6.863   6.107  10.930  0.1383 -0.0603  0.6810
  116OSM    O1412127   6.977   5.894  10.861 -0.0034  0.1491 -0.0463
  116OSM    O1112128   6.981   6.085  10.710  0.1973  0.9268 -0.2671
  116OSM    O1212129   6.772   5.965  10.727 -0.0299 -0.0303 -0.0032
  116OSM    C1S12130   7.036   6.000  10.601  0.3329 -0.3119 -0.0952
  116OSM    H1S12131   7.026   5.891  10.624  0.4959 -0.0300  1.3548
  116OSM    H1T12132   7.143   6.024  10.583  0.1448  0.0609 -0.7241
  116OSM     NF12133   7.035   5.943  10.364  0.3441 -0.3864  0.4938
  116OSM    HNF12134   7.111   5.985  10.315 -1.6229 -2.5575 -4.7466
  116OSM    C2S12135   6.974   6.039  10.458 -0.2488  0.3525  0.2200
  116OSM    H2S12136   6.865   6.016  10.468 -0.1028 -0.7050 -0.5407
  116OSM    C3S12137   7.006   6.187  10.432 -0.1818 -0.7920 -0.1646
  116OSM    H3S12138   7.116   6.198  10.422 -0.6277  2.7666 -2.2045
  116OSM     O312139   6.972   6.275  10.538 -0.3220 -0.2435  0.0411
  116OSM    HO312140   6.943   6.215  10.606 -1.2020 -0.5357 -0.5893
  116OSM    C4S12141   6.949   6.236  10.301 -0.0920  0.1272 -0.2171
  116OSM    H4S12142   7.001   6.203  10.210  0.1993  2.7712 -1.0812
  116OSM    C5S12143   6.840   6.314  10.279  0.1862  0.5116 -0.0178
  116OSM    H5S12144   6.768   6.340  10.358  0.6493 -4.1767  2.0919
  116OSM    C6S12145   6.798   6.355  10.137 -0.0381  0.0872 -0.1352
  116OSM    H6S12146   6.706   6.298  10.111  0.7421 -1.8573  1.1690
  116OSM    H6T12147   6.883   6.343  10.065 -1.1769  1.5253 -1.7546
  116OSM    C7S12148   6.776   6.513  10.135 -0.5146 -0.5146  0.3569
  116OSM    H7S12149   6.877   6.560  10.132 -0.7977  0.0103 -2.7231
  116OSM    H7T12150   6.725   6.545  10.228 -2.7767 -2.7391 -0.0554
  116OSM    C8S12151   6.688   6.562  10.020  0.2946 -0.1099 -1.0101
  116OSM    H8S12152   6.684   6.671  10.001  0.0850  0.1024  0.1727
  116OSM    H8T12153   6.582   6.532  10.035 -0.3927  3.3194  1.7198
  116OSM    C9S12154   6.749   6.520   9.884  0.5231 -1.0946  0.5450
  116OSM    H9S12155   6.728   6.411   9.877 -1.4170 -0.7918  1.3514
  116OSM    H9T12156   6.859   6.538   9.881  0.5940 -1.7592 -3.1817
  116OSM   C10S12157   6.695   6.598   9.761 -0.2089 -0.6815  0.7648
  116OSM   H10S12158   6.737   6.700   9.772 -0.7332 -0.3993  0.1418
  116OSM   H10T12159   6.584   6.593   9.764 -0.1793 -1.8433  0.1934
  116OSM   C11S12160   6.740   6.549   9.627 -0.0014  0.7144 -0.0394
  116OSM   H11S12161   6.692   6.603   9.543  0.6619 -0.4306 -1.1758
  116OSM   H11T12162   6.712   6.442   9.611 -0.8541  0.9834 -0.3951
  116OSM   C12S12163   6.886   6.562   9.607 -0.5878  0.2178  0.1480
  116OSM   H12S12164   6.945   6.502   9.681 -0.9717 -0.1981  0.1178
  116OSM   H12T12165   6.922   6.666   9.618  0.4555 -0.2478  1.2710
  116OSM   C13S12166   6.923   6.497   9.474 -0.2682 -0.0052 -0.0549
  116OSM   H13S12167   6.915   6.387   9.484  1.1721 -0.3206 -2.1134
  116OSM   H13T12168   7.030   6.521   9.457 -0.8510  4.2266  1.4803
  116OSM   C14S12169   6.838   6.545   9.359  1.1928 -0.5061 -1.0008
  116OSM   H14S12170   6.816   6.652   9.382 -0.5234 -1.1836  0.7093
  116OSM   H14T12171   6.737   6.498   9.362  0.8802  0.1959 -0.3805
  116OSM   C15S12172   6.905   6.544   9.223  0.0160 -0.1978 -0.2205
  116OSM   H15S12173   6.932   6.437   9.210 -1.0631 -0.2667 -2.1413
  116OSM   H15T12174   6.997   6.601   9.246 -0.5261  0.8310 -0.5538
  116OSM   C16S12175   6.817   6.609   9.121  0.0883  0.5535  0.0872
  116OSM   H16S12176   6.819   6.716   9.151  0.6384  0.2925  0.9864
  116OSM   H16T12177   6.714   6.567   9.128  1.0696 -1.9908  0.0241
  116OSM   C17S12178   6.874   6.619   8.978 -0.5843 -0.0850  0.2102
  116OSM   H17S12179   6.864   6.511   8.952  1.9636 -0.5950  1.2295
  116OSM   H17T12180   6.982   6.643   8.982 -0.6671  0.4330 -0.5870
  116OSM   C18S12181   6.808   6.705   8.875 -0.1870 -0.2538 -0.3708
  116OSM   H18S12182   6.809   6.815   8.890 -1.1212 -0.6788  3.4121
  116OSM   H18T12183   6.701   6.673   8.877  0.6927 -3.4262 -0.5627
  116OSM   H18U12184   6.852   6.684   8.775  0.4075  0.2756 -0.2218
  116OSM    C1F12185   7.005   5.812  10.368  0.5489 -0.5946  0.2958
  116OSM     OF12186   6.905   5.780  10.431  0.1162 -0.4324 -0.4244
  116OSM    C2F12187   7.085   5.704  10.300 -0.5242  0.2649  0.0784
  116OSM    H2F12188   7.093   5.620  10.372 -0.0607  0.0772 -0.1928
  116OSM    H2G12189   7.185   5.740  10.271  0.3597 -2.2932 -0.1919
  116OSM    C3F12190   6.993   5.655  10.182 -0.1513 -0.2220  0.1834
  116OSM    H3F12191   6.947   5.744  10.133  0.4458 -0.6175 -1.1010
  116OSM    H3G12192   6.902   5.607  10.222 -0.8898 -0.2672 -1.5213
  116OSM    C4F12193   7.072   5.564  10.085 -0.2850 -0.2800 -0.8157
  116OSM    H4F12194   7.105   5.479  10.147 -1.8963  0.0740  0.5448
  116OSM    H4G12195   7.159   5.625  10.051 -0.5804 -0.2470 -1.5191
  116OSM    C5F12196   6.987   5.499   9.981  0.0037  0.4769 -0.0339
  116OSM    H5F12197   6.894   5.463  10.028 -0.2763  1.7308  0.3780
  116OSM    H5G12198   7.046   5.406   9.963 -0.5411  0.0912  0.1615
  116OSM    C6F12199   6.960   5.580   9.856 -0.4207  0.1803  0.4462
  116OSM    H6F12200   7.053   5.614   9.806 -0.7839  0.5158 -0.0022
  116OSM    H6G12201   6.901   5.669   9.890  1.5664  1.7608 -0.1865
  116OSM    C7F12202   6.880   5.510   9.754 -0.0603 -0.3348  0.3726
  116OSM    H7F12203   6.778   5.485   9.790 -0.2013  0.4708  0.5431
  116OSM    H7G12204   6.919   5.406   9.747 -0.8420 -0.6072  0.0596
  116OSM    C8F12205   6.875   5.585   9.624 -0.4814  0.1302 -0.7981
  116OSM    H8F12206   6.979   5.608   9.592 -0.1362  0.8041  0.7503
  116OSM    H8G12207   6.820   5.681   9.630  2.1032  1.6126  0.3680
  116OSM    C9F12208   6.807   5.491   9.528  0.2998  0.1908 -0.0913
  116OSM    H9F12209   6.855   5.394   9.513  2.1949  1.5466 -3.1083
  116OSM   C10F12210   6.693   5.517   9.460 -0.3361 -0.6555  1.2681
  116OSM   H10F12211   6.647   5.438   9.399  0.1256 -0.5652  0.7998
  116OSM   C11F12212   6.615   5.649   9.467  0.1000  0.4157  0.5021
  116OSM   H11F12213   6.629   5.700   9.564  2.0197  0.2524  0.3313
  116OSM   H11G12214   6.506   5.635   9.448 -0.1265  1.3645  1.1110
  116OSM   C12F12215   6.661   5.751   9.358 -0.1589 -1.0434  0.3189
  116OSM   H12F12216   6.771   5.763   9.366 -0.1772 -1.7504  1.7442
  116OSM   H12G12217   6.613   5.849   9.376  0.5230 -0.7561  0.5763
  116OSM   C13F12218   6.617   5.701   9.217 -0.3710 -0.1921 -0.1614
  116OSM   H13F12219   6.506   5.702   9.209 -0.3770  0.1958 -0.0059
  116OSM   H13G12220   6.647   5.597   9.191  1.0059  0.1924 -0.1376
  116OSM   C14F12221   6.682   5.786   9.105  0.2138 -0.1301 -0.2057
  116OSM   H14F12222   6.791   5.770   9.096 -0.0427 -1.3740 -1.1583
  116OSM   H14G12223   6.665   5.893   9.131 -2.1949  0.0265 -2.1904
  116OSM   C15F12224   6.618   5.746   8.973 -0.1327 -0.7139  0.4539
  116OSM   H15F12225   6.509   5.767   8.972  0.1868  1.4873 -5.4457
  116OSM   H15G12226   6.631   5.640   8.941 -2.7114 -0.9634  0.0969
  116OSM   C16F12227   6.678   5.828   8.859  1.1598  0.3717  0.5828
  116OSM   H16F12228   6.786   5.804   8.852  0.8347 -1.3197  1.0704
  116OSM   H16G12229   6.660   5.936   8.878  1.8833  0.7347 -0.7788
  116OSM   C17F12230   6.616   5.805   8.718 -0.6061  0.1903 -0.2247
  116OSM   H17F12231   6.512   5.844   8.720 -0.4121  0.7877 -1.8308
  116OSM   H17G12232   6.604   5.697   8.697 -2.4665  0.2092  0.6754
  116OSM   C18F12233   6.685   5.888   8.614  0.0571  0.3361  0.5161
  116OSM   H18F12234   6.634   5.883   8.516  2.1186 -0.8664 -0.5066
  116OSM   H18G12235   6.789   5.850   8.611  0.4894  1.5611 -0.4532
  116OSM   H18H12236   6.693   5.996   8.641  1.7514  0.0737  1.0843
  117OSM      N12237   4.390   6.423  11.042 -0.1742 -0.1353 -0.0570
  117OSM    C1512238   4.243   6.456  11.022  0.0967  0.6827  0.1972
  117OSM   H15A12239   4.229   6.562  11.006  0.2204  0.5757 -0.6378
  117OSM   H15B12240   4.193   6.427  11.113 -0.3603  0.5126 -0.1047
  117OSM   H15C12241   4.196   6.411  10.935  0.7034 -0.2522  0.3448
  117OSM    C1412242   4.444   6.494  11.159 -1.0647  0.7512 -0.6588
  117OSM   H14A12243   4.545   6.467  11.188 -1.5194 -1.5817 -1.1094
  117OSM   H14B12244   4.385   6.471  11.247 -1.1743 -5.1736 -2.0462
  117OSM   H14C12245   4.438   6.600  11.141  0.2061  0.6429 -1.7843
  117OSM    C1312246   4.402   6.277  11.049  0.6812 -0.0860  0.0398
  117OSM   H13A12247   4.405   6.237  10.949 -0.5631 -0.2501  0.0583
  117OSM   H13B12248   4.319   6.230  11.100  0.3745  0.4224  0.0149
  117OSM   H13C12249   4.497   6.255  11.095  1.1948  1.2174 -0.3702
  117OSM    C1212250   4.461   6.473  10.913  0.7675 -0.1633  0.0086
  117OSM   H12A12251   4.423   6.400  10.842  0.6287 -0.9601  0.8947
  117OSM   H12B12252   4.567   6.451  10.913  0.9854  0.8450 -0.2111
  117OSM    C1112253   4.426   6.617  10.854  0.3203  0.0103 -0.6800
  117OSM   H11A12254   4.317   6.610  10.832  0.2272 -2.1532  0.2722
  117OSM   H11B12255   4.473   6.644  10.757  1.7338 -1.2614 -0.3625
  117OSM      P12256   4.385   6.866  10.905 -0.1415  0.2753 -0.0757
  117OSM    O1312257   4.246   6.860  10.862 -0.4556 -0.3315 -0.4059
  117OSM    O1412258   4.411   6.972  10.996  0.3925  0.3346 -1.2165
  117OSM    O1112259   4.469   6.891  10.777  0.4249 -0.3023  0.0681
  117OSM    O1212260   4.441   6.721  10.956  0.0702  0.3284 -0.3079
  117OSM    C1S12261   4.603   6.937  10.781  0.3423  0.0556  0.6668
  117OSM    H1S12262   4.665   6.881  10.854  1.6630  0.2620 -0.2608
  117OSM    H1T12263   4.615   7.042  10.817  0.9424  0.2000  0.0718
  117OSM     NF12264   4.806   6.927  10.638  0.3557 -0.9980 -0.5591
  117OSM    HNF12265   4.857   7.005  10.604  1.9761 -1.7644  0.0606
  117OSM    C2S12266   4.666   6.927  10.640 -0.5283  0.2189 -0.1461
  117OSM    H2S12267   4.621   6.838  10.591  1.8044 -3.2667  3.7429
  117OSM    C3S12268   4.614   7.051  10.554 -0.5813 -0.1147 -0.0112
  117OSM    H3S12269   4.660   7.146  10.587 -0.7471  0.2068 -0.6984
  117OSM     O312270   4.476   7.069  10.564 -0.3942 -0.2582  0.1382
  117OSM    HO312271   4.456   6.999  10.627  0.8066  1.0596  2.0258
  117OSM    C4S12272   4.656   7.028  10.411  0.6391 -0.2197  0.3942
  117OSM    H4S12273   4.611   6.935  10.375 -0.7872  0.3122  0.7684
  117OSM    C5S12274   4.720   7.102  10.326 -0.3679  0.2493  0.0046
  117OSM    H5S12275   4.746   7.205  10.355  2.5399 -0.2743 -0.6053
  117OSM    C6S12276   4.758   7.058  10.186  0.6497 -0.6962  0.5487
  117OSM    H6S12277   4.729   6.955  10.158  1.2888 -0.7558  0.0829
  117OSM    H6T12278   4.868   7.069  10.170  0.8724 -0.8030  1.9191
  117OSM    C7S12279   4.695   7.149  10.079 -0.2031 -0.2036  0.3343
  117OSM    H7S12280   4.706   7.258  10.100  0.3586  0.2389 -2.0809
  117OSM    H7T12281   4.586   7.132  10.071 -0.4875  0.3496  2.5594
  117OSM    C8S12282   4.749   7.123   9.936 -0.0864  0.0110 -0.4093
  117OSM    H8S12283   4.752   7.014   9.917 -0.2590  0.2720 -1.9643
  117OSM    H8T12284   4.854   7.157   9.922 -1.2399  3.3067 -1.5811
  117OSM    C9S12285   4.665   7.169   9.816 -0.3011 -0.3803  0.2533
  117OSM    H9S12286   4.655   7.278   9.831 -0.2764 -0.6564  2.4091
  117OSM    H9T12287   4.560   7.135   9.811 -0.8885  1.4975 -0.3926
  117OSM   C10S12288   4.738   7.140   9.684  0.2512  0.0186  0.5060
  117OSM   H10S12289   4.728   7.032   9.662 -0.3804  0.2648 -0.5075
  117OSM   H10T12290   4.847   7.159   9.674  0.1773  1.4060  2.2049
  117OSM   C11S12291   4.647   7.203   9.570 -0.2441 -0.1658  0.0168
  117OSM   H11S12292   4.640   7.311   9.592  1.2746 -0.1247  0.3726
  117OSM   H11T12293   4.546   7.157   9.576 -0.1646 -0.2812  0.4831
  117OSM   C12S12294   4.707   7.191   9.429 -0.3985 -0.0701  0.1126
  117OSM   H12S12295   4.721   7.085   9.398  2.0329  0.1814  0.2727
  117OSM   H12T12296   4.815   7.217   9.432 -0.5923  0.6181  1.6102
  117OSM   C13S12297   4.629   7.262   9.317  0.2684  0.3971 -0.5857
  117OSM   H13S12298   4.606   7.368   9.343  0.5351  0.3744 -0.2576
  117OSM   H13T12299   4.531   7.208   9.313 -0.0700  0.9281  0.2438
  117OSM   C14S12300   4.697   7.256   9.178 -0.7572  0.8700  0.3335
  117OSM   H14S12301   4.710   7.148   9.157  0.2230  0.1231  4.2694
  117OSM   H14T12302   4.800   7.297   9.187 -1.0780  1.7572  0.0332
  117OSM   C15S12303   4.610   7.317   9.070  0.9265  0.2098 -0.5132
  117OSM   H15S12304   4.603   7.425   9.095  2.0809 -0.0815  1.1481
  117OSM   H15T12305   4.515   7.260   9.058  0.9619 -0.3211  1.5610
  117OSM   C16S12306   4.694   7.303   8.943 -0.4395  0.2182  0.2498
  117OSM   H16S12307   4.711   7.200   8.905  1.4351  0.7854 -0.5296
  117OSM   H16T12308   4.797   7.341   8.958 -0.7227  0.0703  2.7428
  117OSM   C17S12309   4.646   7.379   8.817  0.2599  0.3806 -0.8487
  117OSM   H17S12310   4.638   7.482   8.858  2.7879  0.1637  0.2868
  117OSM   H17T12311   4.549   7.336   8.783  0.6889 -0.0916 -1.4685
  117OSM   C18S12312   4.758   7.383   8.706  0.3822 -0.1176 -0.0958
  117OSM   H18S12313   4.821   7.292   8.694  2.3870  1.5734 -3.1495
  117OSM   H18T12314   4.823   7.472   8.724 -2.6369  2.1362  0.0401
  117OSM   H18U12315   4.715   7.394   8.604 -0.1755  0.6675  0.2141
  117OSM    C1F12316   4.885   6.827  10.686  0.4084 -0.3007  0.8923
  117OSM     OF12317   4.835   6.734  10.749 -0.0016 -0.4626  0.5858
  117OSM    C2F12318   5.033   6.834  10.663 -0.4980  0.1115 -0.2632
  117OSM    H2F12319   5.090   6.802  10.753  0.8414  0.7725 -0.8567
  117OSM    H2G12320   5.053   6.941  10.641 -2.0232  1.0255  2.5253
  117OSM    C3F12321   5.097   6.740  10.554 -0.0168  0.1071 -0.0025
  117OSM    H3F12322   5.071   6.637  10.585 -0.9289 -0.4835 -2.5494
  117OSM    H3G12323   5.207   6.753  10.559  0.0605  0.3617 -1.9085
  117OSM    C4F12324   5.032   6.767  10.415  0.4939 -0.1948  0.1648
  117OSM    H4F12325   5.035   6.876  10.397 -0.3921 -0.3179 -0.7878
  117OSM    H4G12326   4.926   6.733  10.406  0.7915 -0.5679 -2.0905
  117OSM    C5F12327   5.116   6.731  10.293 -0.1423 -0.0316 -1.3430
  117OSM    H5F12328   5.133   6.621  10.299 -1.4514 -0.2932 -2.2613
  117OSM    H5G12329   5.219   6.773  10.299 -0.1846 -0.0911 -0.0961
  117OSM    C6F12330   5.048   6.755  10.168  0.4848  0.6201 -0.2427
  117OSM    H6F12331   5.014   6.861  10.160 -1.2165  0.1943  0.9754
  117OSM    H6G12332   4.954   6.696  10.167  1.4062 -0.8508 -0.8922
  117OSM    C7F12333   5.144   6.721  10.055 -0.2726  0.1588  0.1793
  117OSM    H7F12334   5.183   6.619  10.074 -0.4841  0.1988  0.8480
  117OSM    H7G12335   5.227   6.795  10.062 -1.2589  1.2503  0.3184
  117OSM    C8F12336   5.079   6.735   9.916 -0.1314 -0.3097 -0.0272
  117OSM    H8F12337   5.155   6.763   9.840  0.2029 -0.9158  0.0748
  117OSM    H8G12338   5.010   6.821   9.918 -0.2024 -0.3411 -1.0337
  117OSM    C9F12339   4.988   6.618   9.881 -0.2508  0.2834 -0.3203
  117OSM    H9F12340   4.933   6.578   9.968  0.1398  1.0354  0.2894
  117OSM   C10F12341   4.959   6.563   9.763 -0.4426 -0.1739 -0.1784
  117OSM   H10F12342   4.887   6.480   9.750 -2.3708  1.4821 -0.2829
  117OSM   C11F12343   5.028   6.604   9.632  0.0897 -0.0356 -0.1777
  117OSM   H11F12344   5.032   6.506   9.578  1.9978  0.3445 -0.7508
  117OSM   H11G12345   5.128   6.649   9.645 -0.8530  1.5026  2.0353
  117OSM   C12F12346   4.936   6.704   9.553  0.4226  0.0788  0.3828
  117OSM   H12F12347   4.907   6.797   9.605 -0.1795  1.1713 -1.8373
  117OSM   H12G12348   4.844   6.644   9.536 -0.7382  1.4839  1.5996
  117OSM   C13F12349   5.005   6.741   9.418 -0.5449 -0.3810  0.4867
  117OSM   H13F12350   5.063   6.656   9.375  0.5003  0.5640  0.0185
  117OSM   H13G12351   5.080   6.819   9.442 -0.3219 -0.4350 -0.0335
  117OSM   C14F12352   4.902   6.783   9.305  0.3020 -0.1504  0.6164
  117OSM   H14F12353   4.865   6.882   9.339 -1.4541 -0.9729  1.1458
  117OSM   H14G12354   4.825   6.704   9.296 -1.2923  1.6758 -2.1477
  117OSM   C15F12355   4.983   6.807   9.179  0.3312  1.0872  0.1215
  117OSM   H15F12356   5.064   6.732   9.166 -0.1388  0.5047  0.5416
  117OSM   H15G12357   5.027   6.908   9.193  1.5461  0.7072 -0.8674
  117OSM   C16F12358   4.911   6.802   9.047  0.4989 -0.2744 -0.3445
  117OSM   H16F12359   4.853   6.708   9.035 -2.0796  1.0646  1.2780
  117OSM   H16G12360   4.985   6.813   8.964  2.6998  1.0011  1.7304
  117OSM   C17F12361   4.807   6.909   9.020  0.4980 -1.1467 -0.2549
  117OSM   H17F12362   4.852   7.010   9.009 -1.4813 -0.4165 -2.0087
  117OSM   H17G12363   4.735   6.915   9.104 -0.4227 -0.8374 -1.0553
  117OSM   C18F12364   4.730   6.878   8.887  0.5224  0.2667 -0.7628
  117OSM   H18F12365   4.655   6.959   8.878 -0.9563 -1.1528 -1.7065
  117OSM   H18G12366   4.688   6.776   8.903  1.4954 -0.1611 -0.8813
  117OSM   H18H12367   4.802   6.882   8.802 -0.1404  2.4637 -1.2418
  118OSM      N12368   4.934   0.802  11.394 -0.4554  1.1039  0.2214
  118OSM    C1512369   4.960   0.679  11.478 -0.4139  0.2430 -0.2661
  118OSM   H15A12370   4.871   0.641  11.525 -0.2936  1.4737  0.9994
  118OSM   H15B12371   5.040   0.691  11.549  1.4823 -0.6130 -2.1853
  118OSM   H15C12372   5.006   0.607  11.412  0.3875  0.9969 -0.5405
  118OSM    C1412373   4.861   0.897  11.476  0.0960 -0.0788 -0.0161
  118OSM   H14A12374   4.768   0.858  11.516 -0.7307  1.2269 -0.6510
  118OSM   H14B12375   4.841   0.989  11.424  1.3377 -0.1225 -0.5929
  118OSM   H14C12376   4.916   0.925  11.565 -1.4053  2.6720  0.0888
  118OSM    C1312377   5.067   0.859  11.346  0.4832 -0.2306  0.4263
  118OSM   H13A12378   5.102   0.801  11.262 -0.0101  4.2511 -3.0184
  118OSM   H13B12379   5.139   0.869  11.426 -0.4207  0.1266  1.2042
  118OSM   H13C12380   5.043   0.958  11.312  0.3776 -0.1734  0.6670
  118OSM    C1212381   4.847   0.760  11.270  0.2897 -0.2855 -0.7468
  118OSM   H12A12382   4.745   0.739  11.299  0.1023  0.4969 -0.8288
  118OSM   H12B12383   4.874   0.660  11.240 -1.9193 -1.4390  0.9292
  118OSM    C1112384   4.838   0.858  11.142  0.0132  0.5577 -0.3401
  118OSM   H11A12385   4.754   0.816  11.082  1.0210 -2.0112 -0.0022
  118OSM   H11B12386   4.929   0.857  11.079  0.1950  1.5103 -0.0932
  118OSM      P12387   4.893   1.116  11.158  0.0351 -0.1944 -0.1461
  118OSM    O1312388   4.838   1.219  11.254 -0.1559  0.2742  0.1178
  118OSM    O1412389   5.034   1.091  11.183  0.5631 -0.7779 -0.1524
  118OSM    O1112390   4.857   1.152  11.013 -0.2322 -0.4497 -0.2895
  118OSM    O1212391   4.798   0.983  11.178 -0.9892 -0.6584 -0.3793
  118OSM    C1S12392   4.952   1.144  10.903 -0.5835 -0.4924 -0.2747
  118OSM    H1S12393   5.020   1.058  10.916 -2.2685 -1.7978  0.0823
  118OSM    H1T12394   5.018   1.232  10.920  0.4544 -1.6758  2.0348
  118OSM     NF12395   4.991   1.151  10.672  0.1125  0.2388  0.2059
  118OSM    HNF12396   4.997   1.233  10.616  1.4195  0.1605  0.2267
  118OSM    C2S12397   4.879   1.135  10.766  0.1317 -0.2038 -0.3244
  118OSM    H2S12398   4.833   1.035  10.751 -0.2223  0.3266 -2.9249
  118OSM    C3S12399   4.769   1.240  10.743  0.2684 -0.0187  0.1140
  118OSM    H3S12400   4.821   1.338  10.752  0.7960 -0.2936  0.1153
  118OSM     O312401   4.665   1.247  10.840 -0.3720 -0.3570 -0.0839
  118OSM    HO312402   4.700   1.224  10.926 -0.5543 -1.5069 -0.3067
  118OSM    C4S12403   4.715   1.234  10.600 -0.5179  0.3628  1.0456
  118OSM    H4S12404   4.784   1.277  10.526 -1.8096  0.4486 -0.1448
  118OSM    C5S12405   4.597   1.193  10.548 -0.0084  0.1677 -0.0135
  118OSM    H5S12406   4.528   1.142  10.617 -0.5472  0.7139 -0.1525
  118OSM    C6S12407   4.556   1.192  10.406  1.2714  0.2777 -0.1656
  118OSM    H6S12408   4.481   1.273  10.392 -1.4812 -1.8110  1.9271
  118OSM    H6T12409   4.502   1.096  10.388  0.6169  0.4152  1.0110
  118OSM    C7S12410   4.662   1.216  10.296 -0.6323 -0.1111 -0.1624
  118OSM    H7S12411   4.758   1.167  10.320 -1.1354 -1.4229 -0.8137
  118OSM    H7T12412   4.687   1.324  10.310  0.5792 -0.3685 -0.2946
  118OSM    C8S12413   4.608   1.179  10.162  0.8420 -0.2746 -0.2791
  118OSM    H8S12414   4.503   1.212  10.148  1.0195  1.7297  2.6662
  118OSM    H8T12415   4.595   1.070  10.146 -4.5965  0.4753 -2.2084
  118OSM    C9S12416   4.698   1.241  10.050 -0.1699  0.1468 -0.0126
  118OSM    H9S12417   4.802   1.205  10.066 -0.5492 -1.7020 -1.5166
  118OSM    H9T12418   4.686   1.352  10.045  0.5704  0.2126 -0.4079
  118OSM   C10S12419   4.639   1.184   9.924  0.6021  0.7085  1.1343
  118OSM   H10S12420   4.538   1.229   9.920 -0.7051 -2.1187  0.8517
  118OSM   H10T12421   4.632   1.073   9.922 -3.0704  0.8821  1.3546
  118OSM   C11S12422   4.718   1.227   9.799 -0.7435  0.5621  0.4361
  118OSM   H11S12423   4.818   1.178   9.793 -0.5189  0.8732  1.6407
  118OSM   H11T12424   4.726   1.337   9.786 -0.2205  0.2276 -2.5599
  118OSM   C12S12425   4.642   1.164   9.681 -0.0393 -0.7883 -0.0847
  118OSM   H12S12426   4.535   1.192   9.692  0.4845  1.5078 -0.7939
  118OSM   H12T12427   4.659   1.054   9.690  0.6441 -0.6127  0.8879
  118OSM   C13S12428   4.700   1.207   9.539  0.9090  0.6956  0.5371
  118OSM   H13S12429   4.801   1.162   9.531  0.1497 -0.6926 -1.8808
  118OSM   H13T12430   4.727   1.315   9.536 -3.3662  1.8329 -0.8520
  118OSM   C14S12431   4.604   1.183   9.425 -0.5662 -0.0107 -1.1854
  118OSM   H14S12432   4.498   1.202   9.453 -0.0993  0.5959  0.2084
  118OSM   H14T12433   4.603   1.073   9.412  0.6570  0.0256 -1.6001
  118OSM   C15S12434   4.641   1.252   9.291 -0.2750  0.5242 -0.7029
  118OSM   H15S12435   4.751   1.242   9.281  0.1135  2.5349  1.0410
  118OSM   H15T12436   4.606   1.357   9.298 -0.8213  0.2662  0.7775
  118OSM   C16S12437   4.571   1.193   9.164 -0.0219  0.5206  0.0023
  118OSM   H16S12438   4.461   1.185   9.176  0.1618 -1.3908  0.6802
  118OSM   H16T12439   4.620   1.093   9.160  2.8179  1.7831  1.4208
  118OSM   C17S12440   4.609   1.279   9.041 -0.1538 -0.9076  0.6165
  118OSM   H17S12441   4.718   1.297   9.043 -0.1770 -0.9108  2.1975
  118OSM   H17T12442   4.557   1.376   9.052  0.0074 -0.6650 -0.7304
  118OSM   C18S12443   4.572   1.220   8.905  0.8141  0.2188 -0.2437
  118OSM   H18S12444   4.462   1.208   8.893  1.3483 -3.3154 -2.4915
  118OSM   H18T12445   4.608   1.115   8.897 -0.1858 -0.3051  1.7176
  118OSM   H18U12446   4.597   1.278   8.814 -0.6414  1.5927  0.2189
  118OSM    C1F12447   5.083   1.060  10.647 -0.3690  0.6480 -0.2297
  118OSM     OF12448   5.094   0.955  10.712 -0.2381  0.4086  0.0237
  118OSM    C2F12449   5.175   1.096  10.531  0.3015 -0.1497  0.1272
  118OSM    H2F12450   5.270   1.044  10.553  0.6531  0.3511 -0.2150
  118OSM    H2G12451   5.195   1.205  10.527  0.3820 -0.1886 -0.5553
  118OSM    C3F12452   5.102   1.054  10.404 -0.3612 -0.3309  0.1311
  118OSM    H3F12453   4.996   1.087  10.415 -0.0567  0.9062 -0.5698
  118OSM    H3G12454   5.109   0.943  10.397 -0.2818 -0.3464  0.4768
  118OSM    C4F12455   5.157   1.120  10.283 -0.9058  0.6430  0.5714
  118OSM    H4F12456   5.267   1.106  10.292 -1.1224 -1.0344  0.6633
  118OSM    H4G12457   5.144   1.229  10.302 -2.1885  0.2661  1.9180
  118OSM    C5F12458   5.103   1.081  10.142 -0.4233 -0.1988 -0.1415
  118OSM    H5F12459   4.994   1.102  10.142 -0.4857 -0.5186  0.3115
  118OSM    H5G12460   5.120   0.973  10.122  2.0588  0.3287 -1.0767
  118OSM    C6F12461   5.188   1.137  10.040 -0.9519 -0.1522  0.1044
  118OSM    H6F12462   5.282   1.080  10.035 -0.6462  0.4400 -1.1995
  118OSM    H6G12463   5.211   1.244  10.059 -1.0950  0.0656 -0.8989
  118OSM    C7F12464   5.124   1.130   9.900  0.0157  0.2514 -0.3707
  118OSM    H7F12465   5.059   1.220   9.892 -0.3731  0.1652  1.6373
  118OSM    H7G12466   5.068   1.039   9.871 -2.6757  1.6366  0.2984
  118OSM    C8F12467   5.234   1.163   9.798 -0.8091 -0.1494 -0.3694
  118OSM    H8F12468   5.333   1.125   9.831 -0.9105  0.9457  1.2525
  118OSM    H8G12469   5.262   1.270   9.796  3.3346 -1.1061  2.1183
  118OSM    C9F12470   5.213   1.098   9.665 -0.7858 -0.1608  0.0109
  118OSM    H9F12471   5.199   0.990   9.679  5.1256 -1.2053 -1.1410
  118OSM   C10F12472   5.233   1.159   9.550  0.3696  0.9126  0.0489
  118OSM   H10F12473   5.234   1.099   9.458  0.2373 -0.6235  1.0246
  118OSM   C11F12474   5.277   1.304   9.527 -0.1756  0.1607  0.2541
  118OSM   H11F12475   5.371   1.314   9.469  0.3865 -2.3207  0.6723
  118OSM   H11G12476   5.301   1.358   9.622  1.8724  0.2122 -0.2687
  118OSM   C12F12477   5.165   1.391   9.458  0.5074  0.3742 -0.6772
  118OSM   H12F12478   5.187   1.498   9.478 -0.1198  0.0915  1.6242
  118OSM   H12G12479   5.070   1.366   9.509  2.0410  0.0426  2.0768
  118OSM   C13F12480   5.150   1.371   9.309 -0.0515 -0.3613  0.1143
  118OSM   H13F12481   5.051   1.414   9.283 -0.7088 -1.7383  0.2726
  118OSM   H13G12482   5.124   1.268   9.276 -0.1348  0.2449 -1.7494
  118OSM   C14F12483   5.252   1.441   9.222 -0.2329  0.6982  0.2208
  118OSM   H14F12484   5.346   1.381   9.214  0.1952  1.4875 -0.8426
  118OSM   H14G12485   5.296   1.531   9.271  3.2165 -1.2617  0.9164
  118OSM   C15F12486   5.210   1.475   9.077  0.4674 -0.4507  0.4371
  118OSM   H15F12487   5.300   1.507   9.019 -0.1501  0.3761 -0.0881
  118OSM   H15G12488   5.141   1.562   9.086  0.4715 -0.4387  0.3597
  118OSM   C16F12489   5.135   1.359   9.009  0.2032 -0.1727  0.1972
  118OSM   H16F12490   5.028   1.350   9.038  0.3008 -1.0422  0.2847
  118OSM   H16G12491   5.172   1.260   9.043 -2.3442 -1.4072 -0.5081
  118OSM   C17F12492   5.140   1.361   8.859  0.0006  0.5080 -0.2513
  118OSM   H17F12493   5.248   1.373   8.832  0.9830 -2.1391  2.2865
  118OSM   H17G12494   5.086   1.451   8.822 -0.4000  1.1697  1.8909
  118OSM   C18F12495   5.081   1.233   8.789 -0.4845  0.1349 -0.2345
  118OSM   H18F12496   5.137   1.143   8.822 -1.6322 -1.7770 -3.3250
  118OSM   H18G12497   5.079   1.246   8.679 -2.3329 -2.9596 -0.6305
  118OSM   H18H12498   4.974   1.226   8.819 -0.4190 -0.2129 -0.0839
  119OSM      N12499   5.688   0.451  11.129  0.0280 -0.3110 -0.3352
  119OSM    C1512500   5.590   0.350  11.165  0.5210  0.2530  0.1961
  119OSM   H15A12501   5.635   0.261  11.207 -0.9238 -1.0052 -0.8571
  119OSM   H15B12502   5.545   0.312  11.075 -1.4201 -1.7155  1.9302
  119OSM   H15C12503   5.515   0.384  11.236 -0.6306 -2.1188  0.1935
  119OSM    C1412504   5.784   0.471  11.243  0.2649 -1.0692  0.0813
  119OSM   H14A12505   5.743   0.510  11.335 -0.9802 -1.2301 -0.3960
  119OSM   H14B12506   5.865   0.531  11.204  0.6274 -1.1842  0.6391
  119OSM   H14C12507   5.831   0.378  11.272  0.8346 -0.7683  0.1333
  119OSM    C1312508   5.771   0.398  11.011 -0.4206 -0.1756  0.6598
  119OSM   H13A12509   5.839   0.473  10.976  0.2408 -1.3255 -0.5763
  119OSM   H13B12510   5.704   0.371  10.931 -1.9186 -1.2003  2.2162
  119OSM   H13C12511   5.834   0.313  11.032 -0.9586 -0.4189  1.3282
  119OSM    C1212512   5.626   0.586  11.104 -0.1502 -0.0589 -0.0593
  119OSM   H12A12513   5.696   0.663  11.073  0.5073  0.1464  1.8637
  119OSM   H12B12514   5.595   0.620  11.202 -0.2937  0.0858 -0.1540
  119OSM    C1112515   5.504   0.601  11.010  0.3237 -0.5206  0.5423
  119OSM   H11A12516   5.478   0.708  10.998 -1.0553 -0.8919  0.1975
  119OSM   H11B12517   5.412   0.557  11.053  1.4702 -0.5024  3.1245
  119OSM      P12518   5.613   0.634  10.787  0.4817  0.0144  0.3212
  119OSM    O1312519   5.531   0.757  10.755 -0.8641 -0.1603 -0.6831
  119OSM    O1412520   5.744   0.666  10.851 -0.2649 -0.3904 -0.6176
  119OSM    O1112521   5.642   0.548  10.656  0.1178  0.5023  0.0337
  119OSM    O1212522   5.527   0.550  10.885  0.0993  0.7639  0.3452
  119OSM    C1S12523   5.688   0.412  10.655  0.4655  0.2568  0.7178
  119OSM    H1S12524   5.619   0.350  10.716  1.2559  1.1109  2.5188
  119OSM    H1T12525   5.784   0.401  10.709  0.2436  1.0276  1.2607
  119OSM     NF12526   5.722   0.221  10.510 -0.3913 -0.0359  0.9645
  119OSM    HNF12527   5.816   0.189  10.516 -0.2632  0.4977  1.9375
  119OSM    C2S12528   5.709   0.367  10.506 -0.9981  0.4011  1.1220
  119OSM    H2S12529   5.617   0.388  10.447  0.1145 -0.2690 -0.9251
  119OSM    C3S12530   5.829   0.443  10.444 -0.0325 -0.2160  0.6839
  119OSM    H3S12531   5.914   0.432  10.514  1.5043  2.3899 -0.7062
  119OSM     O312532   5.802   0.579  10.433  0.7193 -0.0902 -0.7185
  119OSM    HO312533   5.747   0.605  10.508  1.6330 -0.4943  0.1100
  119OSM    C4S12534   5.865   0.386  10.311  0.1169  0.4646 -0.1020
  119OSM    H4S12535   5.927   0.296  10.315  0.4439  0.7364  1.0305
  119OSM    C5S12536   5.826   0.431  10.193 -0.4802 -0.4060  0.1958
  119OSM    H5S12537   5.758   0.518  10.190  1.5611  1.2070 -0.5668
  119OSM    C6S12538   5.863   0.376  10.059  0.0880 -0.1796  0.2413
  119OSM    H6S12539   5.961   0.325  10.061 -0.2205 -0.9031 -1.4680
  119OSM    H6T12540   5.880   0.458   9.987 -0.4590 -0.0563  0.2456
  119OSM    C7S12541   5.749   0.287  10.007  0.0701 -0.3372  0.1437
  119OSM    H7S12542   5.653   0.342  10.017 -0.0258 -0.6946  1.1782
  119OSM    H7T12543   5.743   0.200  10.074  0.3541  0.9276  1.8372
  119OSM    C8S12544   5.771   0.251   9.857  0.3425  0.2958 -0.8223
  119OSM    H8S12545   5.766   0.142   9.838 -0.8312  0.6108 -2.5291
  119OSM    H8T12546   5.873   0.291   9.840  0.0841  0.9850 -0.7903
  119OSM    C9S12547   5.683   0.329   9.761 -0.0174  0.0542  0.0606
  119OSM    H9S12548   5.698   0.436   9.789  2.5562  0.0173 -1.0387
  119OSM    H9T12549   5.579   0.293   9.778 -0.0974 -1.5671 -3.5104
  119OSM   C10S12550   5.715   0.309   9.618 -0.3420 -0.3390 -0.3098
  119OSM   H10S12551   5.665   0.217   9.580 -0.6407 -0.2535 -0.1290
  119OSM   H10T12552   5.826   0.305   9.609 -0.2332 -0.7848  1.0818
  119OSM   C11S12553   5.661   0.410   9.518  0.2675 -0.2561 -0.3478
  119OSM   H11S12554   5.687   0.516   9.538 -1.8819  0.2006  0.1296
  119OSM   H11T12555   5.550   0.409   9.525  0.3276 -1.7028  0.5200
  119OSM   C12S12556   5.690   0.380   9.367 -0.2403  0.0225  0.0722
  119OSM   H12S12557   5.609   0.317   9.323 -0.2139  1.4674 -2.1164
  119OSM   H12T12558   5.790   0.333   9.359  0.1302  1.0822 -1.9012
  119OSM   C13S12559   5.686   0.507   9.285 -0.0470 -0.0612 -0.2567
  119OSM   H13S12560   5.769   0.575   9.314 -1.3617  0.5613  2.2611
  119OSM   H13T12561   5.599   0.569   9.315 -0.0064 -1.1223  2.2299
  119OSM   C14S12562   5.684   0.481   9.133  0.2820  0.2209  0.1775
  119OSM   H14S12563   5.585   0.437   9.105  0.4516 -0.6752  0.9447
  119OSM   H14T12564   5.767   0.417   9.097  1.3486  1.1042  1.0669
  119OSM   C15S12565   5.695   0.617   9.061 -0.3854  0.6700 -0.0786
  119OSM   H15S12566   5.805   0.634   9.069  0.4241 -3.2869 -1.5665
  119OSM   H15T12567   5.645   0.703   9.111 -0.5566 -0.7686  2.3166
  119OSM   C16S12568   5.646   0.607   8.915 -0.5301 -0.0614  0.8181
  119OSM   H16S12569   5.535   0.609   8.910 -0.5445  1.7466  1.5264
  119OSM   H16T12570   5.679   0.507   8.879  0.5972  0.2888  0.8629
  119OSM   C17S12571   5.697   0.717   8.817  0.3413  0.0830 -0.4362
  119OSM   H17S12572   5.690   0.686   8.711 -1.3229 -1.3031  0.0457
  119OSM   H17T12573   5.805   0.731   8.837 -0.1096 -0.8940  3.1492
  119OSM   C18S12574   5.624   0.845   8.852 -0.0756 -0.3010  0.8539
  119OSM   H18S12575   5.671   0.928   8.795 -0.5449 -0.1377  0.6970
  119OSM   H18T12576   5.643   0.888   8.952  1.2568 -0.3136  0.6112
  119OSM   H18U12577   5.518   0.845   8.816 -0.2215  0.2741  1.2885
  119OSM    C1F12578   5.623   0.140  10.527  0.5761 -0.7934 -0.0321
  119OSM     OF12579   5.509   0.187  10.537  0.4853 -0.2345 -0.1282
  119OSM    C2F12580   5.648  -0.002  10.520  0.6525  0.1110 -0.3908
  119OSM    H2F12581   5.635  -0.040  10.623 -0.8629 -3.1508 -1.6898
  119OSM    H2G12582   5.755  -0.017  10.494  1.4414  1.0079  2.2692
  119OSM    C3F12583   5.556  -0.060  10.408 -0.7580  0.6522 -0.2913
  119OSM    H3F12584   5.453  -0.021  10.413 -0.9082  0.3271 -0.8855
  119OSM    H3G12585   5.541  -0.168  10.429 -0.3694  0.3590 -1.4834
  119OSM    C4F12586   5.602  -0.041  10.263  0.0537  0.3890 -0.4317
  119OSM    H4F12587   5.693  -0.100  10.239  0.6768  0.5550  1.4342
  119OSM    H4G12588   5.619   0.066  10.239  1.3453  0.2669 -0.1094
  119OSM    C5F12589   5.507  -0.096  10.161 -0.0798  0.0449  0.3398
  119OSM    H5F12590   5.408  -0.045  10.170 -1.2872 -1.5511 -2.9567
  119OSM    H5G12591   5.496  -0.206  10.162 -1.0217  0.1147 -0.8942
  119OSM    C6F12592   5.554  -0.048  10.019  0.6285  0.7258  0.5350
  119OSM    H6F12593   5.660  -0.078  10.006 -0.0937 -2.0268  0.6954
  119OSM    H6G12594   5.539   0.061  10.004  1.9048  0.8582  0.1534
  119OSM    C7F12595   5.482  -0.113   9.903 -0.3675  0.0015  0.7539
  119OSM    H7F12596   5.372  -0.104   9.913 -0.3195 -0.3015  1.5545
  119OSM    H7G12597   5.503  -0.222   9.906 -0.2911 -0.0238 -0.3110
  119OSM    C8F12598   5.526  -0.064   9.759  0.5198 -0.1426 -0.3075
  119OSM    H8F12599   5.623  -0.115   9.746  0.6195 -0.7896  2.6712
  119OSM    H8G12600   5.525   0.047   9.752  1.4035 -0.1237 -0.1356
  119OSM    C9F12601   5.417  -0.102   9.665 -0.6163  0.9373 -0.1220
  119OSM    H9F12602   5.321  -0.130   9.711 -0.2070 -1.6836 -0.7346
  119OSM   C10F12603   5.428  -0.113   9.534 -0.1685 -0.2278  0.4439
  119OSM   H10F12604   5.345  -0.150   9.472 -2.0427  1.6568  1.7237
  119OSM   C11F12605   5.553  -0.087   9.456  0.7097 -0.5640  0.1190
  119OSM   H11F12606   5.582  -0.178   9.400  0.1207 -2.5384  2.8797
  119OSM   H11G12607   5.639  -0.056   9.520  2.1999  0.7796 -2.4749
  119OSM   C12F12608   5.531   0.032   9.357  0.3277  0.1048  0.8644
  119OSM   H12F12609   5.525   0.123   9.420  0.9222 -0.3715  1.6315
  119OSM   H12G12610   5.439   0.004   9.301 -0.0669 -0.0158  1.5753
  119OSM   C13F12611   5.637   0.028   9.243 -0.9285 -0.0164 -0.2791
  119OSM   H13F12612   5.662  -0.076   9.214  0.9239  0.5360 -0.7558
  119OSM   H13G12613   5.723   0.074   9.298 -1.4901 -1.8136  2.1849
  119OSM   C14F12614   5.590   0.110   9.123  0.2174 -0.3936 -0.4631
  119OSM   H14F12615   5.653   0.199   9.105  0.4072 -0.1204  1.4710
  119OSM   H14G12616   5.501   0.164   9.162  0.6067  1.3843 -1.9821
  119OSM   C15F12617   5.570   0.028   8.996 -0.2980 -0.2724  0.7688
  119OSM   H15F12618   5.480  -0.033   9.017 -1.6223  1.0843 -0.9097
  119OSM   H15G12619   5.657  -0.039   8.977  0.3573  0.2926  1.7157
  119OSM   C16F12620   5.557   0.109   8.872 -0.6898  0.1262 -0.3614
  119OSM   H16F12621   5.642   0.179   8.854 -0.4577 -0.0359  0.0785
  119OSM   H16G12622   5.464   0.168   8.883  0.1063  1.6377 -1.6776
  119OSM   C17F12623   5.532   0.026   8.742  0.1610  0.4345 -0.7056
  119OSM   H17F12624   5.443  -0.040   8.752 -0.0166  1.2093  3.4947
  119OSM   H17G12625   5.625  -0.033   8.735  0.9758  1.5597  0.4465
  119OSM   C18F12626   5.527   0.099   8.607  0.4850 -0.9784  0.5648
  119OSM   H18F12627   5.525   0.030   8.520  1.3734  0.0363 -0.2786
  119OSM   H18G12628   5.599   0.183   8.601 -0.0341 -0.5453  0.4788
  119OSM   H18H12629   5.431   0.154   8.607  1.1549  0.1925  0.3630
  120OSM      N12630   5.163   4.147  10.703  1.0499  0.1315 -0.1398
  120OSM    C1512631   5.110   4.011  10.693 -0.7207 -0.8092  0.5086
  120OSM   H15A12632   5.170   3.944  10.634  3.5299  1.6389  1.8704
  120OSM   H15B12633   5.014   4.017  10.643 -0.5896 -1.6946  0.1517
  120OSM   H15C12634   5.086   3.969  10.790 -1.2742  1.5211  1.4357
  120OSM    C1412635   5.055   4.226  10.780  0.2992 -0.2074  0.0597
  120OSM   H14A12636   5.106   4.317  10.810  0.6005 -0.3956  0.1124
  120OSM   H14B12637   5.018   4.173  10.866  0.3841  1.8444  1.4095
  120OSM   H14C12638   4.972   4.253  10.716  0.1798  1.2857  0.8133
  120OSM    C1312639   5.291   4.148  10.788  0.3994  0.4303  0.6656
  120OSM   H13A12640   5.266   4.094  10.879 -2.6657  0.8687  0.0993
  120OSM   H13B12641   5.327   4.248  10.807 -0.5128  0.8910 -0.0294
  120OSM   H13C12642   5.367   4.100  10.728 -0.7632 -0.6103 -0.0077
  120OSM    C1212643   5.191   4.214  10.573 -1.1626  0.1382 -0.2518
  120OSM   H12A12644   5.284   4.181  10.528  0.0863  1.3893  1.3771
  120OSM   H12B12645   5.214   4.317  10.593 -0.2716 -0.2184  0.6358
  120OSM    C1112646   5.090   4.198  10.461 -0.1896 -0.5590  1.0273
  120OSM   H11A12647   5.073   4.094  10.427 -0.4139 -0.2126  0.0734
  120OSM   H11B12648   5.121   4.262  10.375 -1.8569 -2.9228 -1.3984
  120OSM      P12649   4.820   4.202  10.507  0.3555  0.3249  0.4261
  120OSM    O1312650   4.822   4.057  10.538  0.0471  0.3707  0.4030
  120OSM    O1412651   4.747   4.272  10.609  0.2849 -0.2684 -0.3787
  120OSM    O1112652   4.767   4.233  10.364 -0.3564 -0.2093 -0.1581
  120OSM    O1212653   4.968   4.268  10.506  0.2855  0.1334  0.0227
  120OSM    C1S12654   4.802   4.349  10.286  0.7001  0.3928  1.4505
  120OSM    H1S12655   4.905   4.388  10.298  0.9290  1.1668 -2.4719
  120OSM    H1T12656   4.734   4.436  10.303 -0.7163  0.4829 -3.9110
  120OSM     NF12657   4.845   4.420  10.044 -0.0216 -0.3412 -0.1150
  120OSM    HNF12658   4.787   4.497  10.017 -1.6508 -2.0780 -1.6959
  120OSM    C2S12659   4.781   4.322  10.132  0.0150 -0.4703  0.3969
  120OSM    H2S12660   4.836   4.227  10.114 -1.1382 -1.1126  0.2354
  120OSM    C3S12661   4.628   4.295  10.110 -0.0874  0.0924 -0.0154
  120OSM    H3S12662   4.575   4.380  10.157  0.0938  0.9707 -1.4024
  120OSM     O312663   4.581   4.174  10.174  0.1431  0.8975 -0.0583
  120OSM    HO312664   4.652   4.155  10.235  0.4218  0.1332 -0.6150
  120OSM    C4S12665   4.611   4.285   9.963  0.1240 -0.1875 -0.1514
  120OSM    H4S12666   4.613   4.381   9.908 -0.7970 -0.8482 -1.3515
  120OSM    C5S12667   4.609   4.177   9.890 -0.0858 -0.0762  0.0597
  120OSM    H5S12668   4.606   4.072   9.926 -2.6275  0.2337  0.8836
  120OSM    C6S12669   4.594   4.190   9.737 -0.1258 -1.1078 -0.4966
  120OSM    H6S12670   4.700   4.176   9.704  0.4398  0.6404  0.5452
  120OSM    H6T12671   4.550   4.289   9.713 -0.3151 -0.6967  1.4581
  120OSM    C7S12672   4.507   4.076   9.681  0.3418 -0.4410 -0.1496
  120OSM    H7S12673   4.412   4.079   9.739 -0.1810 -0.0391 -1.0120
  120OSM    H7T12674   4.559   3.981   9.706 -1.5635 -2.6091 -3.9380
  120OSM    C8S12675   4.494   4.096   9.526 -0.1267  0.8161  0.1159
  120OSM    H8S12676   4.455   4.200   9.522 -0.8776  0.6145  1.5902
  120OSM    H8T12677   4.410   4.033   9.490 -0.0304  0.2594  0.8457
  120OSM    C9S12678   4.627   4.064   9.446  0.2673  0.5851  0.0555
  120OSM    H9S12679   4.651   3.955   9.451 -1.4633  0.2233  0.9493
  120OSM    H9T12680   4.714   4.115   9.492  0.5500  0.3530 -0.2238
  120OSM   C10S12681   4.620   4.094   9.298  0.3836  0.6070 -0.0441
  120OSM   H10S12682   4.719   4.078   9.250  0.6366  1.0144  0.3397
  120OSM   H10T12683   4.602   4.201   9.274  2.4706  1.3894  1.6788
  120OSM   C11S12684   4.515   4.006   9.225 -0.7059 -0.2565 -0.1117
  120OSM   H11S12685   4.415   4.052   9.241  0.0509  1.3993  0.0042
  120OSM   H11T12686   4.525   3.905   9.271  0.1020 -0.6813 -1.1880
  120OSM   C12S12687   4.545   3.989   9.072 -0.4182 -0.4303  0.6723
  120OSM   H12S12688   4.499   3.892   9.043 -1.3736  0.1457  0.2017
  120OSM   H12T12689   4.652   3.968   9.056 -0.0203  1.4371  0.8266
  120OSM   C13S12690   4.512   4.113   8.992  0.0507  0.1136  0.2305
  120OSM   H13S12691   4.559   4.204   9.034  0.1220  0.4352 -0.5378
  120OSM   H13T12692   4.402   4.125   8.987 -0.0609 -1.1246 -0.5316
  120OSM   C14S12693   4.573   4.102   8.854 -0.1503  1.0560 -0.4502
  120OSM   H14S12694   4.558   3.999   8.815  0.3676  0.7593  0.1303
  120OSM   H14T12695   4.683   4.117   8.858 -0.0743  0.5782 -0.7212
  120OSM   C15S12696   4.518   4.201   8.760  0.0814  0.3974 -0.0591
  120OSM   H15S12697   4.529   4.303   8.803 -0.4105  0.4023  0.0478
  120OSM   H15T12698   4.411   4.190   8.736  0.1451  1.3694 -0.8493
  120OSM   C16S12699   4.590   4.201   8.627 -0.1723 -0.1024 -0.7196
  120OSM   H16S12700   4.597   4.103   8.576  0.2616  0.3117 -1.4553
  120OSM   H16T12701   4.697   4.228   8.634 -0.5059  1.2350 -0.7849
  120OSM   C17S12702   4.514   4.283   8.531 -0.0268 -0.4807 -0.0227
  120OSM   H17S12703   4.507   4.390   8.562 -0.4132 -1.1386  2.2625
  120OSM   H17T12704   4.412   4.248   8.507 -0.0329 -1.2180  1.0332
  120OSM   C18S12705   4.579   4.269   8.389 -0.7706  0.1677  0.1594
  120OSM   H18S12706   4.682   4.311   8.385 -0.6395 -0.3357 -4.2785
  120OSM   H18T12707   4.523   4.330   8.315 -1.6744 -4.4455 -3.1820
  120OSM   H18U12708   4.576   4.166   8.348 -0.2660 -0.3277  1.3491
  120OSM    C1F12709   4.974   4.430  10.022 -0.0905  0.5158  0.3071
  120OSM     OF12710   5.053   4.341  10.055  0.2397  0.0476  0.4082
  120OSM    C2F12711   5.026   4.548   9.958 -0.4926  0.6026  0.6276
  120OSM    H2F12712   5.136   4.559   9.971 -0.2672  0.9061 -1.3577
  120OSM    H2G12713   4.991   4.645  10.000  1.3532  1.9700 -0.8670
  120OSM    C3F12714   4.984   4.574   9.811  0.6720 -1.0856 -0.0016
  120OSM    H3F12715   5.059   4.648   9.775  0.8728 -2.9849 -3.6362
  120OSM    H3G12716   4.882   4.616   9.802  1.3837  0.4691 -1.0787
  120OSM    C4F12717   5.009   4.460   9.707 -0.1744 -0.0345  0.6722
  120OSM    H4F12718   4.942   4.375   9.732 -0.1635 -0.1214  0.4048
  120OSM    H4G12719   5.113   4.423   9.718  0.5466  2.4062  2.6898
  120OSM    C5F12720   4.981   4.507   9.562 -0.0203 -0.2428  1.0034
  120OSM    H5F12721   5.053   4.583   9.527  2.1533 -3.0903 -0.9931
  120OSM    H5G12722   4.880   4.552   9.551 -0.3124 -0.9835  0.5800
  120OSM    C6F12723   4.976   4.389   9.450  0.4114  0.2483  0.5888
  120OSM    H6F12724   4.905   4.310   9.482  1.2986 -0.5183  0.6899
  120OSM    H6G12725   5.071   4.333   9.433 -0.3276 -1.3843  1.7623
  120OSM    C7F12726   4.927   4.432   9.306 -0.8114 -0.0596 -0.4983
  120OSM    H7F12727   4.965   4.535   9.294  0.7539 -0.5111  0.4377
  120OSM    H7G12728   4.817   4.437   9.317 -0.8069  0.5357 -0.7315
  120OSM    C8F12729   4.973   4.342   9.191  1.1132  0.8042  0.6482
  120OSM    H8F12730   4.946   4.236   9.210  0.2367  0.8100 -0.4738
  120OSM    H8G12731   5.082   4.349   9.169  0.9462  0.5102 -0.3134
  120OSM    C9F12732   4.904   4.392   9.065 -0.4746  0.2980 -0.0351
  120OSM    H9F12733   4.795   4.393   9.076 -0.3777  0.3437  0.9598
  120OSM   C10F12734   4.959   4.442   8.955  0.2725 -0.8429  0.5217
  120OSM   H10F12735   4.898   4.464   8.866 -0.1075  1.7833  1.3861
  120OSM   C11F12736   5.102   4.443   8.927 -0.6987 -0.4513 -0.9511
  120OSM   H11F12737   5.144   4.350   8.972 -0.4648  0.0412 -0.1484
  120OSM   H11G12738   5.161   4.521   8.979  1.3465 -2.3670 -0.2899
  120OSM   C12F12739   5.152   4.451   8.783 -0.0787 -0.4929  0.1711
  120OSM   H12F12740   5.096   4.534   8.733 -0.8585 -1.7997 -1.1964
  120OSM   H12G12741   5.113   4.361   8.730 -0.5848  0.0440 -0.3800
  120OSM   C13F12742   5.303   4.465   8.768  0.7481  0.8154 -0.5944
  120OSM   H13F12743   5.353   4.376   8.811  0.1910  0.6294 -0.3225
  120OSM   H13G12744   5.347   4.561   8.803  0.2408  0.8579 -0.0602
  120OSM   C14F12745   5.335   4.461   8.619  0.2789 -0.3708 -0.2738
  120OSM   H14F12746   5.298   4.556   8.575 -0.9695 -0.4072  0.6649
  120OSM   H14G12747   5.283   4.375   8.573 -0.0822 -0.2438 -0.0975
  120OSM   C15F12748   5.476   4.445   8.568  0.0376 -0.6551  0.1145
  120OSM   H15F12749   5.521   4.345   8.584  0.6897 -0.2103  1.1524
  120OSM   H15G12750   5.524   4.526   8.626 -3.0400 -0.0805  2.0277
  120OSM   C16F12751   5.472   4.468   8.414  0.4854  0.1629 -0.2146
  120OSM   H16F12752   5.421   4.563   8.389 -0.5858 -0.5866 -0.9094
  120OSM   H16G12753   5.410   4.399   8.352  0.5177  0.5656 -0.6986
  120OSM   C17F12754   5.618   4.477   8.359 -0.3135 -0.6632 -0.3653
  120OSM   H17F12755   5.691   4.405   8.401  0.6976 -0.8163 -2.3149
  120OSM   H17G12756   5.659   4.572   8.399 -1.7419 -0.2105  0.0725
  120OSM   C18F12757   5.627   4.454   8.207 -0.5599 -0.1993  0.1433
  120OSM   H18F12758   5.733   4.459   8.175 -0.8086  1.6968 -0.4455
  120OSM   H18G12759   5.562   4.524   8.151 -1.3210 -0.2943  0.8903
  120OSM   H18H12760   5.583   4.356   8.181 -0.0181  0.3469 -3.0067
  121OSM      N12761   4.090   0.844  11.157  0.4719 -0.2012  0.2978
  121OSM    C1512762   3.971   0.929  11.178 -0.4600  0.4448  0.3035
  121OSM   H15A12763   3.881   0.876  11.150  0.6760 -1.3753  0.0264
  121OSM   H15B12764   3.968   1.007  11.103 -2.0934 -1.3771 -1.5685
  121OSM   H15C12765   3.957   0.959  11.281 -1.5109 -0.3367  0.3946
  121OSM    C1412766   4.212   0.914  11.200 -0.1685 -0.2903 -0.5665
  121OSM   H14A12767   4.305   0.863  11.182  1.7346  2.5775  0.8832
  121OSM   H14B12768   4.203   0.929  11.306  4.5486  0.6469 -0.2170
  121OSM   H14C12769   4.219   1.013  11.156  0.0381  0.4717  1.1626
  121OSM    C1312770   4.070   0.725  11.246 -0.3743 -0.3377  0.5624
  121OSM   H13A12771   3.998   0.653  11.210  0.8582 -0.3360 -1.9468
  121OSM   H13B12772   4.040   0.761  11.344  2.9809 -0.6335  1.7770
  121OSM   H13C12773   4.166   0.677  11.258  0.3370  1.3739  2.0278
  121OSM    C1212774   4.096   0.783  11.017 -0.7373 -0.5046 -0.4917
  121OSM   H12A12775   4.177   0.711  11.020 -0.0299  0.2642 -1.0235
  121OSM   H12B12776   4.118   0.871  10.959  1.6535 -0.8613 -0.1864
  121OSM    C1112777   3.973   0.707  10.965  0.5237  0.5198 -0.0143
  121OSM   H11A12778   3.959   0.718  10.855  0.0876  1.5367  0.1378
  121OSM   H11B12779   3.885   0.753  11.015 -0.6209  0.3115 -1.7988
  121OSM      P12780   4.028   0.446  10.938  0.1774 -0.1089 -0.4041
  121OSM    O1312781   4.145   0.401  11.019  0.0717 -0.5675 -0.3576
  121OSM    O1412782   3.916   0.357  10.920 -0.1385  0.3579  0.9036
  121OSM    O1112783   4.064   0.493  10.794 -0.7853  0.0088  0.2333
  121OSM    O1212784   3.969   0.573  11.006  0.4742 -0.2713 -0.8101
  121OSM    C1S12785   4.125   0.405  10.698  0.1721  0.3515 -0.9507
  121OSM    H1S12786   4.049   0.329  10.670  0.4900 -0.5647  0.6066
  121OSM    H1T12787   4.212   0.354  10.746  0.6998  0.8827 -1.3367
  121OSM     NF12788   4.209   0.379  10.476  0.3747  0.5945  0.2809
  121OSM    HNF12789   4.301   0.344  10.490  0.7287  1.8016  1.0859
  121OSM    C2S12790   4.175   0.482  10.569 -0.0913  0.3505  0.0232
  121OSM    H2S12791   4.093   0.537  10.518 -0.1958  1.2067  1.0910
  121OSM    C3S12792   4.288   0.583  10.603  0.1641 -0.2040  0.0859
  121OSM    H3S12793   4.368   0.539  10.666  0.1260 -0.4449 -0.0348
  121OSM     O312794   4.233   0.688  10.690 -0.5002  0.1175 -0.3679
  121OSM    HO312795   4.150   0.654  10.724 -1.5337  0.9725 -1.9994
  121OSM    C4S12796   4.345   0.647  10.477 -0.2577  0.4516  0.5460
  121OSM    H4S12797   4.431   0.595  10.433  0.9847 -0.5629  4.0191
  121OSM    C5S12798   4.283   0.740  10.396 -0.3809 -0.2750  0.5457
  121OSM    H5S12799   4.183   0.779  10.420 -0.0264  0.7315  0.3840
  121OSM    C6S12800   4.341   0.784  10.261  0.4202  0.1980 -0.2415
  121OSM    H6S12801   4.440   0.739  10.240  2.0713  2.8381  1.5950
  121OSM    H6T12802   4.362   0.893  10.258  2.2027 -0.0935  0.9501
  121OSM    C7S12803   4.256   0.743  10.141 -0.3343  0.4443 -0.7357
  121OSM    H7S12804   4.159   0.792  10.159 -0.3979  0.0426  0.0077
  121OSM    H7T12805   4.244   0.632  10.141 -0.3039  0.4019 -3.5151
  121OSM    C8S12806   4.311   0.797  10.006  0.3220 -0.9005  0.0615
  121OSM    H8S12807   4.345   0.902  10.010  2.4699 -1.6301  1.6307
  121OSM    H8T12808   4.220   0.812   9.944  1.0885  3.9296 -0.0755
  121OSM    C9S12809   4.406   0.705   9.930  0.8141  0.1900  0.2548
  121OSM    H9S12810   4.355   0.616   9.888  2.5994 -0.6107 -0.2729
  121OSM    H9T12811   4.491   0.674   9.995  0.7256  0.4616  0.4957
  121OSM   C10S12812   4.473   0.772   9.800 -0.1088  0.5202  0.3803
  121OSM   H10S12813   4.550   0.705   9.758  1.3844  2.7340 -0.4885
  121OSM   H10T12814   4.528   0.861   9.838  1.1399  0.1554 -0.5696
  121OSM   C11S12815   4.363   0.809   9.696  0.6802 -0.5409 -0.7051
  121OSM   H11S12816   4.310   0.901   9.727 -0.0788 -0.9963 -0.6394
  121OSM   H11T12817   4.289   0.726   9.696  1.0629 -0.8935 -2.4535
  121OSM   C12S12818   4.425   0.822   9.560  0.1272 -0.4693 -0.3573
  121OSM   H12S12819   4.497   0.740   9.545  1.4961  0.1176  2.5277
  121OSM   H12T12820   4.491   0.912   9.558 -0.8079  0.2068 -1.6799
  121OSM   C13S12821   4.317   0.834   9.443 -0.2576  0.3313 -0.5303
  121OSM   H13S12822   4.258   0.928   9.455  0.1464  0.8102 -2.0940
  121OSM   H13T12823   4.241   0.754   9.439  0.3453 -0.2152 -1.1658
  121OSM   C14S12824   4.379   0.828   9.307 -0.1747  0.5119 -0.5968
  121OSM   H14S12825   4.442   0.739   9.291 -0.2712  0.4683 -0.7287
  121OSM   H14T12826   4.452   0.912   9.302  0.6829 -0.1980 -0.0769
  121OSM   C15S12827   4.275   0.825   9.194  0.0066  0.2419  0.1782
  121OSM   H15S12828   4.209   0.913   9.207 -0.9564 -0.1364 -1.8748
  121OSM   H15T12829   4.207   0.737   9.198 -1.3349  1.2475 -0.3023
  121OSM   C16S12830   4.338   0.803   9.058 -0.5751 -0.1008  0.5073
  121OSM   H16S12831   4.369   0.696   9.047 -2.3242 -0.7688  1.8994
  121OSM   H16T12832   4.429   0.864   9.042 -1.0625  0.0191 -2.1164
  121OSM   C17S12833   4.253   0.837   8.937  0.0373 -0.5033 -0.2816
  121OSM   H17S12834   4.238   0.946   8.951  1.4337  0.1598 -3.4877
  121OSM   H17T12835   4.164   0.772   8.952 -0.2430  0.2380  1.3849
  121OSM   C18S12836   4.319   0.810   8.810 -0.0294  0.0635 -0.0013
  121OSM   H18S12837   4.328   0.700   8.804  1.9069  0.2054 -0.0481
  121OSM   H18T12838   4.420   0.857   8.798  1.0627 -2.4242 -0.7887
  121OSM   H18U12839   4.256   0.837   8.722 -0.0056  0.8367  0.2083
  121OSM    C1F12840   4.128   0.296  10.404  0.3887 -0.4238  0.0962
  121OSM     OF12841   4.015   0.334  10.378 -0.1776  0.0929  0.2950
  121OSM    C2F12842   4.179   0.165  10.358 -0.3299  0.3123 -0.2129
  121OSM    H2F12843   4.126   0.082  10.410 -1.0309  1.1969  0.4779
  121OSM    H2G12844   4.285   0.153  10.390 -0.2738 -2.3421 -1.2160
  121OSM    C3F12845   4.139   0.141  10.206  0.0559 -0.9187 -0.9778
  121OSM    H3F12846   4.031   0.163  10.190 -0.0716 -0.9366 -0.2126
  121OSM    H3G12847   4.169   0.034  10.203  1.0270 -0.6315 -1.6741
  121OSM    C4F12848   4.227   0.230  10.115  0.0576  0.2141 -0.4810
  121OSM    H4F12849   4.326   0.232  10.165 -0.9772  0.7897  1.5660
  121OSM    H4G12850   4.207   0.339  10.116 -1.3769 -0.0441  0.5065
  121OSM    C5F12851   4.227   0.198   9.969 -0.2072 -0.7512  0.3055
  121OSM    H5F12852   4.187   0.097   9.945 -0.2041 -0.6333 -0.1955
  121OSM    H5G12853   4.333   0.202   9.936 -0.7497 -1.0473 -1.5431
  121OSM    C6F12854   4.159   0.316   9.896  0.0196  0.0558  0.5931
  121OSM    H6F12855   4.221   0.404   9.921  0.0485  1.2232 -3.2145
  121OSM    H6G12856   4.052   0.326   9.927 -0.2336  0.3816 -0.3602
  121OSM    C7F12857   4.147   0.304   9.739 -0.1484  0.6326 -0.2084
  121OSM    H7F12858   4.083   0.382   9.693 -1.4666 -0.6740 -0.6195
  121OSM    H7G12859   4.114   0.202   9.708  0.8088 -0.4582  2.2334
  121OSM    C8F12860   4.290   0.320   9.680  0.0661  0.0083 -0.4996
  121OSM    H8F12861   4.323   0.214   9.668 -1.8394 -0.6286 -0.2643
  121OSM    H8G12862   4.354   0.371   9.755  1.2871 -0.1904 -1.4010
  121OSM    C9F12863   4.296   0.411   9.562 -0.0415 -0.1454 -0.3744
  121OSM    H9F12864   4.342   0.507   9.586 -0.7762  0.3015 -0.7366
  121OSM   C10F12865   4.238   0.386   9.447  0.1372  0.4097  0.3915
  121OSM   H10F12866   4.250   0.467   9.374 -0.4909 -0.1599 -0.3449
  121OSM   C11F12867   4.187   0.251   9.404 -0.0362  1.0265 -0.0520
  121OSM   H11F12868   4.087   0.243   9.451 -0.1185  4.6030  0.5809
  121OSM   H11G12869   4.254   0.169   9.439  1.0185  0.8889 -2.2890
  121OSM   C12F12870   4.175   0.242   9.251  0.0990 -0.3513 -0.2469
  121OSM   H12F12871   4.143   0.142   9.216  0.3326  0.1522 -1.9658
  121OSM   H12G12872   4.275   0.265   9.208  0.9021  0.4151  1.9304
  121OSM   C13F12873   4.074   0.335   9.179  0.3882  0.0178 -0.3387
  121OSM   H13F12874   4.098   0.441   9.201 -1.4441  0.4860 -0.5549
  121OSM   H13G12875   3.966   0.315   9.197  0.8707 -1.8915  0.5370
  121OSM   C14F12876   4.102   0.322   9.021  0.5659 -0.5277 -0.7682
  121OSM   H14F12877   4.079   0.218   8.992 -0.9756 -0.5323  0.4307
  121OSM   H14G12878   4.210   0.350   9.017  0.5159 -0.2966 -0.5384
  121OSM   C15F12879   4.010   0.430   8.959  0.1019 -0.2403 -0.0913
  121OSM   H15F12880   4.046   0.524   9.006  0.6051 -1.7463  2.6282
  121OSM   H15G12881   3.905   0.420   8.996 -0.6995  3.7667 -1.1159
  121OSM   C16F12882   4.038   0.432   8.811 -0.7080 -0.0853  0.4761
  121OSM   H16F12883   3.991   0.523   8.768 -0.6603  0.6772  2.0065
  121OSM   H16G12884   3.976   0.357   8.758 -0.3395 -0.1358  0.1083
  121OSM   C17F12885   4.189   0.423   8.773  0.1250  0.9226  0.6449
  121OSM   H17F12886   4.235   0.325   8.795 -1.1337  0.1669 -0.0456
  121OSM   H17G12887   4.248   0.503   8.824  2.3467 -0.1328 -0.2062
  121OSM   C18F12888   4.194   0.447   8.619 -0.3202  0.2042  0.2828
  121OSM   H18F12889   4.145   0.358   8.574 -0.6274 -0.2687  1.5497
  121OSM   H18G12890   4.302   0.454   8.593  0.0109 -0.5194  1.4230
  121OSM   H18H12891   4.130   0.534   8.593  0.1929  1.4260  2.9521
  122OSM      N12892   4.726   5.644  11.163  0.1739  0.1203  0.4394
  122OSM    C1512893   4.691   5.497  11.169  0.8184  0.2020  0.2461
  122OSM   H15A12894   4.723   5.448  11.078 -0.9814 -1.5673  0.5382
  122OSM   H15B12895   4.584   5.485  11.159  1.0594 -1.7402 -0.1986
  122OSM   H15C12896   4.721   5.438  11.254 -2.5462 -0.5656  0.9730
  122OSM    C1412897   4.647   5.725  11.260 -0.8112  0.1306  0.0145
  122OSM   H14A12898   4.663   5.831  11.246  1.2227 -0.0609  0.7070
  122OSM   H14B12899   4.680   5.704  11.361  2.9565  1.3982 -0.8598
  122OSM   H14C12900   4.541   5.706  11.253 -0.4599 -1.5527 -1.0004
  122OSM    C1312901   4.868   5.657  11.187 -0.7365  0.0656 -0.3757
  122OSM   H13A12902   4.904   5.759  11.184  0.0750 -0.0479  3.3742
  122OSM   H13B12903   4.931   5.599  11.122  0.6990 -1.0808  1.9821
  122OSM   H13C12904   4.882   5.626  11.289 -0.7455  0.0006 -0.3951
  122OSM    C1212905   4.695   5.703  11.023  0.0520  0.3178  0.4394
  122OSM   H12A12906   4.703   5.810  11.032  1.9722  0.0954  1.6947
  122OSM   H12B12907   4.589   5.686  11.013 -0.2877  1.4624  2.0519
  122OSM    C1112908   4.765   5.665  10.892 -0.0552 -0.1234 -0.2739
  122OSM   H11A12909   4.873   5.688  10.894  0.4063 -2.2793  1.6487
  122OSM   H11B12910   4.737   5.728  10.804 -1.1397 -0.9590 -0.5464
  122OSM      P12911   4.610   5.485  10.779 -0.0235 -0.2598  0.0797
  122OSM    O1312912   4.592   5.339  10.785  0.5114  0.4728  0.3465
  122OSM    O1412913   4.490   5.563  10.813 -0.5748  0.3748 -0.3748
  122OSM    O1112914   4.665   5.519  10.638  0.4032 -0.2595  0.0049
  122OSM    O1212915   4.736   5.524  10.871 -0.6821  0.1525  0.1632
  122OSM    C1S12916   4.790   5.477  10.589 -0.1187  0.6995 -0.2982
  122OSM    H1S12917   4.818   5.376  10.626 -2.1293  0.0526 -0.4543
  122OSM    H1T12918   4.870   5.541  10.630 -0.1341  1.7154 -1.7968
  122OSM     NF12919   4.901   5.404  10.377 -0.2151 -0.0851  0.0036
  122OSM    HNF12920   4.985   5.455  10.360 -0.8269 -0.1058 -3.6343
  122OSM    C2S12921   4.792   5.479  10.435  0.2743 -0.6051  0.4241
  122OSM    H2S12922   4.698   5.427  10.409 -0.4121  1.0976 -0.6481
  122OSM    C3S12923   4.777   5.624  10.378 -0.0346 -0.3920  0.0696
  122OSM    H3S12924   4.868   5.686  10.391  0.4640 -0.9001 -0.9831
  122OSM     O312925   4.679   5.705  10.440  0.4366  0.2283 -0.3575
  122OSM    HO312926   4.655   5.669  10.526  1.7619  3.9871  1.7567
  122OSM    C4S12927   4.739   5.630  10.235  0.0870 -0.1047  0.3645
  122OSM    H4S12928   4.646   5.578  10.208 -0.8427  2.7015 -2.1446
  122OSM    C5S12929   4.804   5.678  10.126  0.3935 -0.7470 -0.1847
  122OSM    H5S12930   4.903   5.723  10.140  0.2497 -0.5179  0.0834
  122OSM    C6S12931   4.757   5.671   9.987  0.0757 -0.6860  0.3533
  122OSM    H6S12932   4.810   5.757   9.942  1.2155 -1.3991  0.3105
  122OSM    H6T12933   4.647   5.685   9.981  0.0371 -1.0798  0.1531
  122OSM    C7S12934   4.804   5.553   9.902 -0.3393  0.5573 -0.8953
  122OSM    H7S12935   4.764   5.459   9.946 -1.6139  2.2090  1.5322
  122OSM    H7T12936   4.914   5.535   9.910 -0.5034 -1.3994 -2.5028
  122OSM    C8S12937   4.764   5.560   9.754 -0.1798  0.5499 -0.1284
  122OSM    H8S12938   4.793   5.659   9.713  0.7002  0.6320  0.6591
  122OSM    H8T12939   4.657   5.533   9.747 -0.0357 -1.1016  3.0016
  122OSM    C9S12940   4.849   5.475   9.667 -0.4406  0.3173 -0.3544
  122OSM    H9S12941   4.854   5.375   9.714  1.0097  0.4271 -0.2505
  122OSM    H9T12942   4.951   5.517   9.655 -0.3736  0.3163  0.2146
  122OSM   C10S12943   4.780   5.461   9.530  0.0449  0.6046 -0.7563
  122OSM   H10S12944   4.844   5.401   9.462  0.6202 -1.1716  1.2927
  122OSM   H10T12945   4.769   5.558   9.478  1.8192 -0.4273 -3.1486
  122OSM   C11S12946   4.653   5.372   9.520 -0.2825 -0.2299 -0.4848
  122OSM   H11S12947   4.579   5.392   9.601  0.1994 -0.5372  0.0348
  122OSM   H11T12948   4.680   5.265   9.524 -0.5138 -0.3166 -1.1183
  122OSM   C12S12949   4.568   5.394   9.387 -0.0926  0.9610  0.3280
  122OSM   H12S12950   4.537   5.500   9.378 -0.2897  0.7707 -1.5579
  122OSM   H12T12951   4.480   5.327   9.398  0.9237 -0.7608 -1.4710
  122OSM   C13S12952   4.652   5.353   9.268  0.2788 -0.8858 -0.1278
  122OSM   H13S12953   4.688   5.250   9.285  0.5410 -0.8113 -0.2284
  122OSM   H13T12954   4.740   5.421   9.271 -0.1016 -0.3413 -1.0603
  122OSM   C14S12955   4.585   5.371   9.130 -0.6218  0.3561  0.1044
  122OSM   H14S12956   4.587   5.479   9.106 -0.2620 -0.0368 -1.6818
  122OSM   H14T12957   4.478   5.340   9.141 -0.9368  1.3129 -0.2386
  122OSM   C15S12958   4.666   5.295   9.021 -0.9481 -0.3268  0.5258
  122OSM   H15S12959   4.607   5.220   8.964  1.7857 -0.8154 -1.7742
  122OSM   H15T12960   4.758   5.249   9.063 -1.2339 -1.8248 -0.4407
  122OSM   C16S12961   4.712   5.400   8.911  0.0334 -0.4309 -0.0707
  122OSM   H16S12962   4.779   5.474   8.959 -1.7183  2.3523 -1.7688
  122OSM   H16T12963   4.624   5.459   8.876  1.9693  2.9473  0.5490
  122OSM   C17S12964   4.786   5.342   8.789  0.1498 -0.2490 -0.1576
  122OSM   H17S12965   4.855   5.269   8.836 -0.4211 -0.8083 -0.1880
  122OSM   H17T12966   4.846   5.420   8.736  0.9870 -1.1940 -0.5994
  122OSM   C18S12967   4.711   5.257   8.686 -0.1931  0.3059 -0.3287
  122OSM   H18S12968   4.664   5.174   8.743 -0.5772  1.7513  1.5350
  122OSM   H18T12969   4.782   5.210   8.615  0.4987  0.3085  0.3424
  122OSM   H18U12970   4.628   5.310   8.635  0.1009 -0.7442 -1.9079
  122OSM    C1F12971   4.900   5.276  10.363  0.5160  0.1418  0.5668
  122OSM     OF12972   4.809   5.202  10.391 -0.0486  0.1190 -0.0880
  122OSM    C2F12973   5.027   5.212  10.325  0.0625 -0.4117 -0.3611
  122OSM    H2F12974   5.104   5.204  10.406  0.8839 -0.4822 -1.1462
  122OSM    H2G12975   5.084   5.278  10.256  1.2847  0.6469  1.6072
  122OSM    C3F12976   5.016   5.068  10.275  0.5117  0.2985  0.4765
  122OSM    H3F12977   4.934   5.067  10.200  0.4391  0.2712  0.5575
  122OSM    H3G12978   5.005   4.995  10.358 -1.1164 -0.4652 -0.4016
  122OSM    C4F12979   5.137   5.037  10.190 -0.3227  0.3178 -0.0237
  122OSM    H4F12980   5.232   5.054  10.246 -1.3938 -1.5892  2.5140
  122OSM    H4G12981   5.144   5.106  10.103 -1.7844 -1.3367 -1.4837
  122OSM    C5F12982   5.144   4.889  10.145  0.6792 -1.0385  0.0349
  122OSM    H5F12983   5.054   4.882  10.080  0.2451  0.6210  0.4530
  122OSM    H5G12984   5.131   4.811  10.223 -1.2215  2.0900  2.9993
  122OSM    C6F12985   5.253   4.847  10.052 -0.8868  0.1232 -0.2931
  122OSM    H6F12986   5.247   4.737  10.043 -1.6446 -0.0059  1.6182
  122OSM    H6G12987   5.351   4.871  10.100 -0.6673  1.1403 -1.2021
  122OSM    C7F12988   5.262   4.911   9.915 -0.2157 -0.2987  0.1826
  122OSM    H7F12989   5.292   5.014   9.942 -0.5162  0.1129 -1.0282
  122OSM    H7G12990   5.162   4.899   9.868  0.1734 -2.8151 -0.0774
  122OSM    C8F12991   5.371   4.851   9.813 -0.6034  0.1419 -0.6338
  122OSM    H8F12992   5.466   4.827   9.864 -0.1929  2.0630 -0.4624
  122OSM    H8G12993   5.395   4.933   9.743  1.1292 -1.8865 -2.5101
  122OSM    C9F12994   5.324   4.728   9.745  0.0388  0.3120 -0.6093
  122OSM    H9F12995   5.286   4.648   9.809  0.6511  0.3142 -0.2347
  122OSM   C10F12996   5.322   4.709   9.616  0.3886  0.3433 -0.5788
  122OSM   H10F12997   5.283   4.613   9.581  1.0986  0.1182 -0.7563
  122OSM   C11F12998   5.364   4.809   9.517 -0.0823 -0.3609 -0.2059
  122OSM   H11F12999   5.338   4.910   9.555  4.1094 -0.9237  4.6713
  122OSM   H11G13000   5.300   4.800   9.427  1.0233 -1.4863 -0.8867
  122OSM   C12F13001   5.514   4.817   9.481  0.1713 -0.3812  0.3558
  122OSM   H12F13002   5.556   4.716   9.460  2.8375  0.5997  0.7807
  122OSM   H12G13003   5.568   4.858   9.569  1.4851  0.5956 -0.8769
  122OSM   C13F13004   5.534   4.896   9.347 -0.0081 -0.5253  0.0911
  122OSM   H13F13005   5.642   4.896   9.321  0.1117  0.4648  0.5591
  122OSM   H13G13006   5.514   5.005   9.353 -0.7061 -0.5947 -0.8648
  122OSM   C14F13007   5.452   4.846   9.228 -0.3579  0.3566 -0.0688
  122OSM   H14F13008   5.343   4.862   9.239 -0.4524 -0.7718  0.6913
  122OSM   H14G13009   5.467   4.736   9.231 -0.0483  0.3973 -0.0191
  122OSM   C15F13010   5.497   4.905   9.093 -1.0739 -0.6949  0.4245
  122OSM   H15F13011   5.608   4.903   9.089 -1.1038 -0.6876 -0.7229
  122OSM   H15G13012   5.478   5.014   9.089  1.1944 -0.3048 -0.2157
  122OSM   C16F13013   5.433   4.838   8.973  0.5360 -0.1086 -0.1405
  122OSM   H16F13014   5.324   4.859   8.978  0.4690 -0.4861  0.0527
  122OSM   H16G13015   5.455   4.729   8.976 -0.0043 -0.2340 -0.5871
  122OSM   C17F13016   5.482   4.880   8.833  0.5297 -0.2785  0.6467
  122OSM   H17F13017   5.405   4.843   8.762  1.2630 -3.1853  1.2959
  122OSM   H17G13018   5.577   4.832   8.802  0.5861  0.7092 -0.7730
  122OSM   C18F13019   5.493   5.033   8.825  0.3823 -0.2657  0.2468
  122OSM   H18F13020   5.570   5.067   8.898  0.0077  2.1473 -0.4569
  122OSM   H18G13021   5.400   5.089   8.848  0.2853  0.4203 -1.7459
  122OSM   H18H13022   5.524   5.069   8.725 -0.5800  1.1623  0.4457
  123OSM      N13023   2.824   3.395   6.025 -0.3937 -0.6850  0.2702
  123OSM    C1513024   2.806   3.490   6.136  0.0554  0.6480 -0.1762
  123OSM   H15A13025   2.885   3.563   6.139 -0.3601  1.1135 -0.4652
  123OSM   H15B13026   2.817   3.446   6.234 -1.0262  1.8981  0.5232
  123OSM   H15C13027   2.711   3.541   6.123  0.5080  1.0985 -1.7535
  123OSM    C1413028   2.962   3.347   6.039  0.4997  0.5286  0.1458
  123OSM   H14A13029   2.999   3.298   5.950  0.0598  0.7356 -0.1486
  123OSM   H14B13030   2.970   3.273   6.117 -0.9057  1.4620  1.2085
  123OSM   H14C13031   3.022   3.433   6.067 -0.9890  1.8048 -0.4925
  123OSM    C1313032   2.732   3.286   6.039 -0.4394  0.2137  0.1840
  123OSM   H13A13033   2.632   3.309   6.006  0.1763 -0.0057 -1.8698
  123OSM   H13B13034   2.720   3.256   6.142  3.9169  0.0223  0.7247
  123OSM   H13C13035   2.755   3.189   5.999 -3.0895 -0.7385  0.8623
  123OSM    C1213036   2.811   3.472   5.895 -0.0917 -0.5675 -0.2015
  123OSM   H12A13037   2.795   3.406   5.812 -1.7576 -0.4340 -0.0043
  123OSM   H12B13038   2.908   3.516   5.877  0.3841 -1.3513  0.4234
  123OSM    C1113039   2.695   3.574   5.884  0.3556  0.1791  0.0908
  123OSM   H11A13040   2.695   3.614   5.780  1.3030  1.0718  0.4193
  123OSM   H11B13041   2.720   3.665   5.944  0.7008  0.8734 -1.0861
  123OSM      P13042   2.448   3.583   5.985 -0.1090 -0.3524  0.1548
  123OSM    O1313043   2.416   3.707   5.909 -0.2776 -0.0117  0.7981
  123OSM    O1413044   2.341   3.480   5.986  0.2463 -0.5399  0.4465
  123OSM    O1113045   2.504   3.615   6.132 -0.3556  0.4372 -0.0874
  123OSM    O1213046   2.573   3.517   5.918 -0.4830  0.0521 -0.3551
  123OSM    C1S13047   2.410   3.687   6.215 -0.1448 -0.2354  0.7531
  123OSM    H1S13048   2.317   3.627   6.228  0.8893 -1.7795  1.0636
  123OSM    H1T13049   2.378   3.785   6.173  3.3056  1.9322  2.9655
  123OSM     NF13050   2.381   3.768   6.447 -0.1940 -0.6282  0.3019
  123OSM    HNF13051   2.371   3.865   6.470  1.8009 -0.2964 -0.1547
  123OSM    C2S13052   2.479   3.728   6.348  0.0086  0.2177 -0.3620
  123OSM    H2S13053   2.528   3.641   6.395  0.7833  0.9165  0.1366
  123OSM    C3S13054   2.596   3.833   6.317  0.4991  0.1032 -0.2279
  123OSM    H3S13055   2.546   3.921   6.272 -2.3346 -1.1611  0.3142
  123OSM     O313056   2.692   3.784   6.222 -0.6695  0.1773 -0.8160
  123OSM    HO313057   2.638   3.719   6.176  0.0332 -0.1178 -1.2263
  123OSM    C4S13058   2.656   3.882   6.445 -0.6090 -0.0163  0.1438
  123OSM    H4S13059   2.642   3.990   6.453  0.4026  0.2010 -0.7639
  123OSM    C5S13060   2.731   3.802   6.522 -0.3073  0.2244 -0.9843
  123OSM    H5S13061   2.768   3.714   6.468  1.8553  0.3826  0.1909
  123OSM    C6S13062   2.799   3.843   6.650 -0.1694  0.4057 -0.2633
  123OSM    H6S13063   2.908   3.822   6.651  0.0839  1.6744  0.5891
  123OSM    H6T13064   2.762   3.772   6.728 -0.9231  0.7544 -0.2970
  123OSM    C7S13065   2.761   3.984   6.715 -0.3239 -0.3485  0.1176
  123OSM    H7S13066   2.653   4.001   6.698  0.0666  1.6612 -0.4388
  123OSM    H7T13067   2.806   4.069   6.659  1.2214 -0.2696  1.4384
  123OSM    C8S13068   2.790   3.991   6.866 -0.5258 -0.1485 -0.5417
  123OSM    H8S13069   2.714   3.935   6.925 -0.8435 -1.8498 -2.4882
  123OSM    H8T13070   2.787   4.097   6.900  1.0759 -0.4683  0.6795
  123OSM    C9S13071   2.925   3.948   6.915 -0.2729 -1.1014 -0.0978
  123OSM    H9S13072   3.006   3.992   6.853  0.6696  1.3734  2.8242
  123OSM    H9T13073   2.931   3.837   6.912 -2.9720 -1.2704 -1.3078
  123OSM   C10S13074   2.951   3.992   7.063  0.0024  0.9224  0.0883
  123OSM   H10S13075   2.975   4.101   7.059 -0.2854  0.9610 -0.6120
  123OSM   H10T13076   3.043   3.935   7.087  0.8535  2.8054  1.4378
  123OSM   C11S13077   2.845   3.958   7.161 -0.6908 -0.3953  0.3249
  123OSM   H11S13078   2.818   3.851   7.170  1.1018 -0.8898 -0.0120
  123OSM   H11T13079   2.753   4.013   7.131 -0.1001  2.2621  3.1470
  123OSM   C12S13080   2.904   4.000   7.295 -0.3882  0.3970 -0.0166
  123OSM   H12S13081   2.909   4.111   7.288 -0.4059  0.4513  0.7377
  123OSM   H12T13082   3.008   3.962   7.301 -0.6524 -0.4078 -0.4842
  123OSM   C13S13083   2.820   3.970   7.423 -0.9223 -0.5294  0.0845
  123OSM   H13S13084   2.841   3.867   7.458  1.1592 -0.1639 -0.0033
  123OSM   H13T13085   2.711   3.969   7.401 -0.6367  1.0512 -1.5130
  123OSM   C14S13086   2.840   4.073   7.536  0.7545 -0.4574 -1.1477
  123OSM   H14S13087   2.770   4.155   7.509  0.6561 -0.0023  0.4004
  123OSM   H14T13088   2.945   4.103   7.552  1.7880 -3.0979 -2.7452
  123OSM   C15S13089   2.779   4.031   7.671  0.8763 -0.1502 -0.6346
  123OSM   H15S13090   2.818   3.932   7.702  1.5779  0.8401  1.6859
  123OSM   H15T13091   2.669   4.024   7.653  1.0650 -3.3872 -0.9547
  123OSM   C16S13092   2.794   4.144   7.775 -0.0196  0.3792 -0.5015
  123OSM   H16S13093   2.752   4.101   7.868 -0.6859  0.3362 -0.8183
  123OSM   H16T13094   2.726   4.230   7.755  2.1797  2.6263  1.4563
  123OSM   C17S13095   2.936   4.194   7.800 -0.1458  0.2177 -0.2410
  123OSM   H17S13096   2.976   4.260   7.721  3.1277  0.2754  1.3706
  123OSM   H17T13097   3.008   4.110   7.797 -0.8232 -0.3588 -0.6941
  123OSM   C18S13098   2.956   4.258   7.938 -0.4254 -0.2530  0.0412
  123OSM   H18S13099   2.943   4.176   8.012  1.2102  0.3544  1.0481
  123OSM   H18T13100   2.866   4.320   7.957 -1.4023 -1.4302 -0.7053
  123OSM   H18U13101   3.050   4.318   7.941 -0.4312 -0.0655 -2.4689
  123OSM    C1F13102   2.300   3.673   6.490  0.1662  0.7200 -1.0244
  123OSM     OF13103   2.318   3.552   6.460  0.9515 -0.0738 -0.5036
  123OSM    C2F13104   2.185   3.714   6.582 -0.5171  0.3442  0.1883
  123OSM    H2F13105   2.122   3.626   6.606 -2.1692  1.7594  1.1528
  123OSM    H2G13106   2.115   3.786   6.535  0.8500  2.1563  0.8332
  123OSM    C3F13107   2.240   3.773   6.721  0.0695  1.1288  0.1345
  123OSM    H3F13108   2.151   3.806   6.778 -1.0895 -1.2265 -0.2532
  123OSM    H3G13109   2.309   3.857   6.698  0.3809  0.7249 -0.4448
  123OSM    C4F13110   2.316   3.671   6.812  0.0560  0.6904 -0.1653
  123OSM    H4F13111   2.392   3.612   6.755 -0.0581  0.3478  0.0396
  123OSM    H4G13112   2.241   3.604   6.858  2.0475 -0.0391  2.1455
  123OSM    C5F13113   2.380   3.751   6.927  0.3677  0.0406  0.8840
  123OSM    H5F13114   2.310   3.825   6.971 -0.8741 -1.5579  1.6391
  123OSM    H5G13115   2.471   3.801   6.886 -0.9682 -1.0239 -3.6276
  123OSM    C6F13116   2.436   3.666   7.040 -0.6446 -0.7415  0.1793
  123OSM    H6F13117   2.534   3.618   7.017 -0.2504  0.1486  0.0001
  123OSM    H6G13118   2.366   3.585   7.072 -0.4046 -1.3859 -0.9186
  123OSM    C7F13119   2.473   3.748   7.171 -0.2446  0.4585  0.6013
  123OSM    H7F13120   2.380   3.801   7.201 -0.6199 -0.9659  1.9888
  123OSM    H7G13121   2.551   3.825   7.152 -1.7862  1.6928 -0.9171
  123OSM    C8F13122   2.516   3.662   7.296 -0.0726  0.4426 -0.2301
  123OSM    H8F13123   2.562   3.724   7.376  0.2790  0.6998 -0.6287
  123OSM    H8G13124   2.587   3.589   7.252 -0.2537 -0.0209  0.2299
  123OSM    C9F13125   2.391   3.588   7.342  0.4068  0.4399 -0.4804
  123OSM    H9F13126   2.340   3.530   7.264  2.3005 -2.7480  0.5516
  123OSM   C10F13127   2.336   3.598   7.465  0.0710 -0.5544 -0.1629
  123OSM   H10F13128   2.240   3.547   7.479  1.2715 -2.4335  1.6094
  123OSM   C11F13129   2.384   3.676   7.592  0.8141 -0.1829  0.1541
  123OSM   H11F13130   2.333   3.774   7.590 -0.7305 -0.9047  1.9146
  123OSM   H11G13131   2.492   3.692   7.571  0.2848  1.3831 -1.4754
  123OSM   C12F13132   2.354   3.607   7.726  0.4506 -0.0929 -1.0283
  123OSM   H12F13133   2.413   3.513   7.720 -1.9469 -1.8354  1.5799
  123OSM   H12G13134   2.247   3.589   7.751  0.8180 -0.7336  0.1228
  123OSM   C13F13135   2.412   3.672   7.846 -0.1444  0.7410 -0.7584
  123OSM   H13F13136   2.384   3.778   7.865  0.9437  1.2961 -2.2058
  123OSM   H13G13137   2.522   3.667   7.838 -0.1132 -1.0289  0.4175
  123OSM   C14F13138   2.346   3.612   7.968  0.3788 -0.0632  0.2078
  123OSM   H14F13139   2.368   3.504   7.953  0.0635 -0.0141 -0.5894
  123OSM   H14G13140   2.236   3.621   7.962  0.4620  2.8620  1.7287
  123OSM   C15F13141   2.393   3.658   8.111  0.0184  0.1099 -1.0921
  123OSM   H15F13142   2.375   3.768   8.112  1.3699  0.3225  0.0382
  123OSM   H15G13143   2.501   3.637   8.124  0.3412  0.8237 -2.4846
  123OSM   C16F13144   2.319   3.589   8.226  0.5992 -0.0496  0.6798
  123OSM   H16F13145   2.211   3.589   8.199  0.9799 -0.3441 -0.9411
  123OSM   H16G13146   2.338   3.633   8.326  0.4530  0.8646  0.3183
  123OSM   C17F13147   2.347   3.438   8.238  0.5345 -0.3895  0.3211
  123OSM   H17F13148   2.456   3.418   8.242  0.9886  0.8467 -3.4223
  123OSM   H17G13149   2.307   3.374   8.156  0.5521  0.1597 -0.1285
  123OSM   C18F13150   2.277   3.381   8.365 -0.0910 -0.1479  0.8590
  123OSM   H18F13151   2.321   3.281   8.388 -0.9375 -1.1884 -1.8550
  123OSM   H18G13152   2.167   3.380   8.351  0.0025 -0.5859  0.1132
  123OSM   H18H13153   2.302   3.450   8.449  1.2620  0.1186  0.2651
  124OSM      N13154   5.188   2.348   5.899 -0.4785  0.0246  0.3028
  124OSM    C1513155   5.074   2.442   5.874 -0.0639  0.0561 -0.0877
  124OSM   H15A13156   5.070   2.514   5.954 -0.0347 -0.9838  0.8703
  124OSM   H15B13157   4.977   2.395   5.880  0.4716 -0.9080  1.4133
  124OSM   H15C13158   5.060   2.478   5.774  1.1923 -0.7536 -0.5732
  124OSM    C1413159   5.199   2.241   5.791  0.1077  1.0622  0.6259
  124OSM   H14A13160   5.214   2.291   5.697 -3.3414  2.1951  0.6238
  124OSM   H14B13161   5.111   2.180   5.795  0.5487  0.4412  1.0373
  124OSM   H14C13162   5.288   2.183   5.812  0.5661  1.5792  0.1488
  124OSM    C1313163   5.310   2.429   5.902 -0.4438  0.5623  0.0573
  124OSM   H13A13164   5.383   2.356   5.935  0.6965  0.2849 -2.9106
  124OSM   H13B13165   5.300   2.511   5.971  0.4296  0.2497  0.5601
  124OSM   H13C13166   5.335   2.464   5.803 -2.9395  1.1306 -0.4162
  124OSM    C1213167   5.182   2.284   6.043  0.2808 -0.2438 -0.6590
  124OSM   H12A13168   5.080   2.255   6.064 -0.2127  1.0761 -1.1758
  124OSM   H12B13169   5.194   2.370   6.108  1.5234 -0.5285 -0.4959
  124OSM    C1113170   5.288   2.174   6.080 -0.3189 -0.0596  0.0797
  124OSM   H11A13171   5.284   2.098   6.000  0.4580 -1.4550  1.3352
  124OSM   H11B13172   5.252   2.123   6.173  0.1245 -1.5874 -0.5718
  124OSM      P13173   5.464   2.308   6.220 -0.0717  0.3398  0.5617
  124OSM    O1313174   5.610   2.301   6.239 -0.5575  0.3014 -0.8989
  124OSM    O1413175   5.409   2.450   6.212  0.3578  0.0353 -0.3323
  124OSM    O1113176   5.399   2.236   6.348  0.8657  0.3089  0.0681
  124OSM    O1213177   5.423   2.227   6.092  0.5492  0.1152 -0.1449
  124OSM    C1S13178   5.452   2.254   6.472  0.4961 -0.1712 -0.3438
  124OSM    H1S13179   5.524   2.338   6.478  1.5766 -1.1047  0.1043
  124OSM    H1T13180   5.514   2.166   6.501  1.6983 -0.1923 -2.8967
  124OSM     NF13181   5.360   2.342   6.693  0.2342 -0.1651  0.5435
  124OSM    HNF13182   5.377   2.283   6.772  2.7835  0.8638  0.8268
  124OSM    C2S13183   5.327   2.274   6.571  0.3608  0.4281 -0.8337
  124OSM    H2S13184   5.256   2.338   6.515  0.1129  0.0982 -0.8941
  124OSM    C3S13185   5.249   2.140   6.601  0.5347  0.3967  0.6764
  124OSM    H3S13186   5.310   2.096   6.682 -0.3198  0.5372  1.4001
  124OSM     O313187   5.248   2.045   6.493 -0.1175  0.1565  0.1909
  124OSM    HO313188   5.312   2.076   6.429  1.2448 -0.1304  1.3739
  124OSM    C4S13189   5.111   2.166   6.655 -0.5912  0.2785 -0.4582
  124OSM    H4S13190   5.125   2.186   6.762  0.1881 -1.5492 -0.2092
  124OSM    C5S13191   4.992   2.173   6.589  0.2400 -0.5955 -0.2136
  124OSM    H5S13192   4.991   2.146   6.482 -0.5033 -2.6052  0.2889
  124OSM    C6S13193   4.855   2.188   6.648  0.2264  0.2072 -0.7326
  124OSM    H6S13194   4.792   2.104   6.613  0.4866  0.2688 -1.3426
  124OSM    H6T13195   4.813   2.274   6.592  0.6593  0.5384 -0.5539
  124OSM    C7S13196   4.838   2.204   6.802 -0.1961  0.2087 -0.3747
  124OSM    H7S13197   4.731   2.236   6.808 -0.3874 -0.6929  1.4878
  124OSM    H7T13198   4.908   2.287   6.826  1.2887 -1.1701  0.1974
  124OSM    C8S13199   4.871   2.080   6.879 -0.2245  0.0395  0.4663
  124OSM    H8S13200   4.982   2.078   6.893  0.2197  2.6484 -2.2395
  124OSM    H8T13201   4.836   1.993   6.819 -0.7454  1.6391 -1.6109
  124OSM    C9S13202   4.808   2.089   7.020  0.2947  0.5343 -0.6310
  124OSM    H9S13203   4.710   2.042   6.998  0.0568  0.0544  1.3284
  124OSM    H9T13204   4.799   2.196   7.048  0.7606  0.5230 -0.4311
  124OSM   C10S13205   4.886   2.013   7.131 -0.2297  0.0925 -0.6242
  124OSM   H10S13206   4.990   2.051   7.148 -0.4933  0.4249  0.2701
  124OSM   H10T13207   4.901   1.910   7.092 -1.2688 -0.4860  0.4629
  124OSM   C11S13208   4.800   2.014   7.264  0.4146  0.4256  0.1744
  124OSM   H11S13209   4.717   1.942   7.253 -0.1672  0.8343  1.7451
  124OSM   H11T13210   4.755   2.115   7.273 -1.6571 -0.4130 -0.4760
  124OSM   C12S13211   4.879   1.985   7.386 -0.0501 -0.0703  0.2242
  124OSM   H12S13212   4.961   2.060   7.394 -0.0531 -0.1436  1.0665
  124OSM   H12T13213   4.922   1.883   7.378 -0.7687 -0.2136 -2.1228
  124OSM   C13S13214   4.792   1.986   7.514  0.5101  0.0983 -0.2523
  124OSM   H13S13215   4.866   1.977   7.597 -0.5817  0.6574  0.7989
  124OSM   H13T13216   4.729   1.895   7.516  0.7023 -0.0322 -0.0236
  124OSM   C14S13217   4.709   2.110   7.534 -0.2402  0.2663  0.2229
  124OSM   H14S13218   4.628   2.115   7.458 -0.4412 -0.0649  0.4162
  124OSM   H14T13219   4.764   2.206   7.522 -0.1829  0.2244  0.1571
  124OSM   C15S13220   4.633   2.112   7.674  0.5302  0.9473  0.4583
  124OSM   H15S13221   4.709   2.124   7.753  1.6138 -1.4233 -0.1841
  124OSM   H15T13222   4.594   2.011   7.699 -2.1628  1.4992 -1.2347
  124OSM   C16S13223   4.528   2.212   7.701  0.0700  0.1522  0.5249
  124OSM   H16S13224   4.442   2.200   7.631 -0.0980 -0.6940  0.8639
  124OSM   H16T13225   4.572   2.314   7.702  1.2559 -0.3492  1.3621
  124OSM   C17S13226   4.469   2.188   7.838  0.0033  0.0538 -0.4856
  124OSM   H17S13227   4.541   2.216   7.918 -0.3004 -0.4995 -0.0205
  124OSM   H17T13228   4.444   2.081   7.848  0.3206  0.0256  0.0102
  124OSM   C18S13229   4.340   2.267   7.856 -0.0811  0.1077 -0.3466
  124OSM   H18S13230   4.277   2.211   7.784 -0.6468 -0.3815  0.5240
  124OSM   H18T13231   4.361   2.375   7.839  1.5467 -0.1258  0.0158
  124OSM   H18U13232   4.300   2.253   7.959  0.1937  0.7863 -0.1450
  124OSM    C1F13233   5.391   2.466   6.707  0.2839  0.4329  0.1873
  124OSM     OF13234   5.394   2.547   6.610  0.2383 -0.0102 -0.3640
  124OSM    C2F13235   5.433   2.498   6.847 -0.0733 -0.0910  0.7306
  124OSM    H2F13236   5.508   2.426   6.886  2.0392  0.6380 -1.8791
  124OSM    H2G13237   5.346   2.499   6.917 -1.2780 -1.4865 -0.6943
  124OSM    C3F13238   5.496   2.641   6.871 -0.5722  0.1110 -0.4655
  124OSM    H3F13239   5.423   2.724   6.854 -0.1683  0.3387 -1.1251
  124OSM    H3G13240   5.582   2.641   6.800  1.8221  1.3933  2.3388
  124OSM    C4F13241   5.546   2.676   7.014 -0.2536 -0.2815 -0.1510
  124OSM    H4F13242   5.588   2.779   7.013  0.1867 -0.4687 -0.8637
  124OSM    H4G13243   5.628   2.608   7.044 -0.7132  0.1926  2.2624
  124OSM    C5F13244   5.440   2.664   7.124  0.0032  0.2152 -0.0863
  124OSM    H5F13245   5.421   2.559   7.155  0.6838  0.7066  2.0562
  124OSM    H5G13246   5.355   2.724   7.084  0.0682  0.8262  0.6866
  124OSM    C6F13247   5.477   2.742   7.250 -0.2701 -0.2883  0.4327
  124OSM    H6F13248   5.482   2.849   7.222 -4.4443 -0.1103  0.1573
  124OSM    H6G13249   5.577   2.707   7.287 -0.7776 -0.8033  1.3376
  124OSM    C7F13250   5.386   2.716   7.374  0.1363 -0.3562 -0.2717
  124OSM    H7F13251   5.386   2.606   7.388 -0.6314 -0.2001  1.0776
  124OSM    H7G13252   5.288   2.754   7.336  0.8940 -0.7460 -2.7300
  124OSM    C8F13253   5.429   2.774   7.500  0.1047 -0.8514 -0.0965
  124OSM    H8F13254   5.344   2.782   7.571  1.4997 -0.8969  1.6015
  124OSM    H8G13255   5.441   2.880   7.467 -2.6852 -0.1503  1.0248
  124OSM    C9F13256   5.557   2.732   7.564  0.5418 -0.4924 -0.2275
  124OSM    H9F13257   5.625   2.668   7.507 -1.2866 -2.3950 -0.2944
  124OSM   C10F13258   5.595   2.763   7.692 -0.3125  0.1855  0.1769
  124OSM   H10F13259   5.699   2.736   7.716  0.5115  2.8729 -0.1712
  124OSM   C11F13260   5.509   2.856   7.776  0.6058 -0.0574  0.1305
  124OSM   H11F13261   5.415   2.802   7.800 -0.2885  1.3141 -0.2459
  124OSM   H11G13262   5.488   2.950   7.721 -3.6192 -1.2577 -0.4880
  124OSM   C12F13263   5.561   2.881   7.923  0.0171 -0.3815 -0.6612
  124OSM   H12F13264   5.667   2.912   7.913 -0.8428  2.7445 -0.7023
  124OSM   H12G13265   5.556   2.784   7.977  0.0736  0.5243  0.9989
  124OSM   C13F13266   5.476   2.991   7.987  0.4605 -0.8402  0.0422
  124OSM   H13F13267   5.372   2.968   7.958 -0.2476  3.6815 -1.3684
  124OSM   H13G13268   5.507   3.084   7.935  0.3776 -1.7514 -1.6589
  124OSM   C14F13269   5.480   3.007   8.141 -0.5717 -0.0930  0.0051
  124OSM   H14F13270   5.582   2.981   8.177 -0.5624 -0.5616 -0.3460
  124OSM   H14G13271   5.413   2.924   8.171 -1.4543  0.9331  0.9139
  124OSM   C15F13272   5.430   3.146   8.183  0.0317 -0.8172  0.0403
  124OSM   H15F13273   5.321   3.130   8.199  0.1156  0.7217  2.4586
  124OSM   H15G13274   5.466   3.221   8.109  2.0525 -2.3637 -0.5828
  124OSM   C16F13275   5.469   3.183   8.327  0.2479  0.0921 -1.0304
  124OSM   H16F13276   5.448   3.289   8.354  2.9668  0.5596 -0.5770
  124OSM   H16G13277   5.578   3.166   8.323  0.4620  0.6661  1.5160
  124OSM   C17F13278   5.404   3.097   8.441 -0.1422  0.0352  0.1417
  124OSM   H17F13279   5.460   3.122   8.533  1.9780 -2.3835 -0.4210
  124OSM   H17G13280   5.438   2.996   8.407  0.6860  0.4798 -0.3985
  124OSM   C18F13281   5.258   3.111   8.460 -0.5833  0.6005  0.0391
  124OSM   H18F13282   5.197   3.058   8.384 -1.6790  0.6415  0.8755
  124OSM   H18G13283   5.223   3.217   8.458 -1.6467  0.2328 -1.0965
  124OSM   H18H13284   5.231   3.064   8.557  0.3169 -0.7510 -0.3517
  125OSM      N13285   4.431   3.364   6.044  0.8043 -0.2471  0.2865
  125OSM    C1513286   4.291   3.402   6.085  0.5091 -0.4062 -0.0477
  125OSM   H15A13287   4.221   3.343   6.027 -1.0040  0.8402  0.4884
  125OSM   H15B13288   4.280   3.507   6.063  0.9019 -0.1873  0.7854
  125OSM   H15C13289   4.273   3.374   6.188 -0.4195 -2.1336 -0.6602
  125OSM    C1413290   4.424   3.223   5.994  0.1474 -0.4012 -0.4342
  125OSM   H14A13291   4.340   3.206   5.927 -0.0077  0.4547 -0.4700
  125OSM   H14B13292   4.422   3.163   6.083  1.0635  1.3964  0.8451
  125OSM   H14C13293   4.513   3.201   5.936  1.2229  2.0555  0.1918
  125OSM    C1313294   4.463   3.453   5.929 -0.5793 -0.1114  0.2735
  125OSM   H13A13295   4.463   3.556   5.962 -0.6709  0.1156 -0.4306
  125OSM   H13B13296   4.387   3.446   5.853  0.7889  1.1032 -1.2553
  125OSM   H13C13297   4.560   3.428   5.889 -0.2255  1.5427  0.0346
  125OSM    C1213298   4.535   3.377   6.155  0.3462  0.2812 -0.0876
  125OSM   H12A13299   4.623   3.318   6.133 -0.0787  0.3280 -1.9478
  125OSM   H12B13300   4.484   3.329   6.238 -1.2919  1.3159 -0.4812
  125OSM    C1113301   4.583   3.523   6.188  0.9986  0.6416 -0.5411
  125OSM   H11A13302   4.630   3.562   6.095 -0.3309  1.0171 -1.0572
  125OSM   H11B13303   4.667   3.525   6.261 -0.0553  2.1093  0.6485
  125OSM      P13304   4.418   3.615   6.374 -0.0284 -0.0367  0.0620
  125OSM    O1313305   4.399   3.756   6.412  0.5131  0.0779 -0.2405
  125OSM    O1413306   4.299   3.532   6.382  0.0919 -0.0522  0.7344
  125OSM    O1113307   4.527   3.559   6.476  0.2093  0.4271  0.2069
  125OSM    O1213308   4.480   3.606   6.233  0.1609  0.1311  0.0713
  125OSM    C1S13309   4.637   3.643   6.514 -0.0949  0.5001 -0.4931
  125OSM    H1S13310   4.623   3.750   6.487  1.6800  0.4865 -1.5983
  125OSM    H1T13311   4.728   3.594   6.472 -1.1938 -1.2630 -0.8655
  125OSM     NF13312   4.744   3.754   6.703  0.1629  1.1488  0.0343
  125OSM    HNF13313   4.841   3.733   6.711  0.6996  2.4714 -2.4780
  125OSM    C2S13314   4.651   3.649   6.669  0.3624  0.0041 -0.7063
  125OSM    H2S13315   4.548   3.671   6.706  0.0889 -0.8110 -0.9716
  125OSM    C3S13316   4.695   3.508   6.719  0.9933 -0.3448  0.4792
  125OSM    H3S13317   4.789   3.484   6.665  2.1241 -3.3343  3.5566
  125OSM     O313318   4.601   3.407   6.683  0.5473  0.1929 -0.4569
  125OSM    HO313319   4.560   3.454   6.610  1.4165  0.6437 -0.6693
  125OSM    C4S13320   4.719   3.499   6.861 -0.6203  0.3959 -0.3288
  125OSM    H4S13321   4.626   3.510   6.918 -1.3893  1.1230 -1.7099
  125OSM    C5S13322   4.832   3.462   6.923 -0.3537  0.6247  0.1216
  125OSM    H5S13323   4.914   3.414   6.867  0.2612  0.2897  1.2857
  125OSM    C6S13324   4.853   3.443   7.069  0.2771 -0.2325  0.1433
  125OSM    H6S13325   4.958   3.467   7.097 -0.4900  1.5588  1.5995
  125OSM    H6T13326   4.844   3.336   7.096 -0.1455 -0.6173 -1.4469
  125OSM    C7S13327   4.756   3.529   7.161 -0.8525  0.3328 -0.0661
  125OSM    H7S13328   4.655   3.487   7.144 -0.0465 -1.2748 -0.9969
  125OSM    H7T13329   4.754   3.638   7.140 -0.3200  0.4550  0.5015
  125OSM    C8S13330   4.787   3.508   7.305  0.6200 -0.0053 -0.0152
  125OSM    H8S13331   4.881   3.564   7.326 -1.0507  1.6271  3.5357
  125OSM    H8T13332   4.801   3.404   7.342 -0.5655 -0.0941  0.1872
  125OSM    C9S13333   4.687   3.575   7.400  0.3329 -0.1615  0.2245
  125OSM    H9S13334   4.616   3.493   7.426 -1.0602  1.4434  1.6030
  125OSM    H9T13335   4.634   3.659   7.350 -0.5371 -0.6577  0.3030
  125OSM   C10S13336   4.755   3.617   7.534 -0.0472  0.2083 -0.0003
  125OSM   H10S13337   4.836   3.686   7.504  1.1656 -1.0799  0.2621
  125OSM   H10T13338   4.802   3.526   7.578 -1.4215 -0.2430  0.5603
  125OSM   C11S13339   4.651   3.672   7.628  0.2199 -0.5408 -0.6322
  125OSM   H11S13340   4.549   3.641   7.595 -0.4543 -0.8638  1.6984
  125OSM   H11T13341   4.656   3.782   7.614  0.5370 -0.6284 -1.2580
  125OSM   C12S13342   4.675   3.627   7.776  0.5334 -1.2594 -0.0213
  125OSM   H12S13343   4.599   3.685   7.832  1.2274 -1.4423  1.1379
  125OSM   H12T13344   4.766   3.672   7.821 -0.6522  1.2080 -0.0177
  125OSM   C13S13345   4.666   3.476   7.802  0.2260 -0.1806 -0.0481
  125OSM   H13S13346   4.761   3.426   7.773 -0.2388 -2.1704  1.7316
  125OSM   H13T13347   4.581   3.432   7.746  0.8429  0.2052 -1.3005
  125OSM   C14S13348   4.632   3.439   7.944  0.1227 -0.7386  0.4252
  125OSM   H14S13349   4.589   3.337   7.945  0.2745 -0.7973  1.1728
  125OSM   H14T13350   4.570   3.521   7.987  2.2908  0.1728  1.8992
  125OSM   C15S13351   4.754   3.423   8.036  0.0939 -0.0572  0.4366
  125OSM   H15S13352   4.829   3.505   8.033 -0.4925  0.4259 -1.9434
  125OSM   H15T13353   4.807   3.336   7.993 -1.2798 -0.8578  0.3615
  125OSM   C16S13354   4.722   3.391   8.186 -0.0367 -0.3327  0.5686
  125OSM   H16S13355   4.663   3.474   8.231  0.5926  0.8816 -0.8064
  125OSM   H16T13356   4.819   3.389   8.239  1.4688  0.4398 -2.0550
  125OSM   C17S13357   4.637   3.264   8.214 -0.4430  0.4825 -0.2364
  125OSM   H17S13358   4.665   3.237   8.318 -2.4725 -0.8836 -0.0227
  125OSM   H17T13359   4.658   3.185   8.140  0.5814  0.0413  0.5270
  125OSM   C18S13360   4.485   3.297   8.215  0.3163  0.0410  0.0850
  125OSM   H18S13361   4.455   3.344   8.119 -2.3643 -1.7394 -0.0311
  125OSM   H18T13362   4.453   3.357   8.302 -0.9523  0.4511 -0.6443
  125OSM   H18U13363   4.431   3.200   8.216  0.3088  0.0138 -1.4803
  125OSM    C1F13364   4.717   3.880   6.696  0.1980 -0.1507 -1.1728
  125OSM     OF13365   4.600   3.920   6.684 -0.5434 -0.0343 -0.3749
  125OSM    C2F13366   4.821   3.977   6.699 -0.4518 -0.0299  0.0626
  125OSM    H2F13367   4.850   4.018   6.600 -0.4619  1.4478  0.6513
  125OSM    H2G13368   4.915   3.929   6.734 -0.7552 -1.7281 -1.4184
  125OSM    C3F13369   4.789   4.100   6.788  0.1030  0.8501 -0.5398
  125OSM    H3F13370   4.688   4.142   6.771  0.2656  0.6277 -2.1071
  125OSM    H3G13371   4.864   4.179   6.766 -1.6919  3.0906  1.1291
  125OSM    C4F13372   4.778   4.068   6.937  0.4335  0.2087  0.2186
  125OSM    H4F13373   4.681   4.015   6.952  0.2897  0.4311  0.0857
  125OSM    H4G13374   4.776   4.166   6.989  0.4265  0.4053 -0.1465
  125OSM    C5F13375   4.897   3.992   6.998  0.0222 -1.1535 -0.5558
  125OSM    H5F13376   4.989   4.053   6.988 -0.8889 -0.0433 -2.5936
  125OSM    H5G13377   4.919   3.899   6.941  2.7691  0.5047 -2.3211
  125OSM    C6F13378   4.879   3.954   7.146 -0.3939  0.5867  0.1586
  125OSM    H6F13379   4.974   3.919   7.192 -0.2750  1.8096  0.8753
  125OSM    H6G13380   4.805   3.872   7.150  0.3990 -0.2108 -1.0613
  125OSM    C7F13381   4.816   4.069   7.231  0.1206  0.1714 -0.8508
  125OSM    H7F13382   4.715   4.090   7.190 -0.7416 -0.7363  0.7792
  125OSM    H7G13383   4.869   4.167   7.228  1.5062 -0.5380 -0.0319
  125OSM    C8F13384   4.784   4.031   7.377 -0.0972  0.1698  0.3884
  125OSM    H8F13385   4.716   3.944   7.368 -0.1657  0.3405 -0.9669
  125OSM    H8G13386   4.729   4.115   7.424 -1.8414 -0.6902 -0.0793
  125OSM    C9F13387   4.912   4.012   7.461  1.0340  0.3869  0.4573
  125OSM    H9F13388   5.003   4.001   7.400 -0.4182  0.8693 -1.8727
  125OSM   C10F13389   4.911   4.022   7.597  0.1616 -0.7973  0.0218
  125OSM   H10F13390   5.006   4.012   7.652  1.9389  1.7026 -2.4624
  125OSM   C11F13391   4.797   4.050   7.687 -0.0469 -0.1210 -0.3808
  125OSM   H11F13392   4.720   3.970   7.679  1.0235 -1.0053 -2.1229
  125OSM   H11G13393   4.747   4.144   7.656 -1.2361 -0.7702 -0.4496
  125OSM   C12F13394   4.833   4.050   7.838 -0.5482 -0.2123 -0.2443
  125OSM   H12F13395   4.744   4.062   7.903  1.1212 -0.9351  2.2690
  125OSM   H12G13396   4.906   4.131   7.856  0.3235 -1.3038  1.2818
  125OSM   C13F13397   4.889   3.920   7.894  0.0357  0.4290 -0.0777
  125OSM   H13F13398   4.972   3.896   7.825  0.9867  2.0385  0.4812
  125OSM   H13G13399   4.823   3.831   7.902 -0.0948  0.5411  0.1203
  125OSM   C14F13400   4.962   3.941   8.036 -0.4707 -0.1767  0.4460
  125OSM   H14F13401   5.028   4.028   8.016 -0.6005  0.4821  2.8205
  125OSM   H14G13402   5.030   3.859   8.067 -0.1047  0.2722  0.8375
  125OSM   C15F13403   4.870   3.970   8.151  0.4061 -0.0882  0.0893
  125OSM   H15F13404   4.814   3.877   8.175 -0.5807  0.6059  0.4842
  125OSM   H15G13405   4.791   4.039   8.114 -0.5738 -0.8158  0.7994
  125OSM   C16F13406   4.962   4.016   8.272 -0.2657 -0.2475  0.4419
  125OSM   H16F13407   5.024   4.106   8.253  0.1575 -0.9827 -1.8527
  125OSM   H16G13408   5.039   3.937   8.282 -1.0070 -1.0574 -0.1418
  125OSM   C17F13409   4.875   4.022   8.395  0.5187 -0.3841  0.2491
  125OSM   H17F13410   4.840   3.922   8.430 -0.9439 -1.2467 -3.5185
  125OSM   H17G13411   4.783   4.077   8.367  1.7817  0.8049 -1.6581
  125OSM   C18F13412   4.960   4.080   8.517  0.3687  0.9471  0.1190
  125OSM   H18F13413   4.898   4.090   8.609 -2.9231 -3.5812 -1.4148
  125OSM   H18G13414   4.994   4.182   8.490  1.8056  0.9187  1.7590
  125OSM   H18H13415   5.048   4.013   8.532  0.8620  1.5607 -0.0516
  126OSM      N13416   2.476   2.777   6.594  0.0259 -0.4719 -0.3566
  126OSM    C1513417   2.611   2.808   6.588 -0.6155 -1.3273  0.0922
  126OSM   H15A13418   2.644   2.853   6.496 -2.5062  1.6303  0.7955
  126OSM   H15B13419   2.668   2.720   6.616 -0.4291 -0.8808  1.1227
  126OSM   H15C13420   2.644   2.883   6.657  0.9672 -2.0179  0.1070
  126OSM    C1413421   2.440   2.753   6.737  0.1712 -0.5420  0.7189
  126OSM   H14A13422   2.502   2.668   6.759 -1.4362 -1.3480  2.2387
  126OSM   H14B13423   2.336   2.733   6.758 -0.4162  1.4272 -0.1659
  126OSM   H14C13424   2.468   2.832   6.805 -1.6680  0.6042  0.2089
  126OSM    C1313425   2.405   2.901   6.532 -0.3168  0.5959 -0.1715
  126OSM   H13A13426   2.436   2.924   6.431 -0.0813 -0.5785 -0.3746
  126OSM   H13B13427   2.421   2.989   6.591  2.2424  1.2292 -1.7256
  126OSM   H13C13428   2.302   2.871   6.515  0.3749 -1.9569 -0.0708
  126OSM    C1213429   2.452   2.648   6.521  0.1909 -0.7538 -0.2150
  126OSM   H12A13430   2.489   2.656   6.420  1.2023  2.8918  0.3691
  126OSM   H12B13431   2.346   2.634   6.509  0.4558 -0.9394 -2.5556
  126OSM    C1113432   2.515   2.515   6.578 -0.2816 -0.0718 -0.8231
  126OSM   H11A13433   2.472   2.419   6.541 -2.7719  0.4338  0.6899
  126OSM   H11B13434   2.501   2.507   6.688  1.3748 -0.8137 -0.6394
  126OSM      P13435   2.741   2.395   6.540  0.3342 -0.0147  0.2306
  126OSM    O1313436   2.714   2.330   6.411 -0.0065  0.4404 -0.1671
  126OSM    O1413437   2.877   2.434   6.563 -0.1718  0.8877  0.1043
  126OSM    O1113438   2.689   2.307   6.653 -0.1999 -0.0362  0.0964
  126OSM    O1213439   2.650   2.519   6.530  0.0248 -0.0979  0.0949
  126OSM    C1S13440   2.725   2.337   6.790  0.1079  0.0928  0.3763
  126OSM    H1S13441   2.720   2.447   6.804  3.5268 -0.0736  3.8142
  126OSM    H1T13442   2.823   2.292   6.815  0.9315  0.4743 -2.0840
  126OSM     NF13443   2.633   2.354   7.010  0.0419  0.6819 -0.6333
  126OSM    HNF13444   2.699   2.323   7.078  1.1840 -0.4348 -2.2144
  126OSM    C2S13445   2.616   2.286   6.884  0.3299  0.6493  0.8154
  126OSM    H2S13446   2.514   2.312   6.848  0.3071 -4.2500 -3.3240
  126OSM    C3S13447   2.628   2.127   6.892  0.7282  0.7790  0.0382
  126OSM    H3S13448   2.730   2.092   6.920  1.5561  1.6342 -1.8445
  126OSM     O313449   2.620   2.060   6.768 -0.1958 -0.6361  0.4816
  126OSM    HO313450   2.615   2.131   6.704  5.3687  2.6552  3.2253
  126OSM    C4S13451   2.520   2.072   6.982 -0.1872 -0.0467  0.4580
  126OSM    H4S13452   2.416   2.091   6.949  0.0632  1.6010  0.5982
  126OSM    C5S13453   2.541   2.026   7.109  0.4692 -0.2085  0.6452
  126OSM    H5S13454   2.642   2.047   7.149  1.0457  0.3544 -1.0669
  126OSM    C6S13455   2.431   1.994   7.207  0.5604 -0.5185 -0.0340
  126OSM    H6S13456   2.441   1.890   7.244 -1.5365 -1.0382 -0.8865
  126OSM    H6T13457   2.334   1.997   7.152 -0.4351  1.9026  1.7795
  126OSM    C7S13458   2.430   2.093   7.334  1.0383  0.5762 -0.1235
  126OSM    H7S13459   2.337   2.066   7.388  1.3374  0.2589  0.2361
  126OSM    H7T13460   2.428   2.197   7.295 -3.1980  1.3876  1.9021
  126OSM    C8S13461   2.543   2.069   7.435 -0.2520 -0.4115  0.0797
  126OSM    H8S13462   2.641   2.090   7.387 -0.2565  3.7774  1.6548
  126OSM    H8T13463   2.531   1.967   7.479  1.2987  0.1486  1.8762
  126OSM    C9S13464   2.520   2.159   7.564 -0.0854  0.0045  0.9607
  126OSM    H9S13465   2.414   2.195   7.561 -0.0217  0.1226 -0.2118
  126OSM    H9T13466   2.582   2.251   7.560 -1.8455  1.1623 -0.7010
  126OSM   C10S13467   2.539   2.093   7.704 -0.5537 -0.3949  0.0184
  126OSM   H10S13468   2.647   2.067   7.712 -0.3628  0.4484  0.1943
  126OSM   H10T13469   2.471   2.005   7.705 -0.8238 -0.1987 -0.7339
  126OSM   C11S13470   2.507   2.183   7.820  0.5602 -0.1518 -0.1198
  126OSM   H11S13471   2.405   2.225   7.811  0.0133 -0.7325  2.8016
  126OSM   H11T13472   2.566   2.277   7.818  1.7808 -0.8895  0.5513
  126OSM   C12S13473   2.511   2.107   7.957  0.6385  0.3419 -0.3720
  126OSM   H12S13474   2.459   2.009   7.961  1.3441  0.0037  0.9033
  126OSM   H12T13475   2.458   2.177   8.025 -0.4071 -2.0523  1.3445
  126OSM   C13S13476   2.653   2.085   8.007 -0.3756  0.7495 -0.4026
  126OSM   H13S13477   2.716   2.171   7.974 -0.2548  0.7035 -0.2889
  126OSM   H13T13478   2.700   1.999   7.955 -1.2770  1.7021 -2.8796
  126OSM   C14S13479   2.667   2.079   8.161  0.2698 -0.0823  0.5691
  126OSM   H14S13480   2.573   2.058   8.217 -0.9258  1.0729 -0.9418
  126OSM   H14T13481   2.697   2.177   8.204 -0.7325  0.0560  0.9753
  126OSM   C15S13482   2.778   1.988   8.203 -0.0971  0.2128  0.4031
  126OSM   H15S13483   2.879   2.011   8.161 -0.6300  0.8426 -0.5463
  126OSM   H15T13484   2.761   1.879   8.189 -4.9338  0.8606  0.4588
  126OSM   C16S13485   2.803   2.005   8.355 -0.6777  0.1098  0.5785
  126OSM   H16S13486   2.715   1.983   8.418  0.0490 -2.6170  0.7263
  126OSM   H16T13487   2.811   2.115   8.364  0.2703  0.1624 -0.6498
  126OSM   C17S13488   2.926   1.934   8.416 -0.7248  0.9018  0.3855
  126OSM   H17S13489   2.956   1.989   8.508  0.4798  1.2677 -0.2204
  126OSM   H17T13490   3.008   1.939   8.341 -0.2881 -4.6400  0.2446
  126OSM   C18S13491   2.892   1.792   8.468  0.2540  1.4905 -0.3760
  126OSM   H18S13492   2.793   1.791   8.519  2.0767 -0.1799  3.2678
  126OSM   H18T13493   2.968   1.745   8.533 -0.7242 -0.1137 -0.3693
  126OSM   H18U13494   2.869   1.730   8.378 -2.7864  0.7269  0.8703
  126OSM    C1F13495   2.595   2.480   7.029  0.0610  0.0334 -0.9167
  126OSM     OF13496   2.534   2.542   6.940 -0.1801  0.0125  0.3778
  126OSM    C2F13497   2.626   2.550   7.159  0.1697  0.7146 -0.7958
  126OSM    H2F13498   2.731   2.520   7.178  1.0347  1.9191 -3.4252
  126OSM    H2G13499   2.559   2.514   7.240  0.4091  0.7488 -0.5820
  126OSM    C3F13500   2.621   2.701   7.151 -0.2891 -0.1340  0.4376
  126OSM    H3F13501   2.521   2.726   7.110 -0.1518  1.6001  1.0823
  126OSM    H3G13502   2.702   2.747   7.091 -0.2312  0.1733  0.7477
  126OSM    C4F13503   2.623   2.767   7.289  0.0691  0.2159  0.0031
  126OSM    H4F13504   2.709   2.718   7.340  1.5496  3.1608  0.4186
  126OSM    H4G13505   2.529   2.746   7.344  0.7877 -1.9874  0.4563
  126OSM    C5F13506   2.636   2.917   7.280 -0.5581 -0.3884 -0.4289
  126OSM    H5F13507   2.549   2.968   7.233 -0.2672  0.6889  0.1765
  126OSM    H5G13508   2.720   2.932   7.209  0.6333 -0.3746  0.9651
  126OSM    C6F13509   2.683   2.984   7.422  0.1119  0.6073 -0.2431
  126OSM    H6F13510   2.751   3.070   7.407 -0.4155  1.3287  1.4046
  126OSM    H6G13511   2.737   2.912   7.488 -0.5598  2.7121  2.7212
  126OSM    C7F13512   2.566   3.047   7.486  0.2909 -0.3590 -0.1331
  126OSM    H7F13513   2.487   2.970   7.494 -1.0599  0.8426 -1.4944
  126OSM    H7G13514   2.531   3.128   7.418 -0.1052  0.8020  1.4175
  126OSM    C8F13515   2.584   3.111   7.623 -0.0260  0.2722 -0.1770
  126OSM    H8F13516   2.663   3.187   7.608  0.7494 -0.6237 -0.6989
  126OSM    H8G13517   2.625   3.033   7.691  0.4716 -0.0131 -0.8039
  126OSM    C9F13518   2.468   3.184   7.674  0.8244  0.2485 -1.0170
  126OSM    H9F13519   2.453   3.278   7.618  1.7943  1.5223  0.8126
  126OSM   C10F13520   2.385   3.155   7.778 -0.4401 -0.2625  0.6351
  126OSM   H10F13521   2.308   3.232   7.796  0.4778  1.0851 -1.0518
  126OSM   C11F13522   2.384   3.036   7.873  0.6783 -0.3040  0.0128
  126OSM   H11F13523   2.448   2.955   7.832 -1.8887 -2.5274  0.2403
  126OSM   H11G13524   2.281   3.002   7.898  1.3622 -0.8112  2.2143
  126OSM   C12F13525   2.450   3.077   8.010  0.6019  0.4937  0.4719
  126OSM   H12F13526   2.394   3.159   8.058 -1.0940  0.0531 -0.6792
  126OSM   H12G13527   2.551   3.114   7.982  0.4536  0.1521 -0.5680
  126OSM   C13F13528   2.459   2.952   8.104  0.4137 -0.0262 -0.0128
  126OSM   H13F13529   2.514   2.867   8.058 -1.5986  0.0066 -2.6084
  126OSM   H13G13530   2.359   2.904   8.103  1.8497 -3.1343  0.7751
  126OSM   C14F13531   2.495   2.985   8.248 -0.1560 -0.4481  0.2093
  126OSM   H14F13532   2.497   2.894   8.312  1.5617 -0.5058  0.1196
  126OSM   H14G13533   2.423   3.061   8.285 -0.4594 -0.8856  0.5097
  126OSM   C15F13534   2.635   3.061   8.267  0.0461 -0.4039  0.2466
  126OSM   H15F13535   2.630   3.154   8.207  0.4121 -1.1926 -1.0152
  126OSM   H15G13536   2.717   2.997   8.229 -0.8154  0.1055 -2.5955
  126OSM   C16F13537   2.660   3.104   8.416  1.3221 -0.1564  0.5032
  126OSM   H16F13538   2.578   3.174   8.440  1.0373  0.0464 -0.9739
  126OSM   H16G13539   2.756   3.161   8.413  0.9874  0.3495 -1.0165
  126OSM   C17F13540   2.676   2.978   8.513  0.2724 -0.1758  0.3062
  126OSM   H17F13541   2.751   2.907   8.472  0.7720  1.4081 -1.6247
  126OSM   H17G13542   2.579   2.928   8.533  1.1855 -1.6645  1.1545
  126OSM   C18F13543   2.738   3.025   8.650  0.1387 -0.4407 -0.5347
  126OSM   H18F13544   2.831   3.082   8.631 -0.5006  0.6425 -0.4767
  126OSM   H18G13545   2.777   2.935   8.703 -0.6993 -0.1610  0.5675
  126OSM   H18H13546   2.673   3.081   8.721  2.8397  1.5623  0.4007
  127OSM      N13547   4.396   1.007   5.939  0.2154 -1.1314 -0.4196
  127OSM    C1513548   4.289   1.077   5.858  0.4757 -0.0082  0.2482
  127OSM   H15A13549   4.211   1.108   5.926 -0.2160  1.8097 -1.3021
  127OSM   H15B13550   4.254   1.023   5.771 -0.3224  1.0038 -0.0730
  127OSM   H15C13551   4.331   1.167   5.814  0.7521  0.3066  1.1493
  127OSM    C1413552   4.477   0.922   5.846  0.7023 -0.2058 -0.0744
  127OSM   H14A13553   4.554   0.866   5.898  1.6780 -0.9493 -2.2602
  127OSM   H14B13554   4.508   0.980   5.760 -1.3154 -0.9552 -1.3311
  127OSM   H14C13555   4.413   0.853   5.794  1.9561 -1.2367 -0.2617
  127OSM    C1313556   4.474   1.113   6.008 -0.0093  0.7419  0.1835
  127OSM   H13A13557   4.525   1.170   5.931  1.2656 -0.6741 -0.0331
  127OSM   H13B13558   4.546   1.082   6.082  0.3703 -2.6416 -1.5186
  127OSM   H13C13559   4.414   1.188   6.058 -2.9237  0.1345 -2.2089
  127OSM    C1213560   4.346   0.912   6.048 -0.0038  1.0329  0.4953
  127OSM   H12A13561   4.436   0.870   6.092  0.4031  0.1099 -1.1882
  127OSM   H12B13562   4.297   0.827   6.004  1.3981 -0.4086  1.7042
  127OSM    C1113563   4.259   0.962   6.161 -0.7344  0.2319  0.0195
  127OSM   H11A13564   4.307   1.042   6.221 -3.9305  1.9837  0.3913
  127OSM   H11B13565   4.242   0.884   6.239  3.8828  1.4831  2.4371
  127OSM      P13566   4.008   0.955   6.133  0.0422  0.2593 -0.0990
  127OSM    O1313567   3.903   1.044   6.083 -0.0163  0.2329 -0.5965
  127OSM    O1413568   4.030   0.820   6.072 -0.0492  0.1169  0.1336
  127OSM    O1113569   4.004   0.940   6.293  0.0576  0.2700 -0.0317
  127OSM    O1213570   4.141   1.032   6.114  0.3644  0.2835  0.1925
  127OSM    C1S13571   3.957   1.054   6.370  0.5834 -0.0664  0.1703
  127OSM    H1S13572   3.857   1.092   6.340  0.6732  0.2536  0.2651
  127OSM    H1T13573   4.029   1.135   6.346  0.9392  0.3295  2.4909
  127OSM     NF13574   3.885   1.140   6.596 -0.1771 -0.0586  0.1133
  127OSM    HNF13575   3.948   1.205   6.640  1.4690 -2.3880  1.3423
  127OSM    C2S13576   3.942   1.024   6.525 -0.1827  0.2462 -0.4140
  127OSM    H2S13577   3.877   0.933   6.528  1.6653 -1.1766 -2.0100
  127OSM    C3S13578   4.085   0.998   6.579  0.1056 -1.0483 -0.0164
  127OSM    H3S13579   4.153   1.085   6.567  0.2909 -1.2804 -0.6587
  127OSM     O313580   4.153   0.894   6.499  0.1255 -0.2973  0.2005
  127OSM    HO313581   4.098   0.895   6.421  0.0586  1.1429  0.2669
  127OSM    C4S13582   4.086   0.961   6.720 -0.0966  0.7067 -0.1483
  127OSM    H4S13583   4.112   1.048   6.783  0.7549 -2.2379  3.7823
  127OSM    C5S13584   4.065   0.843   6.783  0.0775  0.4015  0.7031
  127OSM    H5S13585   4.042   0.758   6.717  1.8029 -0.0613  0.6569
  127OSM    C6S13586   4.072   0.810   6.927 -0.4037  0.1495 -0.6787
  127OSM    H6S13587   4.130   0.716   6.941  1.0791  1.2428  0.7978
  127OSM    H6T13588   3.974   0.793   6.976 -0.9349 -1.4518 -2.2805
  127OSM    C7S13589   4.149   0.929   6.998  0.0051 -0.3059  0.0110
  127OSM    H7S13590   4.089   1.022   6.986 -1.0363 -1.0219 -0.4925
  127OSM    H7T13591   4.247   0.949   6.950 -0.6770 -2.0818 -2.2437
  127OSM    C8S13592   4.177   0.904   7.149  1.2399 -0.0133 -0.0814
  127OSM    H8S13593   4.238   0.812   7.164 -0.0083 -0.7594  0.4984
  127OSM    H8T13594   4.084   0.895   7.209  2.1170 -1.0416  1.1361
  127OSM    C9S13595   4.233   1.028   7.213  0.0386  0.2209  0.4322
  127OSM    H9S13596   4.171   1.111   7.173 -0.3929 -0.6813 -0.7932
  127OSM    H9T13597   4.331   1.037   7.160  0.0487 -0.0561  0.4065
  127OSM   C10S13598   4.269   1.025   7.355 -0.0750 -0.7426  0.2089
  127OSM   H10S13599   4.342   0.950   7.392 -0.5320 -2.8112 -2.9130
  127OSM   H10T13600   4.175   1.013   7.413  0.1519  0.2580  0.8129
  127OSM   C11S13601   4.323   1.160   7.406 -0.0171  0.1469 -0.5063
  127OSM   H11S13602   4.297   1.239   7.333  2.8803 -0.2003 -2.0021
  127OSM   H11T13603   4.432   1.138   7.403 -0.1561 -1.5010  3.4406
  127OSM   C12S13604   4.284   1.190   7.551  0.3483  0.4141 -0.3279
  127OSM   H12S13605   4.317   1.106   7.614  0.6183  0.1169 -0.8659
  127OSM   H12T13606   4.174   1.189   7.567  0.3646  2.4534  0.1486
  127OSM   C13S13607   4.346   1.329   7.586  0.0905  0.2963 -0.2727
  127OSM   H13S13608   4.312   1.394   7.503  1.6995  0.1377 -1.0559
  127OSM   H13T13609   4.456   1.321   7.582  0.1532  0.2565  1.1476
  127OSM   C14S13610   4.299   1.383   7.723  0.3326 -0.0719 -0.7239
  127OSM   H14S13611   4.193   1.355   7.738  0.2963  0.1658 -0.5352
  127OSM   H14T13612   4.308   1.493   7.719  2.5138 -0.2125 -0.2735
  127OSM   C15S13613   4.383   1.316   7.838  0.6117  0.1973  0.0890
  127OSM   H15S13614   4.488   1.352   7.829  1.2819 -1.4779  0.8794
  127OSM   H15T13615   4.396   1.206   7.824 -2.4542 -0.1000 -0.6052
  127OSM   C16S13616   4.324   1.351   7.977  0.0451  0.1899  0.0348
  127OSM   H16S13617   4.379   1.294   8.055 -0.8257 -0.9289 -0.1594
  127OSM   H16T13618   4.216   1.329   7.982  0.7192 -3.7098 -0.5769
  127OSM   C17S13619   4.337   1.502   8.004 -0.0735  0.3874 -1.1073
  127OSM   H17S13620   4.270   1.565   7.941  0.5432  1.8034 -0.3658
  127OSM   H17T13621   4.439   1.528   7.970  0.5896  0.2099  0.7183
  127OSM   C18S13622   4.313   1.548   8.151  0.3597 -0.0311 -0.1950
  127OSM   H18S13623   4.357   1.649   8.160  0.8826 -0.0750 -2.0672
  127OSM   H18T13624   4.372   1.471   8.206 -1.3948  0.3557  2.3292
  127OSM   H18U13625   4.207   1.550   8.184  0.5823  2.7645  0.4284
  127OSM    C1F13626   3.760   1.172   6.592  0.1930 -0.8956  0.1903
  127OSM     OF13627   3.689   1.097   6.529  0.5039 -0.0077 -0.9395
  127OSM    C2F13628   3.709   1.294   6.665 -0.2819  0.0955  0.0230
  127OSM    H2F13629   3.608   1.321   6.628  1.2618  1.0805 -3.6856
  127OSM    H2G13630   3.775   1.382   6.649 -0.6283  0.3480 -0.0174
  127OSM    C3F13631   3.713   1.259   6.814 -0.3816 -0.0105  0.1827
  127OSM    H3F13632   3.685   1.353   6.867 -0.5998 -1.5418  2.8683
  127OSM    H3G13633   3.811   1.239   6.863 -0.2806 -0.0403 -0.0336
  127OSM    C4F13634   3.612   1.148   6.852 -0.2340  0.0785 -0.2700
  127OSM    H4F13635   3.655   1.052   6.818 -1.4340 -0.2453 -0.8765
  127OSM    H4G13636   3.512   1.165   6.808 -1.5391 -3.8303  1.0328
  127OSM    C5F13637   3.599   1.124   7.001  1.1198 -0.2525 -0.4314
  127OSM    H5F13638   3.529   1.042   7.028  0.3218  0.0973 -1.4279
  127OSM    H5G13639   3.536   1.203   7.046 -2.0591 -2.0379 -1.5869
  127OSM    C6F13640   3.727   1.113   7.077 -0.4786 -0.3931  0.8121
  127OSM    H6F13641   3.796   1.200   7.075 -0.9084 -0.0656  0.0062
  127OSM    H6G13642   3.786   1.033   7.025 -2.0771 -0.6087 -0.7060
  127OSM    C7F13643   3.717   1.066   7.217 -0.2881  0.0675 -0.9013
  127OSM    H7F13644   3.818   1.038   7.253  0.5434  3.0779 -0.7460
  127OSM    H7G13645   3.656   0.973   7.213  1.2595 -1.0678  0.6956
  127OSM    C8F13646   3.649   1.169   7.306  0.4561 -0.7191 -0.2364
  127OSM    H8F13647   3.578   1.231   7.248  1.5435  2.1003  1.3478
  127OSM    H8G13648   3.717   1.254   7.330 -0.5458 -0.0905  0.3968
  127OSM    C9F13649   3.564   1.110   7.418 -0.1041 -0.0777 -0.3668
  127OSM    H9F13650   3.457   1.098   7.399 -0.0567 -0.9202 -0.1523
  127OSM   C10F13651   3.612   1.090   7.541  0.1839  0.4793 -0.2142
  127OSM   H10F13652   3.542   1.064   7.621  1.6428 -1.3110  0.5085
  127OSM   C11F13653   3.753   1.101   7.590  1.1574 -0.1805  0.3031
  127OSM   H11F13654   3.818   1.154   7.517  0.1316  2.0114  0.9351
  127OSM   H11G13655   3.790   0.999   7.614 -0.2328 -0.8802 -0.4729
  127OSM   C12F13656   3.763   1.179   7.720 -0.3519  0.1752 -0.0209
  127OSM   H12F13657   3.699   1.136   7.800  3.2962 -2.1316  1.7709
  127OSM   H12G13658   3.754   1.289   7.704 -2.2771  0.3286  1.8677
  127OSM   C13F13659   3.905   1.171   7.787 -0.3512  0.3321 -0.3130
  127OSM   H13F13660   3.969   1.209   7.705  0.1643 -2.9545 -1.5030
  127OSM   H13G13661   3.932   1.063   7.788 -3.7363 -0.5944 -1.4712
  127OSM   C14F13662   3.926   1.242   7.925  0.0904  0.4334 -0.2600
  127OSM   H14F13663   3.903   1.351   7.921  0.9446  0.6045 -0.6387
  127OSM   H14G13664   4.035   1.239   7.943  0.2392 -1.8068 -1.4296
  127OSM   C15F13665   3.856   1.167   8.041  0.0985 -0.0835 -0.5590
  127OSM   H15F13666   3.855   1.057   8.032 -3.0476  0.1282 -3.9342
  127OSM   H15G13667   3.749   1.198   8.033 -0.3464 -0.8823  1.9322
  127OSM   C16F13668   3.916   1.186   8.180  0.5776  0.6872 -0.1579
  127OSM   H16F13669   4.007   1.124   8.198  1.7555  2.0646 -1.2355
  127OSM   H16G13670   3.839   1.157   8.254  0.1633  1.4035 -0.3018
  127OSM   C17F13671   3.942   1.328   8.226 -0.3913 -0.1830 -0.1968
  127OSM   H17F13672   3.844   1.379   8.220  0.6006  2.3083  3.4111
  127OSM   H17G13673   3.993   1.397   8.155  0.2007  2.0406  2.3059
  127OSM   C18F13674   4.005   1.348   8.363  0.5678  0.4618 -0.7292
  127OSM   H18F13675   4.085   1.273   8.377  1.2468  1.3416  0.1693
  127OSM   H18G13676   3.930   1.344   8.444  2.0810 -1.0257  0.6112
  127OSM   H18H13677   4.046   1.451   8.376 -0.7060  0.8060  0.6362
  128OSM      N13678   5.619   4.391   6.004 -0.1710  0.5351  0.4105
  128OSM    C1513679   5.583   4.272   6.086 -0.2594  0.3088 -0.1548
  128OSM   H15A13680   5.487   4.271   6.135 -0.4760 -0.4685 -0.5717
  128OSM   H15B13681   5.666   4.259   6.154 -1.6976 -0.4992  1.4572
  128OSM   H15C13682   5.584   4.180   6.028  1.9991  1.9673 -2.8601
  128OSM    C1413683   5.745   4.357   5.925 -0.1637  0.3658  0.1447
  128OSM   H14A13684   5.746   4.259   5.879 -0.0706  0.0713  0.7621
  128OSM   H14B13685   5.826   4.370   5.996  1.8213 -1.5240 -1.6958
  128OSM   H14C13686   5.780   4.432   5.856  2.8238 -0.8746  0.2003
  128OSM    C1313687   5.517   4.401   5.892 -0.2052  0.2261  0.3466
  128OSM   H13A13688   5.541   4.485   5.829  1.5610 -0.4413  0.0987
  128OSM   H13B13689   5.420   4.412   5.938 -0.2993  0.3246  0.1259
  128OSM   H13C13690   5.519   4.320   5.820  0.0751  1.3587 -0.9322
  128OSM    C1213691   5.647   4.518   6.079 -0.3900  0.1513  0.4265
  128OSM   H12A13692   5.559   4.575   6.107  0.5793  1.4381  0.9273
  128OSM   H12B13693   5.700   4.586   6.014  1.1996  0.1607  1.7014
  128OSM    C1113694   5.754   4.511   6.201 -0.5841  0.0155 -0.0742
  128OSM   H11A13695   5.707   4.433   6.265  0.8730 -1.9107 -1.2714
  128OSM   H11B13696   5.749   4.608   6.255 -1.9805  0.4710 -1.0196
  128OSM      P13697   5.999   4.556   6.151  0.4321 -0.2980  0.1245
  128OSM    O1313698   6.110   4.494   6.078 -0.6499  0.3022 -0.4774
  128OSM    O1413699   5.959   4.681   6.082 -0.1190  0.4246 -0.8044
  128OSM    O1113700   6.048   4.596   6.299 -0.3073 -0.5209 -0.2183
  128OSM    O1213701   5.880   4.456   6.166 -0.0087  0.2934  0.3743
  128OSM    C1S13702   6.098   4.495   6.396  0.5650 -0.2052 -0.2038
  128OSM    H1S13703   6.195   4.452   6.366 -0.2029 -2.5627  0.5378
  128OSM    H1T13704   6.032   4.406   6.409  1.5366 -1.4353 -3.4650
  128OSM     NF13705   6.143   4.438   6.638  1.0275 -0.4935 -0.1937
  128OSM    HNF13706   6.074   4.393   6.694 -0.2151  1.0160 -0.4533
  128OSM    C2S13707   6.108   4.545   6.545  1.2096 -0.6758 -0.8185
  128OSM    H2S13708   6.194   4.615   6.554  0.8820 -0.3837  0.1433
  128OSM    C3S13709   5.980   4.620   6.600  0.0667 -0.1255 -0.1401
  128OSM    H3S13710   5.910   4.538   6.628 -1.1366  0.5222 -1.1795
  128OSM     O313711   5.899   4.697   6.511  0.1987 -0.4219  0.0638
  128OSM    HO313712   5.946   4.681   6.429 -0.1635 -0.3914 -0.1479
  128OSM    C4S13713   6.007   4.705   6.729  0.6291 -0.5458 -0.3494
  128OSM    H4S13714   5.993   4.648   6.822 -0.3835 -1.1158 -0.8425
  128OSM    C5S13715   6.048   4.835   6.730 -1.1601  0.9863 -0.4798
  128OSM    H5S13716   6.073   4.884   6.635 -0.7266  1.2980 -0.2058
  128OSM    C6S13717   6.069   4.925   6.851 -0.3047 -0.2726  0.4376
  128OSM    H6S13718   6.019   5.023   6.835 -0.3122  0.5828  5.0795
  128OSM    H6T13719   6.179   4.944   6.853 -0.7516  2.3815  2.0139
  128OSM    C7S13720   6.032   4.871   6.993  0.0510 -1.0746  0.1714
  128OSM    H7S13721   6.079   4.773   7.016 -0.7028 -1.6630 -0.7807
  128OSM    H7T13722   5.924   4.851   6.982  0.1837 -0.3232 -3.1124
  128OSM    C8S13723   6.066   4.970   7.100  0.1032  0.3932 -0.5519
  128OSM    H8S13724   6.009   5.065   7.096 -3.0867 -1.4562 -0.7225
  128OSM    H8T13725   6.175   4.988   7.090  0.4137  0.0393  2.0928
  128OSM    C9S13726   6.033   4.921   7.245 -0.1923  0.4977  0.5134
  128OSM    H9S13727   6.072   4.817   7.256  1.1109  0.8181 -1.0360
  128OSM    H9T13728   5.923   4.908   7.262 -0.5735  0.0506 -2.1514
  128OSM   C10S13729   6.091   5.000   7.369  0.1790 -0.2368  0.7371
  128OSM   H10S13730   6.061   5.107   7.362 -3.8744 -1.3506  0.3047
  128OSM   H10T13731   6.202   5.003   7.367  0.2623 -1.9666  1.6281
  128OSM   C11S13732   6.065   4.949   7.509  0.4511 -0.2429 -0.3550
  128OSM   H11S13733   6.109   4.847   7.509 -2.5537 -1.5770 -0.4353
  128OSM   H11T13734   5.959   4.959   7.540  0.2098 -4.1028  0.3297
  128OSM   C12S13735   6.149   5.022   7.616  0.4911  0.8902 -0.1832
  128OSM   H12S13736   6.134   5.132   7.610 -0.2393  0.9814  2.5293
  128OSM   H12T13737   6.260   5.013   7.607  0.6285  2.5972 -0.3334
  128OSM   C13S13738   6.123   4.982   7.763  0.1759  0.3023  0.2372
  128OSM   H13S13739   6.086   4.877   7.774 -0.8217  0.7578  1.3604
  128OSM   H13T13740   6.030   5.040   7.783 -0.7916 -0.7439 -1.1291
  128OSM   C14S13741   6.235   5.014   7.866  0.0828  0.3055 -0.2255
  128OSM   H14S13742   6.233   5.124   7.878  0.7042  0.0657  2.4941
  128OSM   H14T13743   6.331   4.966   7.834  0.5044  0.3463  0.9218
  128OSM   C15S13744   6.201   4.970   8.007  0.3866 -0.1576 -0.2041
  128OSM   H15S13745   6.190   4.859   8.014 -0.5339  0.0224  1.4585
  128OSM   H15T13746   6.096   4.995   8.031  0.0235 -0.7114 -1.1686
  128OSM   C16S13747   6.296   5.017   8.113  0.6944 -0.1884 -0.4171
  128OSM   H16S13748   6.303   5.128   8.113  0.7064 -0.1752  1.1537
  128OSM   H16T13749   6.399   4.976   8.113  0.5123 -0.6674  0.4716
  128OSM   C17S13750   6.254   4.960   8.256 -0.3841  0.1310  0.4310
  128OSM   H17S13751   6.169   4.888   8.253 -0.5462  0.3113  0.7345
  128OSM   H17T13752   6.211   5.047   8.308 -3.3341 -1.5662  0.9563
  128OSM   C18S13753   6.363   4.908   8.345  0.3009  0.2664  0.3499
  128OSM   H18S13754   6.324   4.879   8.445  2.0473  0.8956  1.2414
  128OSM   H18T13755   6.447   4.978   8.361 -0.0154  0.8566 -0.5340
  128OSM   H18U13756   6.414   4.818   8.303 -1.0963 -0.6900  0.6810
  128OSM    C1F13757   6.262   4.370   6.635 -0.5877  0.2800  0.6542
  128OSM     OF13758   6.363   4.399   6.563 -1.0090  0.0784  0.0527
  128OSM    C2F13759   6.281   4.257   6.730  0.0096 -0.2289 -0.2765
  128OSM    H2F13760   6.324   4.171   6.676 -0.1356  0.1387 -0.9767
  128OSM    H2G13761   6.188   4.218   6.777  0.5047 -0.4165  0.5752
  128OSM    C3F13762   6.366   4.293   6.855  0.6734  0.2445  0.0726
  128OSM    H3F13763   6.320   4.383   6.900 -0.0791  0.2805 -0.7601
  128OSM    H3G13764   6.472   4.323   6.837  1.1585 -0.4844  1.6206
  128OSM    C4F13765   6.376   4.173   6.951  0.5725  0.5018 -0.4053
  128OSM    H4F13766   6.425   4.093   6.892 -0.4867  0.4115 -1.1953
  128OSM    H4G13767   6.272   4.144   6.979  0.1539  2.9995  0.7653
  128OSM    C5F13768   6.459   4.194   7.075 -0.0869 -0.0536 -0.5269
  128OSM    H5F13769   6.413   4.277   7.134  1.7622  0.4434  0.2778
  128OSM    H5G13770   6.565   4.217   7.053 -0.2553 -1.0165 -2.3820
  128OSM    C6F13771   6.456   4.066   7.163 -0.1923 -0.0266  0.1864
  128OSM    H6F13772   6.526   4.003   7.105  0.5973  2.5549 -1.7599
  128OSM    H6G13773   6.356   4.019   7.170  0.0030 -0.7748 -1.8161
  128OSM    C7F13774   6.507   4.092   7.307  0.1550  0.3254  0.6488
  128OSM    H7F13775   6.596   4.154   7.286  0.9407 -0.8585  0.3890
  128OSM    H7G13776   6.552   4.003   7.357 -0.3995  0.7867  2.0020
  128OSM    C8F13777   6.414   4.170   7.406  0.4977 -0.5210  0.9411
  128OSM    H8F13778   6.401   4.268   7.354  0.9185 -2.1178 -2.3520
  128OSM    H8G13779   6.463   4.184   7.504  0.3153  1.6953  0.7489
  128OSM    C9F13780   6.283   4.092   7.422 -0.3667 -0.2305 -0.8304
  128OSM    H9F13781   6.225   4.096   7.328 -0.3695  0.5151 -0.7969
  128OSM   C10F13782   6.236   4.033   7.533  0.1327 -0.6688  0.2481
  128OSM   H10F13783   6.140   3.980   7.530  0.9812 -2.2895  0.7839
  128OSM   C11F13784   6.296   4.029   7.670  0.4838 -0.1668  0.3531
  128OSM   H11F13785   6.399   4.069   7.663  0.8054 -0.5991  2.4404
  128OSM   H11G13786   6.297   3.924   7.707 -0.2775  0.0312  0.9514
  128OSM   C12F13787   6.226   4.122   7.770 -0.1368  0.3628  0.0634
  128OSM   H12F13788   6.209   4.220   7.721 -0.2670  0.7873  0.9408
  128OSM   H12G13789   6.282   4.137   7.865  0.6357 -0.8181 -0.2030
  128OSM   C13F13790   6.090   4.064   7.815  0.1996  0.1079  0.5002
  128OSM   H13F13791   6.028   4.014   7.737 -1.7431  1.7059  0.9858
  128OSM   H13G13792   6.034   4.151   7.854 -0.6749 -0.3838  0.3419
  128OSM   C14F13793   6.104   3.968   7.927 -0.4323  0.2087  0.1912
  128OSM   H14F13794   6.139   4.025   8.016 -0.8706 -1.3300  1.3833
  128OSM   H14G13795   6.172   3.885   7.897  0.3626 -0.2577  3.0572
  128OSM   C15F13796   5.969   3.915   7.984  0.1588 -0.0913  0.2319
  128OSM   H15F13797   5.911   3.855   7.910  2.9909 -2.3127 -0.2814
  128OSM   H15G13798   5.898   4.000   8.001 -0.5306 -0.6016 -0.0577
  128OSM   C16F13799   6.003   3.857   8.121 -0.6383 -0.4824  0.4239
  128OSM   H16F13800   6.055   3.932   8.185 -1.1634  0.0305  0.2572
  128OSM   H16G13801   6.072   3.772   8.105  0.2475  0.0711  1.2042
  128OSM   C17F13802   5.876   3.817   8.197  0.4836 -0.2073  0.1861
  128OSM   H17F13803   5.822   3.748   8.129 -0.5466  0.2812  0.5084
  128OSM   H17G13804   5.810   3.905   8.215  0.8261 -0.0084  0.4792
  128OSM   C18F13805   5.902   3.736   8.319  0.2955  0.3088 -0.9978
  128OSM   H18F13806   5.959   3.812   8.376 -0.7925 -2.0091  3.4024
  128OSM   H18G13807   5.963   3.644   8.313 -1.2493 -0.7623 -0.7056
  128OSM   H18H13808   5.815   3.715   8.386  0.1922 -0.4083 -1.3557
  129OSM      N13809   3.698   0.741   5.768 -0.0784  0.2686  0.1179
  129OSM    C1513810   3.563   0.684   5.737 -0.1141  0.6957 -0.4192
  129OSM   H15A13811   3.494   0.701   5.818 -1.2289 -0.4319 -1.1253
  129OSM   H15B13812   3.571   0.578   5.720  3.6682  0.8088  0.1103
  129OSM   H15C13813   3.531   0.730   5.645  0.0914 -2.2298 -2.0064
  129OSM    C1413814   3.795   0.697   5.664 -0.0888 -0.0379  0.3501
  129OSM   H14A13815   3.773   0.729   5.564 -0.5274  0.5555  0.6379
  129OSM   H14B13816   3.798   0.589   5.660  0.3810 -0.0847  1.7015
  129OSM   H14C13817   3.899   0.723   5.680  0.1884 -0.8819 -0.0444
  129OSM    C1313818   3.695   0.886   5.775 -0.1822 -0.0999 -0.0405
  129OSM   H13A13819   3.667   0.927   5.679  0.1710 -0.7009 -0.4090
  129OSM   H13B13820   3.792   0.928   5.799 -0.9460  2.1820 -0.7964
  129OSM   H13C13821   3.639   0.923   5.859 -0.7618 -0.9092 -0.0664
  129OSM    C1213822   3.741   0.690   5.902  0.4209 -0.5904 -0.5153
  129OSM   H12A13823   3.840   0.731   5.909 -0.5076  1.8268 -1.0783
  129OSM   H12B13824   3.751   0.583   5.914 -0.7375 -0.3065  3.5173
  129OSM    C1113825   3.673   0.746   6.032 -0.3413 -0.4823 -0.4420
  129OSM   H11A13826   3.707   0.852   6.041 -2.9375  0.4206 -0.7323
  129OSM   H11B13827   3.723   0.707   6.123  0.7465 -0.5502 -1.0616
  129OSM      P13828   3.460   0.608   6.091  0.2584  0.1466 -0.4769
  129OSM    O1313829   3.316   0.613   6.049  0.7548 -0.8551 -0.9263
  129OSM    O1413830   3.534   0.480   6.074 -0.2782 -0.2943  0.0887
  129OSM    O1113831   3.460   0.647   6.242 -0.3784  0.5144  0.0511
  129OSM    O1213832   3.533   0.731   6.026 -0.8761  0.5650 -0.6077
  129OSM    C1S13833   3.425   0.774   6.296  0.2032  0.6499  0.5849
  129OSM    H1S13834   3.315   0.794   6.289  0.0859 -0.7927 -3.2744
  129OSM    H1T13835   3.470   0.863   6.248 -0.3412  0.1633 -0.8742
  129OSM     NF13836   3.468   0.927   6.484  0.3730 -0.0176  0.4276
  129OSM    HNF13837   3.552   0.978   6.474 -0.0829  0.6504 -0.0293
  129OSM    C2S13838   3.484   0.788   6.441  0.6607  0.6103 -0.4765
  129OSM    H2S13839   3.430   0.719   6.509  1.0741 -0.9320 -1.6800
  129OSM    C3S13840   3.633   0.745   6.448  0.7677  0.1016 -0.1546
  129OSM    H3S13841   3.696   0.811   6.385 -1.9325  2.8581 -0.0523
  129OSM     O313842   3.658   0.612   6.391  0.2116  0.6654  0.1801
  129OSM    HO313843   3.581   0.588   6.339  0.4681 -2.5157  1.1872
  129OSM    C4S13844   3.688   0.743   6.593  0.3856  0.1662 -0.4173
  129OSM    H4S13845   3.697   0.847   6.629  0.6860  0.0005 -0.0092
  129OSM    C5S13846   3.703   0.627   6.665  0.3086  0.2096 -0.2416
  129OSM    H5S13847   3.671   0.528   6.628 -1.7470  1.1552 -1.0677
  129OSM    C6S13848   3.746   0.631   6.816 -0.0913  0.1364 -0.5472
  129OSM    H6S13849   3.750   0.736   6.850  0.6963 -0.0699  0.0007
  129OSM    H6T13850   3.843   0.582   6.839  0.0836  0.1313 -1.2835
  129OSM    C7S13851   3.638   0.554   6.892  0.8681 -0.1182  0.4940
  129OSM    H7S13852   3.648   0.449   6.859 -0.1625  0.3394 -1.3258
  129OSM    H7T13853   3.535   0.594   6.885  0.1639 -1.8880  0.6878
  129OSM    C8S13854   3.677   0.549   7.040  0.4072 -0.6021 -0.0684
  129OSM    H8S13855   3.770   0.494   7.067  0.1546 -1.8400 -1.6770
  129OSM    H8T13856   3.600   0.502   7.106  0.2916  0.1043  0.2967
  129OSM    C9S13857   3.686   0.695   7.096  0.2991  0.1449  0.7374
  129OSM    H9S13858   3.605   0.757   7.053  1.6123  1.0256 -0.4941
  129OSM    H9T13859   3.783   0.736   7.062  0.1838 -0.1459  0.0608
  129OSM   C10S13860   3.673   0.703   7.244  0.6142 -0.2121  0.1047
  129OSM   H10S13861   3.611   0.616   7.275  0.2340  0.0265  0.0177
  129OSM   H10T13862   3.614   0.794   7.269  1.7211  0.5393  0.0221
  129OSM   C11S13863   3.804   0.700   7.316  0.3030  0.4371 -0.1035
  129OSM   H11S13864   3.877   0.781   7.291  2.4138 -1.0085  1.2261
  129OSM   H11T13865   3.873   0.619   7.285  2.1653  2.2025 -0.6859
  129OSM   C12S13866   3.784   0.704   7.468  0.6201 -0.0583 -0.3577
  129OSM   H12S13867   3.727   0.613   7.494 -1.2157  1.4253  0.9863
  129OSM   H12T13868   3.727   0.793   7.504 -0.8700 -1.5854  1.1595
  129OSM   C13S13869   3.905   0.702   7.565  0.1218 -0.7766 -0.0415
  129OSM   H13S13870   3.934   0.595   7.577 -1.8902 -1.4879 -1.1804
  129OSM   H13T13871   3.866   0.729   7.665 -0.0246 -0.4683 -0.1810
  129OSM   C14S13872   4.032   0.771   7.506 -0.1606 -0.2741  0.2871
  129OSM   H14S13873   4.010   0.878   7.482  0.1793 -0.2550  0.0496
  129OSM   H14T13874   4.069   0.730   7.409  0.8004 -0.5788  0.7734
  129OSM   C15S13875   4.145   0.761   7.617  0.1984  0.0414  0.6963
  129OSM   H15S13876   4.244   0.785   7.573 -0.9015 -1.7944 -2.9653
  129OSM   H15T13877   4.151   0.654   7.648  1.3375 -0.6845 -1.8453
  129OSM   C16S13878   4.117   0.857   7.740 -0.1072 -0.3752  0.0725
  129OSM   H16S13879   4.024   0.828   7.792  0.4712 -0.3729  1.1171
  129OSM   H16T13880   4.100   0.962   7.708  1.0290  0.2314  1.4211
  129OSM   C17S13881   4.235   0.852   7.840  0.9103 -0.1314  0.0011
  129OSM   H17S13882   4.335   0.858   7.792  1.0186  1.2051  0.3629
  129OSM   H17T13883   4.228   0.757   7.897  0.5797  0.1332  0.4006
  129OSM   C18S13884   4.228   0.961   7.950  0.2405  0.0800 -0.0922
  129OSM   H18S13885   4.247   1.060   7.902  1.4633  0.8671  1.9476
  129OSM   H18T13886   4.306   0.937   8.024  2.6740  0.5957 -2.4113
  129OSM   H18U13887   4.138   0.956   8.015  1.3713  2.6347  1.7506
  129OSM    C1F13888   3.346   0.974   6.506 -0.1072 -0.0639 -0.4983
  129OSM     OF13889   3.250   0.906   6.516  0.4236  0.0350  0.0761
  129OSM    C2F13890   3.332   1.125   6.499  0.1274 -0.4357  0.4116
  129OSM    H2F13891   3.260   1.151   6.418 -0.0152  0.4678  0.8278
  129OSM    H2G13892   3.430   1.176   6.481 -0.1747 -0.3333 -1.0244
  129OSM    C3F13893   3.262   1.179   6.623 -0.2574 -0.2709  0.7668
  129OSM    H3F13894   3.312   1.130   6.709 -0.8093  0.9765  1.8309
  129OSM    H3G13895   3.156   1.146   6.610  0.5912 -2.1334 -1.7101
  129OSM    C4F13896   3.279   1.333   6.637  0.9647  0.7042 -0.2114
  129OSM    H4F13897   3.224   1.376   6.550  1.3370  0.7929 -0.3991
  129OSM    H4G13898   3.385   1.364   6.626  0.5263  1.5476 -2.2184
  129OSM    C5F13899   3.208   1.388   6.766 -1.0870  0.3873  0.4406
  129OSM    H5F13900   3.110   1.337   6.774  0.6809 -3.1775  1.0196
  129OSM    H5G13901   3.189   1.495   6.746 -1.5886  0.0557 -0.8962
  129OSM    C6F13902   3.292   1.364   6.887 -0.1785  0.4803  0.5287
  129OSM    H6F13903   3.401   1.372   6.865 -0.0176  0.2887  1.2498
  129OSM    H6G13904   3.287   1.260   6.924 -1.4337  0.8807  1.5324
  129OSM    C7F13905   3.247   1.452   7.006  0.0981  0.1154  0.2392
  129OSM    H7F13906   3.140   1.435   7.030 -0.4593 -1.4686 -3.2344
  129OSM    H7G13907   3.266   1.558   6.979 -2.3278  0.2480 -1.0676
  129OSM    C8F13908   3.310   1.411   7.133 -1.3704 -0.3713  0.2491
  129OSM    H8F13909   3.345   1.306   7.129  0.1639  0.1663 -1.2058
  129OSM    H8G13910   3.246   1.408   7.224  0.0105  0.4447  1.2952
  129OSM    C9F13911   3.443   1.483   7.157 -0.1273  0.0003 -0.5396
  129OSM    H9F13912   3.530   1.462   7.093 -0.1138  2.5269 -1.4205
  129OSM   C10F13913   3.459   1.578   7.247  0.3967 -0.2530 -0.1965
  129OSM   H10F13914   3.558   1.624   7.260 -0.5368  1.3162  1.5415
  129OSM   C11F13915   3.352   1.629   7.346 -0.4977 -0.3251  0.5325
  129OSM   H11F13916   3.260   1.569   7.330  1.5913 -3.1577 -1.2830
  129OSM   H11G13917   3.334   1.738   7.342 -0.8614 -0.4114 -0.2261
  129OSM   C12F13918   3.399   1.590   7.491 -0.0813  1.3716  0.1587
  129OSM   H12F13919   3.328   1.633   7.565 -0.3988 -2.0310  1.9417
  129OSM   H12G13920   3.501   1.621   7.522 -1.1103  1.8933  3.2421
  129OSM   C13F13921   3.377   1.436   7.508 -0.1860 -0.2559 -0.4220
  129OSM   H13F13922   3.444   1.383   7.438  0.1547 -2.2372  1.3496
  129OSM   H13G13923   3.274   1.412   7.473 -1.1404  0.8625  1.5014
  129OSM   C14F13924   3.412   1.376   7.648 -0.2470  0.5312 -0.2973
  129OSM   H14F13925   3.510   1.406   7.691  1.1926 -1.1954 -2.2564
  129OSM   H14G13926   3.416   1.266   7.632 -1.0603  0.4762 -0.1442
  129OSM   C15F13927   3.316   1.409   7.763  0.0881 -0.1283 -0.4509
  129OSM   H15F13928   3.216   1.423   7.716 -0.5031 -1.3100  0.4365
  129OSM   H15G13929   3.361   1.503   7.801 -0.6322  0.6056 -1.3756
  129OSM   C16F13930   3.306   1.302   7.866 -0.2522  0.1995 -0.3111
  129OSM   H16F13931   3.288   1.208   7.810 -3.0200  1.2602 -1.2996
  129OSM   H16G13932   3.208   1.318   7.916  0.4548  0.7050  0.9335
  129OSM   C17F13933   3.418   1.301   7.976 -0.2068 -1.0257  0.3573
  129OSM   H17F13934   3.434   1.398   8.028 -1.0569 -1.7173  1.9234
  129OSM   H17G13935   3.509   1.266   7.924  0.8842  1.0617  0.8168
  129OSM   C18F13936   3.368   1.204   8.079 -0.0497  0.1122 -0.8094
  129OSM   H18F13937   3.257   1.206   8.077 -0.0591 -0.0391 -0.4464
  129OSM   H18G13938   3.411   1.232   8.177 -2.2827 -2.0468  0.8635
  129OSM   H18H13939   3.395   1.099   8.052 -0.3870 -0.3999  0.7743
  130OSM      N13940   6.131   3.130   6.264 -0.4187 -0.0252  0.1106
  130OSM    C1513941   6.109   3.265   6.204 -0.0153 -0.4302  0.0190
  130OSM   H15A13942   6.190   3.285   6.136  1.6853 -1.0610  1.7987
  130OSM   H15B13943   6.117   3.341   6.280 -1.8448 -0.3030  0.1092
  130OSM   H15C13944   6.016   3.273   6.150  0.4254  0.5642 -0.6012
  130OSM    C1413945   6.044   3.120   6.384  0.1537 -0.4168  0.5544
  130OSM   H14A13946   6.034   3.017   6.416  0.2905 -0.6601 -0.1827
  130OSM   H14B13947   5.944   3.153   6.360  1.0507  1.7462 -0.2838
  130OSM   H14C13948   6.091   3.184   6.457  3.1292 -0.2656 -1.4240
  130OSM    C1313949   6.087   3.031   6.165 -0.1136 -0.2630 -0.5142
  130OSM   H13A13950   5.985   3.052   6.135 -0.7998 -0.6558  1.4962
  130OSM   H13B13951   6.089   2.929   6.200 -2.9816  0.1573  0.9958
  130OSM   H13C13952   6.140   3.033   6.071  0.2265  2.3996 -0.3152
  130OSM    C1213953   6.276   3.114   6.311  0.1582 -0.4615  0.3747
  130OSM   H12A13954   6.260   3.018   6.358 -0.2543 -0.0926  1.0068
  130OSM   H12B13955   6.295   3.190   6.386  1.0995 -0.6199  0.3028
  130OSM    C1113956   6.389   3.104   6.212 -0.5514  0.1250  0.3614
  130OSM   H11A13957   6.378   3.021   6.139 -0.6424 -1.3450  2.0233
  130OSM   H11B13958   6.489   3.092   6.259 -0.1545 -0.0605 -0.5343
  130OSM      P13959   6.469   3.353   6.167  0.2180  0.2310 -0.3409
  130OSM    O1313960   6.608   3.348   6.118  0.3846 -0.0097  0.7326
  130OSM    O1413961   6.397   3.478   6.142 -0.4013  0.3882  0.8370
  130OSM    O1113962   6.477   3.326   6.321  0.8491  0.0861  0.3130
  130OSM    O1213963   6.381   3.225   6.123 -0.3553 -0.7776  0.1401
  130OSM    C1S13964   6.411   3.411   6.421  0.7031 -0.7405  0.4600
  130OSM    H1S13965   6.305   3.400   6.388  1.1507 -0.5884 -1.0657
  130OSM    H1T13966   6.439   3.517   6.404 -1.0369 -0.5079 -1.0543
  130OSM     NF13967   6.351   3.423   6.659  0.0620  0.3244  0.9465
  130OSM    HNF13968   6.381   3.506   6.706  1.2434  0.3200  0.2269
  130OSM    C2S13969   6.452   3.364   6.571  0.6646  0.4664 -0.7102
  130OSM    H2S13970   6.438   3.254   6.567 -1.0723  0.5122  2.4984
  130OSM    C3S13971   6.602   3.395   6.592 -0.4679 -0.3169 -0.0855
  130OSM    H3S13972   6.622   3.504   6.582  2.4612 -0.4464  3.1701
  130OSM     O313973   6.691   3.347   6.492 -0.1819  0.0456  0.1160
  130OSM    HO313974   6.621   3.315   6.434  0.0625 -2.0876  0.9407
  130OSM    C4S13975   6.641   3.347   6.725 -0.2860  0.2327  0.8608
  130OSM    H4S13976   6.668   3.423   6.800  2.5850 -0.0163  0.1433
  130OSM    C5S13977   6.676   3.226   6.770  0.3700  1.1058 -0.0845
  130OSM    H5S13978   6.660   3.140   6.704 -0.6733  0.8400  0.4944
  130OSM    C6S13979   6.719   3.187   6.908  0.1495  0.3104 -0.5451
  130OSM    H6S13980   6.824   3.151   6.917 -1.1880 -3.1604  2.1859
  130OSM    H6T13981   6.657   3.102   6.942  1.4896  0.5039  2.5647
  130OSM    C7S13982   6.708   3.292   7.016  0.0986 -0.3045  0.6476
  130OSM    H7S13983   6.600   3.294   7.042 -0.6460 -3.2476 -1.9018
  130OSM    H7T13984   6.747   3.394   6.995  2.0663 -1.4231 -1.3704
  130OSM    C8S13985   6.783   3.237   7.140 -0.1867 -0.2071 -0.0724
  130OSM    H8S13986   6.892   3.256   7.131 -0.2322  0.1241  0.0597
  130OSM    H8T13987   6.762   3.128   7.151 -1.3410  0.0636  0.5422
  130OSM    C9S13988   6.745   3.293   7.278  0.8916  0.0695  0.6028
  130OSM    H9S13989   6.635   3.289   7.292  0.9821  0.3530  1.4157
  130OSM    H9T13990   6.757   3.403   7.270 -2.1117  0.6172  2.7874
  130OSM   C10S13991   6.820   3.230   7.400  0.0621 -0.3626 -0.0843
  130OSM   H10S13992   6.927   3.259   7.406  0.7838 -3.3864  3.4980
  130OSM   H10T13993   6.810   3.121   7.379 -3.4560  0.0417 -0.9339
  130OSM   C11S13994   6.775   3.290   7.532 -0.3530  0.3856  0.1788
  130OSM   H11S13995   6.665   3.285   7.551  0.0395 -0.7352  2.2836
  130OSM   H11T13996   6.820   3.391   7.532  1.2192 -0.3020  0.3545
  130OSM   C12S13997   6.857   3.231   7.649 -0.6715 -0.6437  0.6128
  130OSM   H12S13998   6.963   3.255   7.626 -1.5932  1.6698 -1.5564
  130OSM   H12T13999   6.854   3.120   7.654  0.3670 -0.8151 -1.7047
  130OSM   C13S14000   6.825   3.288   7.788 -0.1364 -0.9113  0.0897
  130OSM   H13S14001   6.808   3.397   7.776  1.4289 -0.6707 -0.0227
  130OSM   H13T14002   6.909   3.285   7.860  0.3802 -0.0761 -0.4722
  130OSM   C14S14003   6.696   3.224   7.849 -1.0844  0.2624 -0.2497
  130OSM   H14S14004   6.716   3.118   7.879 -2.7989 -0.4511 -1.5515
  130OSM   H14T14005   6.630   3.219   7.760 -1.9943  0.4851  0.4113
  130OSM   C15S14006   6.630   3.294   7.969 -0.2024 -0.3086  0.2908
  130OSM   H15S14007   6.541   3.238   8.005  1.6066 -1.9150  2.4598
  130OSM   H15T14008   6.579   3.391   7.952 -0.5151 -0.4309  0.5353
  130OSM   C16S14009   6.718   3.285   8.087  0.5403  0.0551 -0.2227
  130OSM   H16S14010   6.777   3.191   8.086  1.9805  0.9461 -0.3836
  130OSM   H16T14011   6.653   3.287   8.178 -1.4909  2.7855 -1.6635
  130OSM   C17S14012   6.809   3.404   8.103 -0.8137 -0.0385 -0.5783
  130OSM   H17S14013   6.759   3.494   8.061  0.4603  0.8190 -0.2944
  130OSM   H17T14014   6.898   3.379   8.040  0.2213 -0.5380  1.0415
  130OSM   C18S14015   6.852   3.443   8.248  0.4174 -0.5070  0.1137
  130OSM   H18S14016   6.882   3.361   8.316  0.6171 -0.2591  0.3288
  130OSM   H18T14017   6.773   3.502   8.301  2.6290  2.4153  0.3160
  130OSM   H18U14018   6.946   3.502   8.251  0.8957 -1.2206 -0.9113
  130OSM    C1F14019   6.224   3.402   6.664  0.0257  0.5745 -0.5884
  130OSM     OF14020   6.170   3.338   6.576 -0.2329  0.4294  0.2189
  130OSM    C2F14021   6.143   3.464   6.782 -0.5994  0.1854  0.1740
  130OSM    H2F14022   6.125   3.570   6.753 -0.8944  0.5022  1.4582
  130OSM    H2G14023   6.215   3.459   6.867 -0.7736  0.5416  0.3442
  130OSM    C3F14024   6.011   3.400   6.818  0.7214  0.0140 -0.4888
  130OSM    H3F14025   6.028   3.295   6.848 -1.0249 -0.0515  0.3056
  130OSM    H3G14026   5.942   3.390   6.732  0.2549  0.1294 -0.1315
  130OSM    C4F14027   5.942   3.476   6.928 -0.3114 -0.4293 -0.4878
  130OSM    H4F14028   5.858   3.413   6.965 -1.7291  1.8608  0.3003
  130OSM    H4G14029   5.891   3.565   6.885 -2.6981 -1.0655  0.8965
  130OSM    C5F14030   6.032   3.507   7.049  0.1706 -1.0401 -0.1251
  130OSM    H5F14031   6.079   3.603   7.021 -0.6792 -0.4088  0.5644
  130OSM    H5G14032   6.113   3.431   7.055  0.4978 -0.6474  0.4487
  130OSM    C6F14033   5.962   3.509   7.192  0.6444 -0.5095  0.0137
  130OSM    H6F14034   5.898   3.419   7.203 -0.1554 -0.0023 -0.4286
  130OSM    H6G14035   5.895   3.595   7.213  0.4387 -0.6673 -0.0077
  130OSM    C7F14036   6.063   3.506   7.311  0.6514 -0.5409 -0.0254
  130OSM    H7F14037   6.098   3.610   7.328 -0.4559 -0.4046  1.5542
  130OSM    H7G14038   6.154   3.451   7.279  0.9382  0.8584 -1.6955
  130OSM    C8F14039   6.004   3.448   7.444  0.4682 -0.5705 -0.3918
  130OSM    H8F14040   6.085   3.440   7.520 -1.9911 -0.6800  2.3205
  130OSM    H8G14041   5.969   3.343   7.449  0.5125 -0.5605  0.1940
  130OSM    C9F14042   5.904   3.546   7.489  0.2082 -0.8453  1.0656
  130OSM    H9F14043   5.805   3.535   7.442  1.0084 -3.7955  0.0009
  130OSM   C10F14044   5.929   3.645   7.580  0.7420 -0.5924 -0.6490
  130OSM   H10F14045   5.842   3.704   7.611  1.3329  0.8480 -1.6464
  130OSM   C11F14046   6.047   3.670   7.666 -0.4096 -0.0162  0.3199
  130OSM   H11F14047   6.049   3.773   7.708  2.0750  0.0754  0.0751
  130OSM   H11G14048   6.135   3.646   7.603  1.0093  0.9370  1.8903
  130OSM   C12F14049   6.043   3.584   7.789  0.1192 -0.0677 -0.2208
  130OSM   H12F14050   6.009   3.482   7.762  1.5576 -0.0975 -2.0232
  130OSM   H12G14051   5.983   3.639   7.865  0.6126 -0.4196  0.4254
  130OSM   C13F14052   6.185   3.565   7.851 -0.3210  0.6171  0.3140
  130OSM   H13F14053   6.243   3.660   7.844 -0.0234  0.2354 -3.0010
  130OSM   H13G14054   6.249   3.494   7.795  0.6760  1.2096  0.6664
  130OSM   C14F14055   6.171   3.518   8.002  0.6539 -0.0171  0.3140
  130OSM   H14F14056   6.140   3.412   8.002  0.2472  0.0352  3.2890
  130OSM   H14G14057   6.102   3.578   8.066  1.5998 -0.1142  1.4502
  130OSM   C15F14058   6.310   3.519   8.056 -0.4157  0.5306  0.1515
  130OSM   H15F14059   6.341   3.625   8.068 -1.9224  1.0581 -0.5102
  130OSM   H15G14060   6.375   3.462   7.987  0.8203 -1.9739  3.2685
  130OSM   C16F14061   6.328   3.461   8.205  0.5736 -0.4950  0.0462
  130OSM   H16F14062   6.438   3.444   8.216  0.4701 -1.8687 -0.8942
  130OSM   H16G14063   6.269   3.367   8.209  2.0510 -1.4245  0.2318
  130OSM   C17F14064   6.260   3.555   8.304  0.3838 -0.2355  0.2795
  130OSM   H17F14065   6.155   3.520   8.291  0.5385 -0.2568 -0.9503
  130OSM   H17G14066   6.266   3.661   8.272  0.3347  0.1667  1.5641
  130OSM   C18F14067   6.322   3.544   8.445  0.9188  0.2665  0.4671
  130OSM   H18F14068   6.267   3.600   8.524 -2.2306 -0.2874 -1.2623
  130OSM   H18G14069   6.427   3.580   8.431  0.4159  1.3012 -0.7098
  130OSM   H18H14070   6.327   3.438   8.477  1.5869  0.1227 -0.0977
  131OSM      N14071   4.012   0.475   6.372 -0.4243 -0.4440  0.4814
  131OSM    C1514072   3.983   0.614   6.330  0.1821  0.2395 -0.0392
  131OSM   H15A14073   3.959   0.622   6.225 -2.5745  1.1951  0.6333
  131OSM   H15B14074   4.075   0.669   6.337  1.0115 -0.8226 -2.0045
  131OSM   H15C14075   3.907   0.673   6.379 -1.5490 -1.1247 -1.0108
  131OSM    C1414076   4.128   0.430   6.286 -0.3753  0.8028 -0.6896
  131OSM   H14A14077   4.177   0.340   6.322 -0.8818  1.5274  1.8902
  131OSM   H14B14078   4.215   0.492   6.272  0.5208 -0.1596  0.5147
  131OSM   H14C14079   4.095   0.403   6.186  1.5989 -2.3339 -0.5866
  131OSM    C1314080   4.066   0.477   6.512  0.1736 -0.3975 -0.2312
  131OSM   H13A14081   4.096   0.381   6.552  0.4272 -0.4004 -0.4222
  131OSM   H13B14082   3.993   0.521   6.578  0.9971 -0.6514  0.8737
  131OSM   H13C14083   4.150   0.546   6.521  0.9985 -1.0056 -2.7885
  131OSM    C1214084   3.889   0.399   6.335 -0.0015 -0.4695 -1.2361
  131OSM   H12A14085   3.859   0.412   6.232 -0.8086  0.9109 -0.8390
  131OSM   H12B14086   3.806   0.430   6.398  1.2641  0.3323  0.0662
  131OSM    C1114087   3.906   0.244   6.361  0.4818  0.2747  0.6403
  131OSM   H11A14088   3.807   0.196   6.345  0.1297  1.1584  0.0806
  131OSM   H11B14089   3.941   0.227   6.465  2.4478 -0.4451 -0.1278
  131OSM      P14090   3.954   0.128   6.126  0.3027 -0.0433 -0.2785
  131OSM    O1314091   3.844   0.219   6.079 -0.5281 -0.4574  0.3744
  131OSM    O1414092   4.071   0.115   6.041 -0.7624 -0.6225  0.4571
  131OSM    O1114093   3.896  -0.019   6.142  0.1536  0.6557 -0.1980
  131OSM    O1214094   4.002   0.176   6.273  0.0184 -0.3014  0.3428
  131OSM    C1S14095   3.957  -0.109   6.240  0.0510  0.9836 -0.0118
  131OSM    H1S14096   4.049  -0.072   6.288 -0.2533 -0.4825  1.7565
  131OSM    H1T14097   3.996  -0.195   6.182  0.7739  0.4012  1.3109
  131OSM     NF14098   3.919  -0.244   6.441 -0.3167  0.2433 -0.4123
  131OSM    HNF14099   3.872  -0.331   6.454 -0.4417  0.3499 -0.1459
  131OSM    C2S14100   3.854  -0.151   6.350  0.0913  0.0259 -0.1543
  131OSM    H2S14101   3.826  -0.061   6.408 -0.2141 -0.7211  0.8637
  131OSM    C3S14102   3.723  -0.205   6.283 -0.6296 -0.1248  0.4715
  131OSM    H3S14103   3.746  -0.290   6.215 -1.6570 -0.1165  0.1098
  131OSM     O314104   3.665  -0.118   6.195 -0.0682 -0.6885  0.1389
  131OSM    HO314105   3.731  -0.049   6.181 -0.0370 -1.2737 -2.9267
  131OSM    C4S14106   3.629  -0.244   6.390  0.3637 -0.5781  0.3875
  131OSM    H4S14107   3.672  -0.311   6.465  0.9801 -0.7319 -0.1064
  131OSM    C5S14108   3.507  -0.188   6.423 -0.2518 -0.4700 -0.0383
  131OSM    H5S14109   3.468  -0.114   6.353 -0.9994  0.0439  0.9169
  131OSM    C6S14110   3.424  -0.222   6.542 -0.5240 -0.4603 -0.1940
  131OSM    H6S14111   3.335  -0.265   6.493 -1.1658 -0.6289  1.0873
  131OSM    H6T14112   3.406  -0.127   6.597  2.1404 -0.5806  0.9865
  131OSM    C7S14113   3.493  -0.323   6.640  0.4530 -0.6780  1.0412
  131OSM    H7S14114   3.544  -0.405   6.586  0.2300  0.4095 -0.8652
  131OSM    H7T14115   3.419  -0.373   6.706  0.2696 -0.5840  0.9051
  131OSM    C8S14116   3.587  -0.245   6.743  0.4502  0.5120  0.2017
  131OSM    H8S14117   3.555  -0.140   6.755 -1.4883 -0.0203 -0.0286
  131OSM    H8T14118   3.685  -0.268   6.696  0.0860 -1.0873  0.1795
  131OSM    C9S14119   3.600  -0.322   6.872  0.2284  0.0216  0.2993
  131OSM    H9S14120   3.661  -0.409   6.838  0.9458 -0.0269  1.6943
  131OSM    H9T14121   3.504  -0.346   6.921  0.1764 -1.1475 -0.3567
  131OSM   C10S14122   3.682  -0.239   6.976 -0.3594  1.5130  0.1940
  131OSM   H10S14123   3.631  -0.141   6.983 -0.7854  1.5791 -2.9867
  131OSM   H10T14124   3.786  -0.226   6.940  0.6685  0.5976  2.7284
  131OSM   C11S14125   3.686  -0.307   7.117  0.1867 -0.3608  0.6617
  131OSM   H11S14126   3.774  -0.375   7.116 -0.2808 -1.0111  2.7249
  131OSM   H11T14127   3.596  -0.370   7.134 -0.6526  0.5956 -0.2007
  131OSM   C12S14128   3.700  -0.204   7.229 -0.3711 -0.0176 -0.0702
  131OSM   H12S14129   3.606  -0.144   7.237 -1.1178 -1.3186  1.4467
  131OSM   H12T14130   3.773  -0.130   7.191  0.7285 -1.0748 -0.0329
  131OSM   C13S14131   3.725  -0.278   7.357  0.1641 -0.1781 -0.0977
  131OSM   H13S14132   3.805  -0.354   7.347  0.1104 -0.2389 -0.0619
  131OSM   H13T14133   3.631  -0.327   7.393 -0.9795  1.0429 -1.3702
  131OSM   C14S14134   3.757  -0.187   7.481 -0.0099  0.4186  0.6167
  131OSM   H14S14135   3.689  -0.102   7.463 -1.4554 -0.6695  0.8979
  131OSM   H14T14136   3.862  -0.151   7.468  0.0888 -0.1523 -0.2014
  131OSM   C15S14137   3.732  -0.245   7.621 -0.1154  0.1840 -0.0093
  131OSM   H15S14138   3.798  -0.333   7.637  1.5497  1.1549 -1.3467
  131OSM   H15T14139   3.628  -0.284   7.624  0.3922 -1.2034 -0.0145
  131OSM   C16S14140   3.762  -0.141   7.723  0.3365  0.2405  0.0736
  131OSM   H16S14141   3.716  -0.044   7.695 -0.1048  0.0547  0.1437
  131OSM   H16T14142   3.872  -0.127   7.712  0.3910  0.0261  0.3595
  131OSM   C17S14143   3.746  -0.197   7.872 -0.0847  0.0664  0.0352
  131OSM   H17S14144   3.809  -0.288   7.881  0.5841  0.5139 -0.1547
  131OSM   H17T14145   3.644  -0.241   7.876 -0.2332  0.3749 -0.3577
  131OSM   C18S14146   3.774  -0.091   7.974  0.4558 -0.2716 -0.4347
  131OSM   H18S14147   3.775  -0.126   8.079  0.2218  1.2674  0.0965
  131OSM   H18T14148   3.689  -0.019   7.971 -0.5919 -1.4979 -0.9973
  131OSM   H18U14149   3.865  -0.035   7.943 -0.8522  3.1012  1.4675
  131OSM    C1F14150   4.016  -0.215   6.528  0.5519 -0.4352 -0.5128
  131OSM     OF14151   4.051  -0.102   6.547  0.3979  0.3256  0.7587
  131OSM    C2F14152   4.075  -0.332   6.604  0.1964 -1.1255 -0.1471
  131OSM    H2F14153   4.141  -0.384   6.532 -1.1625  0.6873 -2.8253
  131OSM    H2G14154   3.996  -0.407   6.626 -0.2137 -0.8036 -0.4979
  131OSM    C3F14155   4.161  -0.289   6.724 -0.1747 -0.2094  0.9403
  131OSM    H3F14156   4.237  -0.214   6.693 -0.1852 -1.5976 -2.6633
  131OSM    H3G14157   4.209  -0.376   6.773 -2.8829 -2.0700  0.3679
  131OSM    C4F14158   4.071  -0.239   6.838 -1.2269  0.3304  0.5492
  131OSM    H4F14159   4.013  -0.324   6.882 -0.7195  0.2569  1.0780
  131OSM    H4G14160   3.999  -0.164   6.799 -0.8017 -0.4394 -1.7523
  131OSM    C5F14161   4.146  -0.171   6.955 -0.1901 -0.1486  0.1655
  131OSM    H5F14162   4.202  -0.084   6.915 -0.6094 -0.4488 -1.0708
  131OSM    H5G14163   4.206  -0.252   7.001 -0.8060 -0.4213  0.5010
  131OSM    C6F14164   4.059  -0.125   7.072 -0.8551 -0.0884  0.3477
  131OSM    H6F14165   4.014  -0.202   7.138  1.5685 -0.4408  1.6473
  131OSM    H6G14166   3.979  -0.064   7.025  0.3844  1.9418  0.8090
  131OSM    C7F14167   4.117  -0.018   7.164  0.1035 -0.0566  0.2694
  131OSM    H7F14168   4.036   0.035   7.217  0.5255  0.0802  0.7755
  131OSM    H7G14169   4.164   0.054   7.094  2.9501 -2.9197 -0.9092
  131OSM    C8F14170   4.238  -0.062   7.254  0.9360  0.1836  0.9955
  131OSM    H8F14171   4.273   0.026   7.313  1.6215  2.0435 -2.0559
  131OSM    H8G14172   4.319  -0.094   7.185 -0.2088  0.8171 -0.6526
  131OSM    C9F14173   4.196  -0.172   7.347  0.7835  0.0505  0.4647
  131OSM    H9F14174   4.183  -0.265   7.290  1.2398 -1.2373  2.3816
  131OSM   C10F14175   4.160  -0.148   7.476  0.6683  0.5019 -0.6653
  131OSM   H10F14176   4.144  -0.234   7.543 -1.0034  1.7208  0.5339
  131OSM   C11F14177   4.164  -0.017   7.539 -0.2151  0.0320  0.0920
  131OSM   H11F14178   4.067   0.034   7.519 -0.5065 -1.1863 -1.7612
  131OSM   H11G14179   4.247   0.052   7.515  0.1285  0.4897  2.4713
  131OSM   C12F14180   4.165  -0.038   7.693 -0.6374 -0.0963  0.0947
  131OSM   H12F14181   4.080  -0.105   7.718 -1.6153  0.8302 -0.6823
  131OSM   H12G14182   4.149   0.057   7.749  0.6075 -0.2492  0.7270
  131OSM   C13F14183   4.306  -0.084   7.744 -0.4606 -0.1363  0.1422
  131OSM   H13F14184   4.384  -0.009   7.718 -0.2368 -0.3228  0.2802
  131OSM   H13G14185   4.333  -0.181   7.698 -0.8150  0.3096 -1.0180
  131OSM   C14F14186   4.320  -0.110   7.896 -0.1885  0.1565  0.7198
  131OSM   H14F14187   4.421  -0.151   7.913 -0.0029  0.2261 -0.1826
  131OSM   H14G14188   4.244  -0.190   7.913  0.3777 -0.5111  0.1111
  131OSM   C15F14189   4.302   0.012   7.987  0.0994 -0.8169  0.0283
  131OSM   H15F14190   4.198   0.052   7.983  1.2088  2.0909 -0.7547
  131OSM   H15G14191   4.372   0.094   7.962  1.0533 -1.6286  0.0362
  131OSM   C16F14192   4.305  -0.028   8.137  0.0153  0.4452  0.4343
  131OSM   H16F14193   4.381  -0.102   8.169 -1.0576  0.0909  2.2953
  131OSM   H16G14194   4.202  -0.069   8.153 -0.4313  1.1045 -0.6933
  131OSM   C17F14195   4.320   0.093   8.224 -0.0049  0.0652 -0.3407
  131OSM   H17F14196   4.300   0.182   8.161  1.2933  0.1981 -0.5864
  131OSM   H17G14197   4.424   0.102   8.261 -0.7403  0.1127  1.7601
  131OSM   C18F14198   4.238   0.089   8.358 -0.0489 -0.4173  0.4092
  131OSM   H18F14199   4.263   0.001   8.421 -2.0491 -1.4185 -0.1299
  131OSM   H18G14200   4.128   0.101   8.344  0.1867 -0.9152 -2.1195
  131OSM   H18H14201   4.271   0.168   8.428 -0.8503 -0.1735  0.5190
  132OSM      N14202   6.093   1.268   6.219 -0.4342  0.5717  0.1823
  132OSM    C1514203   6.198   1.199   6.132  0.3325  0.1355 -0.1437
  132OSM   H15A14204   6.289   1.187   6.190 -0.1176  0.4262  0.6310
  132OSM   H15B14205   6.221   1.263   6.048  2.4911 -0.8101 -0.2946
  132OSM   H15C14206   6.153   1.108   6.097  0.8003  0.1154 -0.7016
  132OSM    C1414207   6.159   1.392   6.271  0.3214 -0.3570 -0.0010
  132OSM   H14A14208   6.195   1.459   6.195  0.0149  1.5165  1.4712
  132OSM   H14B14209   6.248   1.369   6.329  0.6149  1.0452  0.1129
  132OSM   H14C14210   6.092   1.454   6.329  0.4972 -0.8376  0.7264
  132OSM    C1314211   5.971   1.297   6.143 -0.1594  0.6710 -0.2972
  132OSM   H13A14212   5.928   1.205   6.107  0.5407 -0.1356  0.8974
  132OSM   H13B14213   5.990   1.362   6.058 -1.1476  0.7340 -0.4809
  132OSM   H13C14214   5.900   1.351   6.203 -0.8790  1.1389 -1.5354
  132OSM    C1214215   6.060   1.187   6.343  0.4706 -0.1468  0.7559
  132OSM   H12A14216   5.973   1.222   6.396  1.0428  0.2737  1.4236
  132OSM   H12B14217   6.138   1.202   6.416 -0.4791 -2.0225  2.2009
  132OSM    C1114218   6.048   1.026   6.327 -0.5271 -0.2222  0.3600
  132OSM   H11A14219   6.048   0.978   6.427 -0.8009  1.4598  1.1762
  132OSM   H11B14220   6.145   0.993   6.285  0.0975  0.5021  1.2461
  132OSM      P14221   5.798   0.994   6.294 -0.2200 -0.0806  0.0018
  132OSM    O1314222   5.724   1.072   6.194  0.4584  0.1891 -0.4494
  132OSM    O1414223   5.755   0.857   6.323 -0.5024 -0.3215 -0.5233
  132OSM    O1114224   5.814   1.075   6.430  0.2825 -0.1224 -0.9791
  132OSM    O1214225   5.944   0.983   6.235 -0.3439  0.3702  0.6771
  132OSM    C1S14226   5.787   1.015   6.559  0.1670 -0.2169  0.1075
  132OSM    H1S14227   5.816   0.907   6.556  0.5492 -0.0987 -0.6636
  132OSM    H1T14228   5.679   1.031   6.577 -0.0816 -1.6718 -0.0105
  132OSM     NF14229   5.793   1.037   6.814  0.8239 -0.5558 -0.5413
  132OSM    HNF14230   5.723   1.080   6.871  1.5582  1.6462 -1.2326
  132OSM    C2S14231   5.842   1.097   6.685 -0.2425 -0.5203  0.0125
  132OSM    H2S14232   5.952   1.084   6.680  0.0217  0.6147  2.5667
  132OSM    C3S14233   5.809   1.246   6.669  0.3123 -0.7951 -0.1348
  132OSM    H3S14234   5.699   1.261   6.674  0.5474  1.4504 -0.8459
  132OSM     O314235   5.835   1.300   6.543 -0.3032 -0.2454  0.4133
  132OSM    HO314236   5.828   1.223   6.486 -0.1681 -0.8022  1.1432
  132OSM    C4S14237   5.887   1.323   6.774  0.4535  0.4316  0.2481
  132OSM    H4S14238   5.990   1.327   6.733  0.1366 -1.8482 -0.8551
  132OSM    C5S14239   5.849   1.376   6.890  0.1702 -0.1806  0.4976
  132OSM    H5S14240   5.743   1.374   6.919  0.0372  1.3676  0.1607
  132OSM    C6S14241   5.933   1.453   6.987 -0.4045  0.3652  0.4900
  132OSM    H6S14242   5.919   1.402   7.084 -0.2687  0.3259  0.4887
  132OSM    H6T14243   5.890   1.552   7.015  1.2529  1.2548 -0.0319
  132OSM    C7S14244   6.086   1.465   6.985 -0.2683  0.7121  0.1637
  132OSM    H7S14245   6.105   1.550   6.915  2.1334 -1.7018 -2.2255
  132OSM    H7T14246   6.130   1.375   6.937 -1.6874  0.5422 -0.8211
  132OSM    C8S14247   6.160   1.493   7.113 -0.1834 -0.1930  1.2239
  132OSM    H8S14248   6.268   1.469   7.109  0.1042  1.0840  0.9986
  132OSM    H8T14249   6.119   1.421   7.187  0.5916 -0.4203  1.4369
  132OSM    C9S14250   6.143   1.641   7.150  0.2201 -0.3571 -0.6654
  132OSM    H9S14251   6.037   1.670   7.164  0.6389  1.2237 -0.7052
  132OSM    H9T14252   6.174   1.714   7.073 -1.9995  2.4838  1.0202
  132OSM   C10S14253   6.231   1.663   7.274 -0.6925 -0.3214  0.4262
  132OSM   H10S14254   6.269   1.768   7.273  0.5694 -0.7656  0.3600
  132OSM   H10T14255   6.314   1.589   7.273 -0.4634 -0.0678  0.8954
  132OSM   C11S14256   6.167   1.632   7.410 -0.2664 -0.1935 -0.3451
  132OSM   H11S14257   6.148   1.523   7.423 -1.8709 -0.3506 -3.5047
  132OSM   H11T14258   6.069   1.683   7.413  0.1290  0.5354  0.3611
  132OSM   C12S14259   6.270   1.671   7.511 -0.1345  0.5876 -1.0506
  132OSM   H12S14260   6.321   1.765   7.484 -0.8688  0.4306 -3.0445
  132OSM   H12T14261   6.357   1.601   7.513 -0.6281 -0.0146  0.8403
  132OSM   C13S14262   6.224   1.659   7.663  0.3176 -0.2624 -0.5379
  132OSM   H13S14263   6.198   1.556   7.697  3.0043 -0.2725  1.6379
  132OSM   H13T14264   6.135   1.726   7.663  0.2383 -0.3619  0.3497
  132OSM   C14S14265   6.315   1.728   7.762 -0.9723  0.5821  0.4314
  132OSM   H14S14266   6.322   1.837   7.741  0.3527  0.5692  0.7831
  132OSM   H14T14267   6.423   1.706   7.746 -1.3681 -1.4295  0.3736
  132OSM   C15S14268   6.275   1.706   7.907  0.1835  0.3705  0.0862
  132OSM   H15S14269   6.298   1.603   7.940  0.1683 -0.5736 -2.6756
  132OSM   H15T14270   6.165   1.713   7.903  0.0551 -1.9487 -0.8564
  132OSM   C16S14271   6.314   1.818   7.996 -0.2882 -0.8940 -0.4056
  132OSM   H16S14272   6.278   1.913   7.950  2.3501  1.7300  2.5934
  132OSM   H16T14273   6.424   1.833   8.004 -0.2581 -1.9176  1.5149
  132OSM   C17S14274   6.256   1.790   8.136 -0.1159  0.6786 -0.5335
  132OSM   H17S14275   6.301   1.691   8.160 -0.1423  0.8414  0.2243
  132OSM   H17T14276   6.146   1.790   8.117 -0.3367  3.6144  0.3650
  132OSM   C18S14277   6.295   1.889   8.243  0.0213 -0.6268 -0.2048
  132OSM   H18S14278   6.403   1.918   8.247 -0.3048  0.4051  2.2853
  132OSM   H18T14279   6.277   1.839   8.341 -0.5851  3.3172  1.7894
  132OSM   H18U14280   6.236   1.983   8.246  0.7948 -0.1315 -0.4085
  132OSM    C1F14281   5.826   0.911   6.844  0.2273  0.1358  0.1112
  132OSM     OF14282   5.914   0.844   6.786 -0.0081  0.0150 -0.1967
  132OSM    C2F14283   5.745   0.848   6.959 -0.2173 -0.2700 -0.0155
  132OSM    H2F14284   5.717   0.743   6.935  1.2231 -0.8520  0.7714
  132OSM    H2G14285   5.656   0.912   6.975  1.4382  2.0162  0.3204
  132OSM    C3F14286   5.835   0.825   7.084  0.5076 -0.4158 -0.3135
  132OSM    H3F14287   5.897   0.913   7.112 -0.9794  0.9927 -1.3637
  132OSM    H3G14288   5.900   0.739   7.057  0.6725  0.5126 -3.0198
  132OSM    C4F14289   5.752   0.813   7.221 -0.2082  0.4653 -0.6234
  132OSM    H4F14290   5.689   0.903   7.240 -1.5362  0.1087 -3.0432
  132OSM    H4G14291   5.822   0.821   7.306 -0.2321  0.8508 -0.6384
  132OSM    C5F14292   5.669   0.689   7.234  0.4207  0.3955  0.2751
  132OSM    H5F14293   5.731   0.597   7.244 -1.5768 -0.9100  1.1829
  132OSM    H5G14294   5.597   0.676   7.151 -0.0837 -1.3458  0.9706
  132OSM    C6F14295   5.582   0.688   7.365  0.0452 -0.4383 -0.2447
  132OSM    H6F14296   5.535   0.788   7.376  0.9150 -0.1839  1.2461
  132OSM    H6G14297   5.651   0.683   7.452 -2.0998  1.1600  1.6244
  132OSM    C7F14298   5.470   0.585   7.376  0.5172 -0.4279 -0.2753
  132OSM    H7F14299   5.511   0.482   7.373 -2.7840 -1.7877 -0.9064
  132OSM    H7G14300   5.391   0.588   7.298  0.8246 -3.4268 -0.7443
  132OSM    C8F14301   5.385   0.596   7.501 -0.2066 -1.0127 -0.0307
  132OSM    H8F14302   5.439   0.551   7.587  0.4579  0.6847  0.4485
  132OSM    H8G14303   5.296   0.529   7.497 -2.2402  1.2501  3.3627
  132OSM    C9F14304   5.330   0.736   7.543  0.0439  0.1807  0.0042
  132OSM    H9F14305   5.269   0.790   7.469  0.8216  1.2981  0.1539
  132OSM   C10F14306   5.375   0.815   7.648 -0.4813 -0.1165  0.3461
  132OSM   H10F14307   5.328   0.912   7.665  0.6993  0.8537 -1.6892
  132OSM   C11F14308   5.480   0.768   7.747  0.1128 -0.2311 -0.8796
  132OSM   H11F14309   5.556   0.844   7.775 -0.7006  0.6364 -0.9884
  132OSM   H11G14310   5.534   0.683   7.700 -2.5182 -1.3491 -2.0265
  132OSM   C12F14311   5.436   0.727   7.888 -0.5992 -0.4332 -0.2020
  132OSM   H12F14312   5.524   0.677   7.933 -1.5723 -1.8535  0.1348
  132OSM   H12G14313   5.354   0.653   7.891 -1.6681  0.7712  1.5014
  132OSM   C13F14314   5.401   0.850   7.980 -0.2657 -0.4483 -0.5024
  132OSM   H13F14315   5.318   0.907   7.932 -0.5692 -1.1497 -0.8206
  132OSM   H13G14316   5.490   0.916   7.990 -1.6741  1.4831 -0.5450
  132OSM   C14F14317   5.361   0.809   8.126  0.5955  0.0106  0.7291
  132OSM   H14F14318   5.453   0.760   8.163  1.8033  0.1012 -2.0334
  132OSM   H14G14319   5.279   0.739   8.101 -0.8069  0.9593  2.5845
  132OSM   C15F14320   5.313   0.923   8.210 -0.1134 -0.0371 -0.6484
  132OSM   H15F14321   5.211   0.946   8.172 -0.1884  0.5464 -0.1036
  132OSM   H15G14322   5.362   1.022   8.205  1.4604 -0.7427  0.6182
  132OSM   C16F14323   5.310   0.884   8.361 -1.0481 -0.4343 -0.4427
  132OSM   H16F14324   5.413   0.859   8.394 -1.7452 -2.9274 -0.0781
  132OSM   H16G14325   5.247   0.793   8.363 -0.8384 -0.5692  0.0808
  132OSM   C17F14326   5.251   0.996   8.457 -0.1756 -0.9207  0.0231
  132OSM   H17F14327   5.218   0.949   8.552 -1.0043 -0.2552  0.0691
  132OSM   H17G14328   5.161   1.046   8.414 -0.0694  1.0958  2.0511
  132OSM   C18F14329   5.348   1.106   8.493  0.3215  0.2069  0.2087
  132OSM   H18F14330   5.386   1.169   8.409  2.4181  1.1822  1.8298
  132OSM   H18G14331   5.438   1.050   8.527  1.6017  2.1402  0.0727
  132OSM   H18H14332   5.319   1.170   8.578  0.1767 -0.6765  0.8326
  133OSM      N14333   6.016   0.474   5.885 -0.5724  0.2824 -0.2276
  133OSM    C1514334   6.033   0.624   5.900 -0.3647 -0.2551 -0.0891
  133OSM   H15A14335   6.084   0.646   5.993  0.5964 -0.8953 -0.4607
  133OSM   H15B14336   5.936   0.672   5.900 -0.4528 -0.4160 -1.5129
  133OSM   H15C14337   6.093   0.659   5.817  1.9186  0.7471  1.9100
  133OSM    C1414338   5.934   0.439   5.769  0.2957  0.4666  0.8622
  133OSM   H14A14339   5.946   0.333   5.752  1.0877  0.5699  0.7533
  133OSM   H14B14340   5.954   0.498   5.681 -4.1700 -0.5641 -0.9748
  133OSM   H14C14341   5.829   0.452   5.791 -0.2251 -0.9754 -0.6396
  133OSM    C1314342   6.150   0.407   5.875  0.0730 -0.4207 -0.0110
  133OSM   H13A14343   6.194   0.409   5.776  2.1262 -1.6406  0.8563
  133OSM   H13B14344   6.132   0.302   5.894  1.5353 -0.7900 -0.5682
  133OSM   H13C14345   6.217   0.439   5.953  0.5944 -1.9093  0.1710
  133OSM    C1214346   5.953   0.425   6.010 -0.3161 -0.1629  0.2604
  133OSM   H12A14347   5.901   0.331   5.996 -0.1173 -0.0671 -1.2907
  133OSM   H12B14348   5.873   0.491   6.041  1.2891  1.3061  1.3680
  133OSM    C1114349   6.032   0.425   6.143  0.5140  0.4068 -0.6061
  133OSM   H11A14350   6.109   0.345   6.132 -0.1413 -0.3884  0.4738
  133OSM   H11B14351   5.961   0.384   6.218 -0.4094  1.5279 -0.8688
  133OSM      P14352   6.224   0.595   6.226  0.2338  0.2735 -0.2432
  133OSM    O1314353   6.310   0.474   6.220 -0.5877  0.0678  0.6694
  133OSM    O1414354   6.261   0.705   6.123  0.1948 -0.1087  0.8841
  133OSM    O1114355   6.216   0.666   6.365  0.1071  0.1040  0.6429
  133OSM    O1214356   6.075   0.548   6.199 -0.0092 -0.4812 -0.4215
  133OSM    C1S14357   6.148   0.595   6.467 -0.1079  0.7538  0.2960
  133OSM    H1S14358   6.191   0.493   6.479  3.3079  2.0035 -0.7662
  133OSM    H1T14359   6.039   0.582   6.454 -0.3792  1.4501  1.6787
  133OSM     NF14360   6.064   0.621   6.698  0.4601 -0.3531  0.0025
  133OSM    HNF14361   6.013   0.696   6.738  0.5448 -0.4494  0.2927
  133OSM    C2S14362   6.170   0.664   6.610 -0.2370 -0.1364 -0.1001
  133OSM    H2S14363   6.265   0.619   6.647 -0.3230  0.6892  1.1478
  133OSM    C3S14364   6.199   0.815   6.603  0.0743 -0.1859  0.1082
  133OSM    H3S14365   6.114   0.883   6.584  1.7482  2.4243  1.5887
  133OSM     O314366   6.293   0.863   6.509  0.2540  0.2785  0.0899
  133OSM    HO314367   6.270   0.808   6.434  0.2805  2.2983 -1.4399
  133OSM    C4S14368   6.254   0.861   6.733  0.0769  0.6066 -0.2600
  133OSM    H4S14369   6.356   0.828   6.757 -0.1254 -1.1659 -1.7034
  133OSM    C5S14370   6.206   0.961   6.809  0.3518 -0.7679 -0.5505
  133OSM    H5S14371   6.110   1.005   6.778 -0.0429 -1.1263  0.1339
  133OSM    C6S14372   6.274   1.019   6.927 -0.6380 -0.0583 -0.3093
  133OSM    H6S14373   6.331   1.111   6.902 -0.2589 -0.3932 -0.6897
  133OSM    H6T14374   6.354   0.956   6.971  0.5869  0.0362 -2.3467
  133OSM    C7S14375   6.159   1.052   7.027  0.3763 -0.2768 -0.0492
  133OSM    H7S14376   6.113   0.960   7.069 -0.6961  0.9828  1.6011
  133OSM    H7T14377   6.069   1.102   6.984 -1.3444 -1.3441  2.2018
  133OSM    C8S14378   6.209   1.119   7.156  0.1067 -0.3042 -0.5637
  133OSM    H8S14379   6.238   1.216   7.109 -1.4838  1.3328  1.7127
  133OSM    H8T14380   6.295   1.057   7.189  0.5035  1.4212  1.7851
  133OSM    C9S14381   6.099   1.126   7.266 -0.1769 -0.7064  0.2165
  133OSM    H9S14382   6.057   1.024   7.278 -1.2216 -0.5162 -1.6215
  133OSM    H9T14383   6.022   1.193   7.224  0.7549 -0.7483 -1.5991
  133OSM   C10S14384   6.148   1.161   7.408  0.5171 -0.2754 -0.2431
  133OSM   H10S14385   6.214   1.250   7.401  0.0479  0.1515  0.5943
  133OSM   H10T14386   6.200   1.070   7.444 -1.8994 -2.4764 -2.1378
  133OSM   C11S14387   6.030   1.199   7.499  0.6119  0.3668 -0.1893
  133OSM   H11S14388   5.962   1.111   7.489  0.9517  0.3168 -2.3569
  133OSM   H11T14389   5.983   1.294   7.465  1.6668  0.6286 -0.9197
  133OSM   C12S14390   6.079   1.218   7.639  0.4717  0.0925 -0.0437
  133OSM   H12S14391   6.142   1.309   7.643  0.3229  0.2059 -0.2725
  133OSM   H12T14392   6.135   1.128   7.672  2.3880  0.4434 -2.1978
  133OSM   C13S14393   5.961   1.241   7.738 -0.1218  0.1022  0.9320
  133OSM   H13S14394   5.886   1.159   7.729  1.1881 -1.0364  0.3049
  133OSM   H13T14395   5.913   1.338   7.713  1.3264  0.8641  1.1072
  133OSM   C14S14396   5.998   1.243   7.886  0.4334  0.3250  0.5529
  133OSM   H14S14397   6.039   1.142   7.909 -0.2735 -0.4899 -1.6333
  133OSM   H14T14398   5.907   1.255   7.948  0.3270 -2.6576  1.0509
  133OSM   C15S14399   6.117   1.341   7.918  0.0300  0.4962 -0.0253
  133OSM   H15S14400   6.086   1.439   7.877 -0.6719 -0.2336 -1.2895
  133OSM   H15T14401   6.209   1.316   7.861 -0.0108  0.9222 -0.2759
  133OSM   C16S14402   6.161   1.344   8.063  0.0863 -0.5302 -0.9843
  133OSM   H16S14403   6.080   1.386   8.126  0.2904  2.2842 -2.5262
  133OSM   H16T14404   6.241   1.419   8.077 -0.9764  0.7609 -1.6841
  133OSM   C17S14405   6.202   1.210   8.134 -0.3591 -0.4705  0.2998
  133OSM   H17S14406   6.296   1.183   8.081  1.9920  1.8316  3.0909
  133OSM   H17T14407   6.127   1.129   8.125  1.5874 -2.2171 -0.5425
  133OSM   C18S14408   6.244   1.229   8.280 -0.1996  0.4946  0.1193
  133OSM   H18S14409   6.288   1.132   8.310  1.3638  1.4211  0.8941
  133OSM   H18T14410   6.158   1.250   8.347 -0.0110 -1.8244  1.1306
  133OSM   H18U14411   6.322   1.308   8.287 -1.0013  1.2104  1.1820
  133OSM    C1F14412   6.034   0.494   6.731 -0.2472 -0.4304  0.2175
  133OSM     OF14413   6.086   0.403   6.674  0.4569 -0.3809  0.3703
  133OSM    C2F14414   5.925   0.475   6.838 -0.5725  0.4012 -0.6937
  133OSM    H2F14415   5.825   0.460   6.792  0.1172 -0.6271 -1.9317
  133OSM    H2G14416   5.943   0.557   6.910  0.2302 -1.6552  1.5144
  133OSM    C3F14417   5.951   0.350   6.926 -0.4297 -0.5052  0.2580
  133OSM    H3F14418   6.059   0.331   6.944  0.0077  2.8539  1.6076
  133OSM    H3G14419   5.902   0.265   6.874  2.2565 -1.4130 -0.8697
  133OSM    C4F14420   5.894   0.370   7.069  0.2155  0.5852  0.2374
  133OSM    H4F14421   5.792   0.413   7.070  0.1555  0.4592  1.7041
  133OSM    H4G14422   5.959   0.451   7.109 -0.1704  1.1056 -0.1899
  133OSM    C5F14423   5.919   0.249   7.165 -0.3484  0.2298  0.8019
  133OSM    H5F14424   6.029   0.240   7.172 -0.0987  1.0079 -1.6094
  133OSM    H5G14425   5.870   0.157   7.124 -1.4965 -0.3255  3.2993
  133OSM    C6F14426   5.861   0.280   7.304 -0.2142  0.3339  1.0206
  133OSM    H6F14427   5.751   0.289   7.304 -0.3835 -1.4851  1.4190
  133OSM    H6G14428   5.916   0.359   7.360  2.3011 -0.6860  0.0595
  133OSM    C7F14429   5.876   0.152   7.387 -0.4225  0.2377 -0.0751
  133OSM    H7F14430   5.981   0.117   7.381 -0.1343  0.9482  0.7176
  133OSM    H7G14431   5.827   0.059   7.352 -0.4943  0.0357  0.5670
  133OSM    C8F14432   5.817   0.166   7.533 -0.2043 -0.4612  0.7484
  133OSM    H8F14433   5.867   0.254   7.579 -1.3932  0.8322 -0.3639
  133OSM    H8G14434   5.858   0.075   7.582  4.1486  0.7589 -0.3777
  133OSM    C9F14435   5.667   0.172   7.549  0.8528 -0.3317  0.2470
  133OSM    H9F14436   5.620   0.087   7.499  0.2658  0.4112 -0.4786
  133OSM   C10F14437   5.597   0.280   7.598  0.0664 -0.2927 -0.3670
  133OSM   H10F14438   5.487   0.275   7.597 -0.0457  1.8226 -0.6384
  133OSM   C11F14439   5.665   0.404   7.649  0.1243 -0.0223 -0.5952
  133OSM   H11F14440   5.613   0.497   7.620 -0.1537  0.6479  1.9550
  133OSM   H11G14441   5.770   0.426   7.618  1.2508 -0.1399  2.8699
  133OSM   C12F14442   5.661   0.416   7.804 -0.3800  0.0832  1.0075
  133OSM   H12F14443   5.560   0.386   7.840 -0.6876 -0.2518 -0.1185
  133OSM   H12G14444   5.681   0.524   7.813 -1.8876  0.6915 -2.1447
  133OSM   C13F14445   5.761   0.340   7.884  0.2932 -0.0364  0.0854
  133OSM   H13F14446   5.855   0.314   7.831 -0.4480  1.1068 -1.8365
  133OSM   H13G14447   5.715   0.241   7.905  0.8924  0.0757  2.1019
  133OSM   C14F14448   5.797   0.399   8.018 -0.2590 -0.5353 -0.1596
  133OSM   H14F14449   5.857   0.490   7.999 -0.1548 -0.4364  0.6049
  133OSM   H14G14450   5.858   0.326   8.076 -1.9590 -2.0563 -0.2380
  133OSM   C15F14451   5.668   0.430   8.103 -0.5182  0.8241 -0.1393
  133OSM   H15F14452   5.603   0.341   8.092  0.2013  0.4693 -1.7056
  133OSM   H15G14453   5.612   0.507   8.045  0.8648 -0.1035 -2.7873
  133OSM   C16F14454   5.708   0.477   8.242  0.5228 -0.5956 -0.0076
  133OSM   H16F14455   5.756   0.577   8.241  0.8119 -0.6994  1.5888
  133OSM   H16G14456   5.779   0.402   8.285  0.5761  0.6611  2.1754
  133OSM   C17F14457   5.591   0.498   8.349  1.1288 -0.2598  0.1803
  133OSM   H17F14458   5.560   0.604   8.354 -1.8594 -1.0834 -0.0215
  133OSM   H17G14459   5.639   0.465   8.444 -3.0938 -2.1562  1.7723
  133OSM   C18F14460   5.468   0.416   8.334 -0.1841 -0.4176 -0.3900
  133OSM   H18F14461   5.423   0.431   8.233  0.1241 -3.0786 -0.9616
  133OSM   H18G14462   5.390   0.461   8.399 -0.3639  1.1610 -1.6742
  133OSM   H18H14463   5.466   0.307   8.355 -0.5068 -0.3537 -0.1006
  134OSM      N14464   0.172   4.303   6.495  0.1827 -0.3159  0.7907
  134OSM    C1514465   0.213   4.354   6.622  0.1867 -0.6211  0.2896
  134OSM   H15A14466   0.133   4.406   6.672 -0.9141 -2.3263  0.3457
  134OSM   H15B14467   0.289   4.431   6.623 -1.4938  1.0664  0.9713
  134OSM   H15C14468   0.249   4.277   6.689  1.1445 -0.0585  0.4353
  134OSM    C1414469   0.093   4.404   6.418 -0.2759 -1.0400 -0.2762
  134OSM   H14A14470   0.003   4.423   6.475  0.7537 -1.1247  1.4249
  134OSM   H14B14471   0.066   4.356   6.326 -0.4043 -3.7452  1.1174
  134OSM   H14C14472   0.134   4.502   6.401 -0.9671 -0.7312 -0.1841
  134OSM    C1314473   0.300   4.283   6.412  0.1398 -0.9906  0.5147
  134OSM   H13A14474   0.359   4.208   6.462 -1.1339 -1.9819  0.5292
  134OSM   H13B14475   0.351   4.378   6.402  0.2044 -1.0959 -0.1540
  134OSM   H13C14476   0.268   4.246   6.316  1.4658 -1.7851  0.3638
  134OSM    C1214477   0.097   4.175   6.498 -0.0209 -0.0109  0.3987
  134OSM   H12A14478   0.117   4.130   6.402  0.3618  1.9548 -0.4771
  134OSM   H12B14479  -0.007   4.197   6.512  0.0369 -0.3472  1.4011
  134OSM    C1114480   0.140   4.071   6.594 -0.0044 -0.3798  0.4264
  134OSM   H11A14481   0.064   3.990   6.607 -1.3361  1.0273  1.5684
  134OSM   H11B14482   0.153   4.116   6.694 -0.5290  0.9873 -0.1068
  134OSM      P14483   0.277   3.904   6.443 -0.0659 -0.2130  0.1653
  134OSM    O1314484   0.211   3.957   6.326  0.0996  0.2772 -0.0156
  134OSM    O1414485   0.418   3.857   6.432 -0.5831 -0.5472  0.5585
  134OSM    O1114486   0.194   3.782   6.505 -0.2699  0.4339  0.3670
  134OSM    O1214487   0.266   4.006   6.562  0.3800  0.2982  0.6296
  134OSM    C1S14488   0.237   3.735   6.633 -0.0707  0.4447  0.0647
  134OSM    H1S14489   0.167   3.783   6.705 -0.3327  0.0893  0.0479
  134OSM    H1T14490   0.338   3.757   6.676  0.7850  0.7550 -2.0523
  134OSM     NF14491   0.269   3.540   6.780  0.1197 -0.1919 -0.0848
  134OSM    HNF14492   0.365   3.522   6.797 -0.3047  0.6773  3.8735
  134OSM    C2S14493   0.226   3.586   6.649 -0.5365 -0.0664 -0.7148
  134OSM    H2S14494   0.118   3.556   6.648 -1.1587  1.9896  1.0577
  134OSM    C3S14495   0.294   3.516   6.527  0.6311  1.0207 -0.4334
  134OSM    H3S14496   0.402   3.542   6.529  0.9936 -0.4889  0.9843
  134OSM     O314497   0.250   3.558   6.402 -0.0363  0.0425 -0.2394
  134OSM    HO314498   0.228   3.646   6.434  0.6716  0.5450 -1.1088
  134OSM    C4S14499   0.271   3.362   6.533 -0.1490  0.2852 -0.1063
  134OSM    H4S14500   0.174   3.320   6.564 -0.4185  0.4034 -0.7853
  134OSM    C5S14501   0.373   3.270   6.517  0.5497  0.7819  0.3009
  134OSM    H5S14502   0.478   3.299   6.502  1.0036 -0.4284  1.0717
  134OSM    C6S14503   0.342   3.120   6.524  0.1275 -0.2241 -0.4798
  134OSM    H6S14504   0.375   3.073   6.429 -1.7772 -0.3005 -1.1184
  134OSM    H6T14505   0.232   3.103   6.529 -0.5759  2.7569 -3.4949
  134OSM    C7S14506   0.407   3.057   6.648 -0.1516 -0.3471  0.0930
  134OSM    H7S14507   0.517   3.073   6.653 -0.1553 -0.7211  1.9352
  134OSM    H7T14508   0.400   2.947   6.645 -0.5921 -0.3443  0.8535
  134OSM    C8S14509   0.354   3.106   6.780 -0.2362 -0.9495 -0.5504
  134OSM    H8S14510   0.248   3.075   6.770 -0.6495  0.3624 -0.3778
  134OSM    H8T14511   0.367   3.216   6.787 -0.3463 -0.8129 -2.1980
  134OSM    C9S14512   0.406   3.029   6.900  1.0364  0.1615 -0.1917
  134OSM    H9S14513   0.517   3.042   6.898  1.0184  0.6657  1.3971
  134OSM    H9T14514   0.369   2.924   6.893  1.0409  0.2781 -2.2041
  134OSM   C10S14515   0.331   3.057   7.029  0.2847 -0.0891  0.2755
  134OSM   H10S14516   0.222   3.050   7.010  0.4411  1.4231 -1.4211
  134OSM   H10T14517   0.352   3.166   7.042  2.8449 -0.2835 -1.7398
  134OSM   C11S14518   0.395   2.987   7.146  0.6956 -0.1777  0.4029
  134OSM   H11S14519   0.501   3.019   7.133  0.5870 -0.4466 -1.2790
  134OSM   H11T14520   0.382   2.878   7.132 -1.1948 -0.1928  2.1247
  134OSM   C12S14521   0.333   3.029   7.280  1.0709 -0.4663 -0.8056
  134OSM   H12S14522   0.228   2.996   7.294  0.6009  0.1750 -2.6390
  134OSM   H12T14523   0.331   3.140   7.290  1.7047 -0.5513  0.2269
  134OSM   C13S14524   0.418   2.970   7.398 -1.2141  0.2965 -0.2463
  134OSM   H13S14525   0.526   2.995   7.389 -1.3866  1.0823 -0.1470
  134OSM   H13T14526   0.416   2.859   7.404 -0.6630  0.4033  2.0764
  134OSM   C14S14527   0.367   3.026   7.542  0.4588  0.5015  0.6834
  134OSM   H14S14528   0.265   2.988   7.561  0.2138  0.6813 -0.2464
  134OSM   H14T14529   0.374   3.137   7.532  0.6368  0.1686 -4.0209
  134OSM   C15S14530   0.464   2.993   7.650  0.1133 -0.0437  0.2788
  134OSM   H15S14531   0.561   3.029   7.610 -0.1549 -1.4668 -1.7486
  134OSM   H15T14532   0.466   2.882   7.657 -1.4831 -0.2743 -2.2277
  134OSM   C16S14533   0.428   3.060   7.784  0.3082  0.3021 -0.0461
  134OSM   H16S14534   0.408   3.167   7.761 -0.1450  0.1755 -0.2685
  134OSM   H16T14535   0.506   3.058   7.863  0.1090 -1.6166  0.1206
  134OSM   C17S14536   0.305   3.002   7.853  0.0680 -0.0589 -0.3891
  134OSM   H17S14537   0.299   2.892   7.849 -2.0184 -0.3144  5.2581
  134OSM   H17T14538   0.211   3.039   7.805  1.0312 -1.5798 -3.5852
  134OSM   C18S14539   0.290   3.044   8.001  0.3112  0.4519  0.2401
  134OSM   H18S14540   0.369   3.017   8.074  0.4749 -0.0548 -0.1213
  134OSM   H18T14541   0.192   2.997   8.026  1.2791 -0.4514  2.5583
  134OSM   H18U14542   0.290   3.153   8.018 -2.1428  0.5173 -0.0156
  134OSM    C1F14543   0.191   3.549   6.881  0.1911 -0.1781  0.0754
  134OSM     OF14544   0.081   3.590   6.872  0.4271 -0.4393 -0.4209
  134OSM    C2F14545   0.261   3.523   7.012  0.4394  0.6343 -0.0219
  134OSM    H2F14546   0.361   3.572   7.013 -0.3580  2.3507  1.8216
  134OSM    H2G14547   0.282   3.415   7.019  1.4695  0.8115 -0.2887
  134OSM    C3F14548   0.199   3.577   7.143 -0.5682 -0.2299  0.0464
  134OSM    H3F14549   0.094   3.541   7.149 -0.5549 -0.5160 -1.3009
  134OSM    H3G14550   0.193   3.688   7.139 -0.3158 -0.1512  1.6324
  134OSM    C4F14551   0.280   3.548   7.271 -0.0495 -0.0021 -0.1854
  134OSM    H4F14552   0.383   3.586   7.258  0.1407 -0.3508  0.2817
  134OSM    H4G14553   0.287   3.438   7.288  2.0664  0.2813  0.9454
  134OSM    C5F14554   0.206   3.613   7.392 -0.0926  0.5696  0.0206
  134OSM    H5F14555   0.102   3.575   7.384  0.0946  0.3451 -1.5591
  134OSM    H5G14556   0.191   3.723   7.393 -1.2456  0.4103  1.7087
  134OSM    C6F14557   0.264   3.564   7.527 -0.1133  0.5480  0.1557
  134OSM    H6F14558   0.372   3.588   7.527 -0.0784  0.5823  2.7587
  134OSM    H6G14559   0.271   3.454   7.515  1.6355  0.5703  0.8010
  134OSM    C7F14560   0.188   3.585   7.658 -0.9119  0.1347  0.0957
  134OSM    H7F14561   0.222   3.505   7.727  1.4299  2.4286  1.6719
  134OSM    H7G14562   0.082   3.564   7.632 -0.9857 -0.9625  1.2239
  134OSM    C8F14563   0.221   3.716   7.724  0.0454  0.6774  0.1026
  134OSM    H8F14564   0.158   3.745   7.810 -0.9800 -1.7538  0.2247
  134OSM    H8G14565   0.217   3.791   7.642  1.4173  0.7230  0.0622
  134OSM    C9F14566   0.366   3.724   7.773  0.0270 -0.0287 -0.0681
  134OSM    H9F14567   0.439   3.718   7.691 -0.6770 -2.5242 -0.5737
  134OSM   C10F14568   0.416   3.726   7.900 -0.1905 -0.1082 -0.0268
  134OSM   H10F14569   0.518   3.758   7.924 -0.7130  0.9606  0.8241
  134OSM   C11F14570   0.317   3.734   8.015  0.0092 -0.8555 -0.0317
  134OSM   H11F14571   0.374   3.702   8.105  0.1924 -0.9402 -0.1796
  134OSM   H11G14572   0.226   3.670   8.008  0.0937 -0.8529 -1.1168
  134OSM   C12F14573   0.266   3.879   8.056  0.4512  0.3290  0.9873
  134OSM   H12F14574   0.223   3.940   7.973  2.6330  0.4103 -0.1263
  134OSM   H12G14575   0.352   3.937   8.096 -0.5581  2.5386  0.0434
  134OSM   C13F14576   0.149   3.865   8.161 -0.4046 -0.2541 -0.0306
  134OSM   H13F14577   0.064   3.814   8.112  0.9753  0.0539 -2.9009
  134OSM   H13G14578   0.105   3.967   8.165 -0.8918 -0.5304  1.6751
  134OSM   C14F14579   0.186   3.830   8.302 -0.7861 -0.1503 -0.2818
  134OSM   H14F14580   0.269   3.901   8.320 -1.9689  0.5549  2.6497
  134OSM   H14G14581   0.233   3.731   8.318  0.4809  0.8266  2.3002
  134OSM   C15F14582   0.070   3.830   8.405  0.0939 -0.6028 -0.6768
  134OSM   H15F14583   0.017   3.733   8.393 -1.2956  0.3372 -2.3921
  134OSM   H15G14584  -0.003   3.910   8.380  2.4425  1.6836 -0.3988
  134OSM   C16F14585   0.106   3.860   8.548 -0.1987 -0.9951  0.1209
  134OSM   H16F14586   0.172   3.776   8.579  1.0558  0.7133  2.2067
  134OSM   H16G14587   0.020   3.838   8.614 -1.6860  0.5771 -1.2497
  134OSM   C17F14588   0.167   4.003   8.566  0.0016  0.5188 -0.1313
  134OSM   H17F14589   0.262   3.997   8.510 -0.1895  1.3347 -0.5487
  134OSM   H17G14590   0.188   4.030   8.671  0.6576  0.3960 -0.2270
  134OSM   C18F14591   0.085   4.112   8.506  0.5011  0.0588  0.0641
  134OSM   H18F14592   0.113   4.210   8.550 -0.8772  1.2434 -1.6308
  134OSM   H18G14593  -0.015   4.107   8.553 -0.2801  1.7190 -1.3520
  134OSM   H18H14594   0.079   4.117   8.395  2.2511 -0.8495 -0.0830
  135OSM      N14595   6.768   3.744   6.155  0.6040  0.2821 -0.1849
  135OSM    C1514596   6.907   3.714   6.104  0.3513  0.0008  0.4446
  135OSM   H15A14597   6.932   3.609   6.108 -2.3908 -0.6509  1.0207
  135OSM   H15B14598   6.983   3.768   6.159  0.1773  0.9325 -0.2168
  135OSM   H15C14599   6.914   3.739   5.999  2.4291 -2.2492 -0.0148
  135OSM    C1414600   6.750   3.888   6.160  0.5190 -0.0291 -0.0472
  135OSM   H14A14601   6.762   3.937   6.065  1.9804  0.4935  0.3972
  135OSM   H14B14602   6.819   3.934   6.229 -0.3898  1.9563 -0.4002
  135OSM   H14C14603   6.650   3.910   6.197  0.0799 -2.3739  0.2001
  135OSM    C1314604   6.664   3.687   6.060 -0.6507 -0.1170 -0.1326
  135OSM   H13A14605   6.681   3.713   5.957 -0.1694 -0.3096 -0.1003
  135OSM   H13B14606   6.567   3.731   6.080  0.1850  0.9624  1.7409
  135OSM   H13C14607   6.663   3.580   6.072 -0.7413 -0.1047 -0.0348
  135OSM    C1214608   6.750   3.677   6.289 -0.0722 -0.0240  0.3016
  135OSM   H12A14609   6.837   3.707   6.346 -1.1976  1.5906  1.1983
  135OSM   H12B14610   6.763   3.571   6.274  0.0451 -0.0939  0.8716
  135OSM    C1114611   6.616   3.706   6.360 -0.0234 -0.5543 -0.9183
  135OSM   H11A14612   6.626   3.650   6.456  0.6124  3.7065  1.6079
  135OSM   H11B14613   6.528   3.674   6.301 -2.6676  1.7921  1.5758
  135OSM      P14614   6.475   3.895   6.475  0.6952 -0.0387  0.0297
  135OSM    O1314615   6.490   4.041   6.480  0.3101 -0.3052 -0.3522
  135OSM    O1414616   6.353   3.846   6.405  0.0855  0.3665  0.5522
  135OSM    O1114617   6.487   3.828   6.620  0.2671  0.3697 -0.2010
  135OSM    O1214618   6.606   3.844   6.399  0.2792  0.2465 -0.4449
  135OSM    C1S14619   6.604   3.871   6.690 -0.1444  0.3472 -0.3301
  135OSM    H1S14620   6.615   3.981   6.686 -1.6715  0.5200  0.1847
  135OSM    H1T14621   6.695   3.818   6.654  0.3880  0.3732  0.9640
  135OSM     NF14622   6.727   3.843   6.909  0.1858 -0.3743 -0.6040
  135OSM    HNF14623   6.780   3.758   6.905  0.8976  0.0756 -0.7353
  135OSM    C2S14624   6.601   3.827   6.844  0.3773  0.4917  0.1723
  135OSM    H2S14625   6.531   3.895   6.897 -1.2787 -0.8606 -0.2295
  135OSM    C3S14626   6.544   3.684   6.865  0.2277 -0.2576  0.0107
  135OSM    H3S14627   6.620   3.619   6.815  1.0857  1.7175 -1.3024
  135OSM     O314628   6.416   3.664   6.793  0.3886 -0.2378  0.1559
  135OSM    HO314629   6.418   3.731   6.724  3.0225 -0.6888 -0.2584
  135OSM    C4S14630   6.522   3.662   7.016  0.4769 -0.1415  0.5070
  135OSM    H4S14631   6.610   3.652   7.081 -1.3780  0.4939  3.1991
  135OSM    C5S14632   6.401   3.663   7.074  0.3438 -0.1242 -0.4050
  135OSM    H5S14633   6.313   3.707   7.025  1.7819  3.7047  0.2469
  135OSM    C6S14634   6.382   3.644   7.219 -0.1051 -0.0286 -0.2824
  135OSM    H6S14635   6.357   3.537   7.236  2.2998 -0.3586  1.3865
  135OSM    H6T14636   6.299   3.707   7.258 -0.6322 -1.6265  1.2567
  135OSM    C7S14637   6.487   3.700   7.313 -0.1150  0.5179 -0.6015
  135OSM    H7S14638   6.510   3.808   7.302 -0.7053  0.6376 -0.6739
  135OSM    H7T14639   6.592   3.670   7.291 -0.9584 -2.3857 -0.9147
  135OSM    C8S14640   6.446   3.678   7.464 -0.4571  0.4129 -0.0308
  135OSM    H8S14641   6.437   3.567   7.463  3.1441  0.0678 -1.0019
  135OSM    H8T14642   6.347   3.719   7.492 -0.1704  0.3984  1.0243
  135OSM    C9S14643   6.562   3.710   7.567  0.5556  0.2747  0.3320
  135OSM    H9S14644   6.568   3.818   7.590 -0.2031  0.2518  0.6770
  135OSM    H9T14645   6.654   3.678   7.513  0.0640  0.0635 -0.3977
  135OSM   C10S14646   6.540   3.623   7.694 -0.2040  0.6953 -0.1159
  135OSM   H10S14647   6.587   3.523   7.690  0.8204  1.2157 -1.6482
  135OSM   H10T14648   6.434   3.612   7.725 -0.1179  1.1439  0.3412
  135OSM   C11S14649   6.604   3.687   7.816  0.7576 -0.4686  0.3325
  135OSM   H11S14650   6.704   3.728   7.790 -0.1559  0.3026 -2.1547
  135OSM   H11T14651   6.608   3.604   7.890  0.3393 -3.4889 -2.9071
  135OSM   C12S14652   6.522   3.803   7.870 -0.1977 -0.3198  0.0973
  135OSM   H12S14653   6.413   3.782   7.871 -0.0187 -1.2222  1.2538
  135OSM   H12T14654   6.537   3.888   7.800  0.7595 -3.1821 -3.3673
  135OSM   C13S14655   6.555   3.841   8.014  0.7511  0.2359  0.5128
  135OSM   H13S14656   6.659   3.879   8.011  2.5118 -4.1927  1.3287
  135OSM   H13T14657   6.534   3.758   8.085 -0.3917  2.2661  2.6049
  135OSM   C14S14658   6.470   3.958   8.056  0.2177  0.9192  0.3442
  135OSM   H14S14659   6.367   3.918   8.067 -0.1986  2.0009  0.5077
  135OSM   H14T14660   6.466   4.035   7.975  0.0286  1.3974  0.8067
  135OSM   C15S14661   6.505   4.015   8.195 -0.1745 -0.3625 -0.6822
  135OSM   H15S14662   6.466   4.118   8.201 -1.4907 -0.8412 -0.9945
  135OSM   H15T14663   6.615   4.019   8.211 -0.2590  1.1777 -0.4415
  135OSM   C16S14664   6.433   3.961   8.321 -0.3515 -0.1873 -0.7321
  135OSM   H16S14665   6.478   3.998   8.416 -1.7658 -1.1393  0.3305
  135OSM   H16T14666   6.439   3.850   8.317  0.3859 -0.1518 -0.7491
  135OSM   C17S14667   6.294   4.004   8.344 -0.0502 -0.0561 -0.1967
  135OSM   H17S14668   6.241   3.992   8.248  0.4323 -0.1674 -0.4481
  135OSM   H17T14669   6.285   4.112   8.371  1.3330 -0.0054  0.1217
  135OSM   C18S14670   6.223   3.906   8.441 -0.0706 -0.6637  0.2343
  135OSM   H18S14671   6.210   3.806   8.394 -0.5981 -0.3622 -0.2810
  135OSM   H18T14672   6.119   3.943   8.454 -0.4790 -1.3918 -0.8642
  135OSM   H18U14673   6.264   3.897   8.543  1.1991 -0.1118 -0.2228
  135OSM    C1F14674   6.789   3.960   6.916 -0.2277  0.4487  0.2329
  135OSM     OF14675   6.725   4.070   6.904 -0.3159  0.2981 -0.1554
  135OSM    C2F14676   6.932   3.963   6.959  0.1861 -0.3498 -0.3350
  135OSM    H2F14677   6.989   3.993   6.869  0.6757 -0.2016  0.0207
  135OSM    H2G14678   6.958   3.858   6.986 -1.3068 -0.6580 -0.0535
  135OSM    C3F14679   6.953   4.061   7.079 -0.1484 -0.4657  0.5696
  135OSM    H3F14680   6.916   4.164   7.062 -1.1777 -1.1091 -1.2090
  135OSM    H3G14681   7.064   4.055   7.084 -0.0500  1.1399  0.5218
  135OSM    C4F14682   6.903   4.012   7.217 -0.3854  0.5113  0.2013
  135OSM    H4F14683   6.945   3.910   7.231  2.0148  1.4907  0.4092
  135OSM    H4G14684   6.793   3.998   7.226 -0.1497 -0.5453  1.6317
  135OSM    C5F14685   6.962   4.097   7.329  0.0288 -0.7008 -1.0405
  135OSM    H5F14686   6.914   4.198   7.327  1.1957 -0.0420  1.5135
  135OSM    H5G14687   7.070   4.117   7.314  0.8516 -2.0449  2.5382
  135OSM    C6F14688   6.928   4.038   7.470 -0.7476  0.2553 -0.4233
  135OSM    H6F14689   6.959   3.932   7.482  1.2449  0.9165  0.6111
  135OSM    H6G14690   6.820   4.039   7.496 -0.3462  2.6300  1.4740
  135OSM    C7F14691   7.001   4.119   7.574 -0.6385 -0.0508  0.5448
  135OSM    H7F14692   6.983   4.227   7.559 -0.2951  0.2710  2.2717
  135OSM    H7G14693   7.110   4.110   7.556 -0.7972  0.7021 -0.8214
  135OSM    C8F14694   6.991   4.086   7.726  0.9086  0.1444 -0.4608
  135OSM    H8F14695   7.076   4.135   7.778  0.9357  0.6589 -0.9783
  135OSM    H8G14696   6.993   3.977   7.748  0.1264  0.1418 -0.4212
  135OSM    C9F14697   6.861   4.141   7.780 -0.6184 -0.3318 -0.4220
  135OSM    H9F14698   6.774   4.132   7.713  1.4437 -1.9573 -2.9700
  135OSM   C10F14699   6.839   4.217   7.890 -0.9674  0.2799  0.1366
  135OSM   H10F14700   6.736   4.254   7.897 -0.7091  1.4015 -1.5765
  135OSM   C11F14701   6.937   4.264   7.995  0.2797 -0.2310  0.5721
  135OSM   H11F14702   7.038   4.273   7.951 -0.5723 -2.3763 -1.9646
  135OSM   H11G14703   6.933   4.183   8.072  1.9797 -1.1357 -0.2654
  135OSM   C12F14704   6.896   4.405   8.064 -0.5421  0.0483  0.3395
  135OSM   H12F14705   6.879   4.489   7.993  1.6989 -0.2479 -0.5964
  135OSM   H12G14706   6.974   4.427   8.140  0.9466 -0.7397 -0.9280
  135OSM   C13F14707   6.776   4.390   8.162  0.0741 -0.0690  0.4010
  135OSM   H13F14708   6.786   4.301   8.229  0.8056  0.3941  0.9093
  135OSM   H13G14709   6.683   4.384   8.101  1.4645 -1.5795 -1.6093
  135OSM   C14F14710   6.760   4.516   8.247 -0.2343  0.0180  0.5778
  135OSM   H14F14711   6.659   4.520   8.295  0.8157  4.0647  2.6961
  135OSM   H14G14712   6.760   4.608   8.184 -0.7681  0.1600  0.7819
  135OSM   C15F14713   6.863   4.526   8.360  0.1542  0.9505  0.6773
  135OSM   H15F14714   6.955   4.574   8.320 -1.0762  1.8668 -1.1384
  135OSM   H15G14715   6.873   4.428   8.411  0.0760 -0.8326 -2.5716
  135OSM   C16F14716   6.821   4.622   8.466 -0.1608 -0.6199 -0.0124
  135OSM   H16F14717   6.876   4.612   8.562  1.4271 -0.7030 -0.9072
  135OSM   H16G14718   6.714   4.602   8.491 -0.3866  0.9496  0.2973
  135OSM   C17F14719   6.833   4.763   8.420 -0.2072  0.1155 -0.3253
  135OSM   H17F14720   6.787   4.776   8.319 -1.5480  1.2790  0.4052
  135OSM   H17G14721   6.940   4.794   8.419 -0.3196  0.4875 -2.1638
  135OSM   C18F14722   6.770   4.864   8.512  0.5394  0.9426  0.0853
  135OSM   H18F14723   6.818   4.964   8.501  3.1091 -0.5893 -3.4271
  135OSM   H18G14724   6.786   4.836   8.619  0.3094  0.1280 -0.0944
  135OSM   H18H14725   6.662   4.886   8.506  0.2260 -0.0393  1.6949
  136OSM      N14726   5.227   5.327   5.751 -0.0989 -0.0608 -0.2601
  136OSM    C1514727   5.292   5.278   5.623 -0.8235  0.2341 -0.5272
  136OSM   H15A14728   5.291   5.170   5.629  2.1345  0.2361  0.6844
  136OSM   H15B14729   5.396   5.306   5.621 -0.9249  0.7224  0.5033
  136OSM   H15C14730   5.255   5.315   5.529 -2.3540 -1.7627 -0.7406
  136OSM    C1414731   5.233   5.471   5.758  0.2797 -0.0123 -0.0389
  136OSM   H14A14732   5.327   5.507   5.720  0.4308  2.9948  2.9422
  136OSM   H14B14733   5.226   5.519   5.854  0.3954  0.9726 -0.5087
  136OSM   H14C14734   5.163   5.520   5.691  0.4363  0.0809 -0.1340
  136OSM    C1314735   5.080   5.290   5.741 -0.2483  0.2969 -0.0263
  136OSM   H13A14736   5.055   5.185   5.730 -1.2672  0.6253 -0.8743
  136OSM   H13B14737   5.042   5.346   5.657  0.0169 -1.2973 -1.2430
  136OSM   H13C14738   5.024   5.325   5.826 -1.3246  0.3368 -0.7332
  136OSM    C1214739   5.300   5.263   5.871 -0.0929  0.0540  0.1858
  136OSM   H12A14740   5.406   5.285   5.874  0.5366 -2.8163  0.6005
  136OSM   H12B14741   5.285   5.157   5.853 -2.5084  0.4933 -0.5354
  136OSM    C1114742   5.248   5.293   6.013  0.1961 -0.0430  0.6248
  136OSM   H11A14743   5.261   5.402   6.028  2.6822 -0.1397 -0.5692
  136OSM   H11B14744   5.310   5.245   6.091  1.3628 -0.3476 -0.4664
  136OSM      P14745   5.051   5.118   6.063 -0.3058 -0.0341  0.3908
  136OSM    O1314746   4.907   5.134   6.057  0.5179  0.4049  0.2349
  136OSM    O1414747   5.118   5.020   5.969 -0.1548 -0.2540 -0.0959
  136OSM    O1114748   5.092   5.109   6.207  0.1214 -0.3003  0.2666
  136OSM    O1214749   5.113   5.255   6.025  0.9248  0.2128  0.0961
  136OSM    C1S14750   5.163   4.991   6.253  0.0324  0.4984 -0.4503
  136OSM    H1S14751   5.269   4.987   6.219  0.8256  2.8813  1.5605
  136OSM    H1T14752   5.104   4.898   6.240  0.8007  0.0421 -0.6985
  136OSM     NF14753   5.277   4.917   6.454  0.0305  0.3159 -0.3070
  136OSM    HNF14754   5.243   4.823   6.463 -0.4522  0.6322  1.5116
  136OSM    C2S14755   5.178   5.010   6.413 -0.4497  0.0625  0.3953
  136OSM    H2S14756   5.216   5.114   6.423 -0.4383  0.1046 -0.0466
  136OSM    C3S14757   5.034   4.993   6.483 -0.3081  0.7034 -1.2474
  136OSM    H3S14758   4.999   4.888   6.475  2.0479 -0.3029  0.8309
  136OSM     O314759   4.923   5.069   6.430  0.3514 -0.5620 -0.0567
  136OSM    HO314760   4.945   5.092   6.340 -1.4840 -1.6217 -0.7966
  136OSM    C4S14761   5.056   5.031   6.626 -0.4503  0.3516  0.3277
  136OSM    H4S14762   5.050   5.139   6.646 -1.3581  0.8098 -2.2455
  136OSM    C5S14763   5.077   4.935   6.717  0.2459  0.4422 -0.2781
  136OSM    H5S14764   5.079   4.828   6.694  0.3291 -0.1714  2.3857
  136OSM    C6S14765   5.108   4.965   6.858  0.2098  0.6733  0.1473
  136OSM    H6S14766   5.198   4.910   6.895  1.4025  0.8899 -2.3435
  136OSM    H6T14767   5.022   4.947   6.927 -0.1541  0.5533 -0.3345
  136OSM    C7S14768   5.158   5.114   6.879 -0.2256 -0.3350 -0.3441
  136OSM    H7S14769   5.068   5.179   6.867  0.8367  1.0128 -1.0931
  136OSM    H7T14770   5.232   5.141   6.801 -0.8290 -3.4330 -2.0596
  136OSM    C8S14771   5.206   5.138   7.017 -0.8026  0.1624  0.5118
  136OSM    H8S14772   5.314   5.123   7.035 -1.1538 -0.0195  2.6172
  136OSM    H8T14773   5.165   5.064   7.088  0.3357 -1.5127 -0.5412
  136OSM    C9S14774   5.178   5.282   7.058 -0.3377 -0.0616 -0.5558
  136OSM    H9S14775   5.068   5.296   7.046  0.0229  1.4368 -2.2903
  136OSM    H9T14776   5.223   5.350   6.983  0.0624  0.4522  0.1460
  136OSM   C10S14777   5.218   5.327   7.199  0.1390 -0.3712  0.5231
  136OSM   H10S14778   5.174   5.428   7.213 -0.7887 -0.7117  0.1514
  136OSM   H10T14779   5.328   5.337   7.195 -0.1011  1.8960 -1.3730
  136OSM   C11S14780   5.202   5.243   7.323  0.4631  0.3595  0.1182
  136OSM   H11S14781   5.266   5.153   7.337 -0.2967 -0.0482  0.9787
  136OSM   H11T14782   5.096   5.213   7.309 -0.2524  2.9415 -0.2399
  136OSM   C12S14783   5.216   5.333   7.451  0.1579  0.6858 -0.1627
  136OSM   H12S14784   5.145   5.417   7.433  0.1701  0.4051 -1.5959
  136OSM   H12T14785   5.320   5.369   7.463 -0.1617  1.4534  0.3195
  136OSM   C13S14786   5.177   5.259   7.579 -0.5051 -0.1878  0.5377
  136OSM   H13S14787   5.244   5.171   7.583  0.7544  0.5690 -2.2227
  136OSM   H13T14788   5.076   5.214   7.565 -1.2854  1.5842  0.2659
  136OSM   C14S14789   5.178   5.366   7.696  0.3637 -0.4888 -0.4501
  136OSM   H14S14790   5.163   5.470   7.660  0.1132 -0.8515 -1.4066
  136OSM   H14T14791   5.280   5.353   7.738  1.7387  0.0401 -3.4788
  136OSM   C15S14792   5.076   5.349   7.809  0.5161  0.1253  0.1037
  136OSM   H15S14793   5.079   5.244   7.842  0.6213 -0.1170 -0.6704
  136OSM   H15T14794   4.970   5.358   7.776  0.9472  0.0918 -1.3518
  136OSM   C16S14795   5.093   5.450   7.929 -0.1883 -0.1114  0.1637
  136OSM   H16S14796   5.079   5.553   7.890  2.4681  0.6975  1.3064
  136OSM   H16T14797   5.196   5.435   7.966 -0.4539 -2.0846  0.1705
  136OSM   C17S14798   4.989   5.423   8.043 -0.0827  0.0546  0.6185
  136OSM   H17S14799   4.891   5.426   7.990 -0.1332  0.8818  0.7502
  136OSM   H17T14800   4.999   5.498   8.125  2.1097 -1.0453  1.3821
  136OSM   C18S14801   5.009   5.292   8.112  0.6686  0.2138  0.2115
  136OSM   H18S14802   4.944   5.270   8.200  1.2226  0.5775  0.7103
  136OSM   H18T14803   5.115   5.286   8.142  0.9433  1.5530 -0.4200
  136OSM   H18U14804   4.985   5.218   8.032 -0.4266  0.4375  0.3212
  136OSM    C1F14805   5.405   4.938   6.447 -0.9417  0.0606  0.0968
  136OSM     OF14806   5.443   5.042   6.394 -0.1194 -0.8505 -0.0654
  136OSM    C2F14807   5.508   4.835   6.485 -0.3454 -0.3517 -0.1459
  136OSM    H2F14808   5.570   4.792   6.404  0.9783 -0.3094  0.8331
  136OSM    H2G14809   5.462   4.738   6.512 -0.5381  0.0646  1.0393
  136OSM    C3F14810   5.599   4.871   6.607  0.8083 -0.7017  0.0876
  136OSM    H3F14811   5.668   4.958   6.599  1.4889 -1.2658 -0.2575
  136OSM    H3G14812   5.661   4.781   6.627 -0.2756 -1.4762 -0.0521
  136OSM    C4F14813   5.514   4.903   6.732  0.5240 -0.5729  0.6225
  136OSM    H4F14814   5.422   4.841   6.724 -0.5713  1.1292 -0.2518
  136OSM    H4G14815   5.473   5.006   6.730 -1.2293 -1.2737 -1.7293
  136OSM    C5F14816   5.601   4.880   6.850 -0.7233 -0.1932  0.1688
  136OSM    H5F14817   5.708   4.891   6.820 -0.3510 -0.0378  1.5298
  136OSM    H5G14818   5.594   4.772   6.876 -2.5413 -0.2578 -0.5230
  136OSM    C6F14819   5.573   4.973   6.964  0.0537 -0.0840 -0.2884
  136OSM    H6F14820   5.463   4.971   6.979 -0.0131 -0.6155 -0.7986
  136OSM    H6G14821   5.592   5.077   6.929 -0.9218 -0.2831 -1.4437
  136OSM    C7F14822   5.653   4.952   7.092 -0.3580 -0.3427 -0.9922
  136OSM    H7F14823   5.751   4.914   7.057 -1.0351 -0.5768 -2.6643
  136OSM    H7G14824   5.623   4.880   7.171 -1.0220  1.0019 -0.0025
  136OSM    C8F14825   5.683   5.089   7.152 -0.2403  0.1850 -0.1194
  136OSM    H8F14826   5.717   5.160   7.074  0.2172  1.4950  1.2385
  136OSM    H8G14827   5.765   5.072   7.225  0.4872 -0.4635 -1.0702
  136OSM    C9F14828   5.570   5.150   7.229  0.2041 -0.2520  0.6040
  136OSM    H9F14829   5.473   5.153   7.179  0.4338  1.1078  0.2303
  136OSM   C10F14830   5.582   5.180   7.357 -0.8664  0.5969  0.3806
  136OSM   H10F14831   5.498   5.227   7.410 -1.4732 -0.7865  0.6761
  136OSM   C11F14832   5.697   5.164   7.451 -0.6061  0.0059  0.0357
  136OSM   H11F14833   5.764   5.252   7.441  0.4048 -0.6471  0.8623
  136OSM   H11G14834   5.757   5.076   7.419 -0.9730 -0.6580  1.1604
  136OSM   C12F14835   5.642   5.141   7.597 -0.0312 -0.7404  0.6445
  136OSM   H12F14836   5.724   5.118   7.668 -0.4053 -2.3374  0.5771
  136OSM   H12G14837   5.572   5.056   7.609 -0.7789  0.2000  3.0586
  136OSM   C13F14838   5.560   5.256   7.653 -0.7750  0.2800  0.2435
  136OSM   H13F14839   5.458   5.271   7.612 -0.0161 -1.0759 -2.2799
  136OSM   H13G14840   5.617   5.347   7.627  0.9216 -0.7115  0.3784
  136OSM   C14F14841   5.529   5.252   7.799 -0.3527 -0.3423 -0.1410
  136OSM   H14F14842   5.487   5.348   7.837  2.1764  1.1723 -1.0363
  136OSM   H14G14843   5.623   5.229   7.853  0.3120 -1.2695 -1.6849
  136OSM   C15F14844   5.428   5.142   7.840  0.6787  0.2662 -0.3572
  136OSM   H15F14845   5.475   5.044   7.819  1.9812  0.5271  1.1874
  136OSM   H15G14846   5.336   5.160   7.781  0.8777  1.5687 -0.2852
  136OSM   C16F14847   5.399   5.138   7.994 -0.6040  0.3950 -0.2806
  136OSM   H16F14848   5.374   5.239   8.034 -1.2943 -0.4142  1.3762
  136OSM   H16G14849   5.496   5.115   8.044  0.7860  0.7842 -2.7325
  136OSM   C17F14850   5.305   5.027   8.040  1.1541  0.1011  0.3831
  136OSM   H17F14851   5.328   4.932   7.989 -1.1160  0.2077 -0.8877
  136OSM   H17G14852   5.204   5.051   8.003 -0.3153 -1.5175  3.1629
  136OSM   C18F14853   5.296   5.006   8.190 -0.0569 -0.0419 -0.3045
  136OSM   H18F14854   5.280   4.901   8.223  1.1278 -0.0656  0.2195
  136OSM   H18G14855   5.230   5.082   8.237 -0.3791 -0.8240  0.5206
  136OSM   H18H14856   5.399   5.025   8.226 -0.2563 -2.2345  1.5268
  137OSM      N14857   1.442   3.201   6.336  0.3620  0.4721 -0.2079
  137OSM    C1514858   1.501   3.134   6.217 -0.0584  0.0478  0.4151
  137OSM   H15A14859   1.513   3.205   6.137 -1.0633 -0.3818 -0.1312
  137OSM   H15B14860   1.435   3.058   6.175 -2.5462  2.2862  0.1396
  137OSM   H15C14861   1.589   3.076   6.239 -1.2128 -1.1896  1.9066
  137OSM    C1414862   1.545   3.298   6.385 -0.4258  0.5393 -0.9147
  137OSM   H14A14863   1.569   3.370   6.309 -0.8649  1.2986 -0.3397
  137OSM   H14B14864   1.640   3.250   6.404 -0.0572  0.4112 -2.9832
  137OSM   H14C14865   1.508   3.357   6.468  0.6422  0.5612 -0.4461
  137OSM    C1314866   1.326   3.287   6.289  0.1066  0.3173 -0.0826
  137OSM   H13A14867   1.357   3.345   6.204  2.1326 -1.9811 -0.9685
  137OSM   H13B14868   1.292   3.353   6.368 -2.7900 -0.8640 -0.2896
  137OSM   H13C14869   1.247   3.219   6.260 -1.5124  1.1604  2.2419
  137OSM    C1214870   1.405   3.093   6.434 -0.1516 -0.6334 -0.3463
  137OSM   H12A14871   1.357   3.145   6.516  0.6497  0.2379 -0.4157
  137OSM   H12B14872   1.494   3.052   6.480  0.8854  1.1230 -0.7296
  137OSM    C1114873   1.328   2.975   6.383  0.8731 -0.1729 -0.7009
  137OSM   H11A14874   1.261   3.023   6.308  1.2251  0.8858 -0.3473
  137OSM   H11B14875   1.269   2.931   6.466 -2.5746  0.3358 -2.7977
  137OSM      P14876   1.500   2.782   6.425 -0.2288  0.0665  0.0351
  137OSM    O1314877   1.551   2.679   6.338 -0.6442  0.3771 -0.0077
  137OSM    O1414878   1.591   2.874   6.492  0.0820  0.3732 -0.2461
  137OSM    O1114879   1.412   2.722   6.544 -0.1774  0.0947 -0.1011
  137OSM    O1214880   1.406   2.872   6.329 -0.3000  0.4749  0.1556
  137OSM    C1S14881   1.440   2.776   6.674 -0.7629  0.1705  0.2201
  137OSM    H1S14882   1.434   2.887   6.671 -2.1074  0.1892  2.2748
  137OSM    H1T14883   1.542   2.749   6.709 -0.8520  0.8509  1.0099
  137OSM     NF14884   1.324   2.814   6.887  0.0468 -0.2518 -0.1210
  137OSM    HNF14885   1.382   2.781   6.961 -0.3570 -1.1717 -0.2110
  137OSM    C2S14886   1.321   2.726   6.769 -0.0091  0.0183 -0.3830
  137OSM    H2S14887   1.224   2.735   6.715 -0.9083  0.4869  1.2528
  137OSM    C3S14888   1.348   2.576   6.791  0.2714  0.0143 -1.1251
  137OSM    H3S14889   1.447   2.568   6.842  1.7419  1.3705 -3.6570
  137OSM     O314890   1.372   2.502   6.669  0.0451  0.0165  0.6497
  137OSM    HO314891   1.390   2.567   6.601 -1.1014 -0.8451 -0.5049
  137OSM    C4S14892   1.250   2.504   6.886  0.0157 -0.4906  0.7222
  137OSM    H4S14893   1.277   2.508   6.992  1.4826  2.1862  0.2727
  137OSM    C5S14894   1.146   2.428   6.839 -0.1728 -0.1966  0.2778
  137OSM    H5S14895   1.121   2.433   6.732 -2.0807 -1.1443  0.6689
  137OSM    C6S14896   1.058   2.346   6.930  0.2042  0.8846  0.4501
  137OSM    H6S14897   1.079   2.240   6.903  2.1549  1.3876 -0.0881
  137OSM    H6T14898   0.949   2.361   6.912  0.0223 -2.3965 -1.6471
  137OSM    C7S14899   1.069   2.369   7.077  0.3535 -0.5200  0.7327
  137OSM    H7S14900   1.044   2.476   7.097  1.8370  0.0957 -0.5842
  137OSM    H7T14901   1.174   2.346   7.105  1.4797  3.3154  0.0168
  137OSM    C8S14902   0.975   2.285   7.165 -0.6343  0.3859 -0.0892
  137OSM    H8S14903   1.011   2.181   7.150 -0.8369  0.2357  0.4937
  137OSM    H8T14904   0.872   2.289   7.124 -1.4349 -1.5762  1.6706
  137OSM    C9S14905   0.967   2.344   7.307  0.9248  0.5723 -0.2274
  137OSM    H9S14906   0.912   2.267   7.366  1.2009 -0.6421 -1.5287
  137OSM    H9T14907   0.916   2.443   7.307  0.2482  0.2688  2.4941
  137OSM   C10S14908   1.105   2.358   7.369  0.1225  0.9597 -0.0004
  137OSM   H10S14909   1.140   2.459   7.337  1.0276  0.1855 -1.4915
  137OSM   H10T14910   1.166   2.280   7.319  1.3362  0.3718  2.3012
  137OSM   C11S14911   1.107   2.343   7.518  0.1769  0.1987  0.1397
  137OSM   H11S14912   1.215   2.341   7.547  0.1640  0.5790  0.2255
  137OSM   H11T14913   1.060   2.247   7.545  2.2165 -0.4242  1.6254
  137OSM   C12S14914   1.025   2.447   7.593 -0.4526  0.2788  0.9392
  137OSM   H12S14915   0.926   2.464   7.546 -0.2673  0.7414  0.7091
  137OSM   H12T14916   1.069   2.548   7.602 -1.9340  0.7337  3.6302
  137OSM   C13S14917   0.997   2.408   7.740  0.2611  0.6373 -0.2900
  137OSM   H13S14918   0.929   2.321   7.752 -1.2040  1.8916  0.6793
  137OSM   H13T14919   0.948   2.498   7.782 -0.9022  0.1197 -0.5129
  137OSM   C14S14920   1.123   2.409   7.828  0.7350  0.1210 -0.3014
  137OSM   H14S14921   1.150   2.508   7.871  0.7593  0.1877 -0.4740
  137OSM   H14T14922   1.212   2.371   7.775 -0.4523 -0.1571 -2.1157
  137OSM   C15S14923   1.099   2.328   7.959  0.2100  0.0448  0.6034
  137OSM   H15S14924   1.070   2.222   7.943 -2.5767  0.6221  1.4752
  137OSM   H15T14925   1.006   2.378   7.996  0.3046  0.1675  0.6763
  137OSM   C16S14926   1.216   2.331   8.060  1.8185 -0.0791 -0.7427
  137OSM   H16S14927   1.215   2.437   8.091 -1.5683  0.2204 -1.6574
  137OSM   H16T14928   1.306   2.304   8.000  1.5428 -0.7786 -0.8482
  137OSM   C17S14929   1.187   2.238   8.176  0.6598  0.4949 -0.0656
  137OSM   H17S14930   1.258   2.257   8.260 -0.0834 -1.3859  0.9960
  137OSM   H17T14931   1.199   2.134   8.139  0.0765  0.2237  0.5172
  137OSM   C18S14932   1.048   2.254   8.241 -0.0511 -0.9872 -1.3100
  137OSM   H18S14933   1.023   2.361   8.258  2.3152 -0.1947 -2.6424
  137OSM   H18T14934   1.038   2.200   8.338  0.5407  1.1467 -0.0125
  137OSM   H18U14935   0.971   2.212   8.173 -1.2228 -0.4243 -0.3486
  137OSM    C1F14936   1.285   2.941   6.900  0.4828  0.9773  0.7261
  137OSM     OF14937   1.213   2.995   6.817  0.1282 -0.0649 -0.5705
  137OSM    C2F14938   1.324   2.999   7.031  0.3119 -0.3069 -0.5143
  137OSM    H2F14939   1.405   3.072   7.008  0.9068 -1.1813 -1.1966
  137OSM    H2G14940   1.374   2.925   7.097 -0.8430 -1.1639 -0.5915
  137OSM    C3F14941   1.207   3.085   7.093  0.7354 -0.9775  0.3967
  137OSM    H3F14942   1.117   3.020   7.095 -0.7236  0.9416 -0.1881
  137OSM    H3G14943   1.192   3.166   7.018 -1.3228 -1.1501  0.5773
  137OSM    C4F14944   1.232   3.141   7.234  0.2771  0.9246 -0.7279
  137OSM    H4F14945   1.330   3.190   7.217 -0.1965  0.8739 -3.7879
  137OSM    H4G14946   1.257   3.068   7.315 -1.0616  0.4660 -0.7082
  137OSM    C5F14947   1.127   3.231   7.291 -0.4798 -0.3874 -0.0549
  137OSM    H5F14948   1.030   3.178   7.295  0.7809 -2.7050  0.5301
  137OSM    H5G14949   1.110   3.325   7.234 -1.5585 -0.0144  0.8585
  137OSM    C6F14950   1.155   3.280   7.431  0.4834 -0.4830  0.8299
  137OSM    H6F14951   1.087   3.365   7.455 -0.8547 -0.8962 -1.3938
  137OSM    H6G14952   1.257   3.324   7.441 -0.7666  2.3941  1.5960
  137OSM    C7F14953   1.114   3.185   7.546 -0.0151 -0.2952  0.5917
  137OSM    H7F14954   1.180   3.095   7.547  0.7659  0.2551 -0.1981
  137OSM    H7G14955   1.009   3.150   7.535 -0.5448  1.7638 -1.0738
  137OSM    C8F14956   1.126   3.264   7.684 -0.0613 -0.4453  0.2213
  137OSM    H8F14957   1.038   3.333   7.688 -0.5355 -1.0210 -0.2928
  137OSM    H8G14958   1.219   3.322   7.699 -0.5903  0.2788  0.7680
  137OSM    C9F14959   1.118   3.180   7.811  0.3178  0.4730  0.4227
  137OSM    H9F14960   1.163   3.080   7.807  3.6139  1.9649 -4.5504
  137OSM   C10F14961   1.092   3.230   7.935  0.0173 -0.6105  0.0078
  137OSM   H10F14962   1.083   3.158   8.018 -0.5485 -0.4273  0.1043
  137OSM   C11F14963   1.055   3.375   7.965  0.2175 -0.0344 -0.6116
  137OSM   H11F14964   0.954   3.390   7.924 -0.1788  1.9717  0.9954
  137OSM   H11G14965   1.113   3.453   7.911 -0.1530  1.0464  0.5157
  137OSM   C12F14966   1.041   3.425   8.111 -0.1016  0.3381 -0.5600
  137OSM   H12F14967   1.140   3.422   8.161 -0.7300  0.0718  0.6780
  137OSM   H12G14968   0.972   3.360   8.169 -1.5199  0.1341 -2.4145
  137OSM   C13F14969   0.996   3.569   8.119 -0.4056  0.0223  0.0669
  137OSM   H13F14970   0.894   3.566   8.075 -0.6105 -2.4636  0.6657
  137OSM   H13G14971   1.070   3.625   8.057 -0.4756  1.9843  1.6903
  137OSM   C14F14972   0.997   3.636   8.260  0.1941 -0.8395 -0.3049
  137OSM   H14F14973   0.976   3.744   8.249  1.8750 -0.5519 -0.7888
  137OSM   H14G14974   1.105   3.630   8.285 -0.2079 -0.5147  1.5578
  137OSM   C15F14975   0.899   3.582   8.362 -0.6421 -0.2791  0.2512
  137OSM   H15F14976   0.814   3.535   8.308 -1.1547  0.1947  0.6399
  137OSM   H15G14977   0.857   3.667   8.420 -0.1058  2.2172 -2.8809
  137OSM   C16F14978   0.963   3.481   8.457 -0.6874 -0.1969 -0.5877
  137OSM   H16F14979   1.044   3.532   8.514 -0.2938 -1.1707 -0.2696
  137OSM   H16G14980   1.013   3.394   8.411  0.7894 -0.0505  0.7004
  137OSM   C17F14981   0.870   3.418   8.566  0.2145  0.0163 -0.3695
  137OSM   H17F14982   0.778   3.381   8.516  1.3927  1.5157 -3.7967
  137OSM   H17G14983   0.846   3.506   8.630 -0.1412  0.5524 -1.2327
  137OSM   C18F14984   0.937   3.313   8.645 -0.2079  0.4008  0.5984
  137OSM   H18F14985   0.985   3.227   8.594 -0.1802  0.3795  0.6602
  137OSM   H18G14986   0.878   3.287   8.736  0.4401  3.0396  1.8475
  137OSM   H18H14987   1.020   3.362   8.700 -0.5805 -1.1637  2.6481
  138OSM      N14988   1.837   4.476   5.680 -0.3094  0.0947  0.2511
  138OSM    C1514989   1.686   4.456   5.646 -0.2518 -0.2851 -0.7426
  138OSM   H15A14990   1.640   4.416   5.735 -0.7609  0.2482 -0.7628
  138OSM   H15B14991   1.654   4.412   5.553 -0.4216  1.4950 -1.5652
  138OSM   H15C14992   1.650   4.558   5.636  0.8255 -0.0858 -2.8755
  138OSM    C1414993   1.905   4.346   5.706 -0.4081  0.2796  0.4545
  138OSM   H14A14994   1.916   4.288   5.615  0.1753  0.6567  0.2827
  138OSM   H14B14995   1.869   4.289   5.791  0.2053  1.0524  1.2457
  138OSM   H14C14996   2.009   4.365   5.729 -0.5982  1.0765  0.6533
  138OSM    C1314997   1.897   4.552   5.564 -0.1814 -0.1229  0.3683
  138OSM   H13A14998   2.000   4.577   5.588  0.1727 -1.7465  0.5743
  138OSM   H13B14999   1.842   4.644   5.547  0.4822 -0.1326 -1.9274
  138OSM   H13C15000   1.895   4.497   5.472 -3.1647 -1.8266  1.3793
  138OSM    C1215001   1.854   4.559   5.801 -0.1862 -0.4795 -0.1477
  138OSM   H12A15002   1.813   4.655   5.775  1.5212 -0.1583 -1.7275
  138OSM   H12B15003   1.961   4.572   5.816 -0.3029  1.8446 -1.1961
  138OSM    C1115004   1.781   4.519   5.940  0.3014  0.1636 -0.8542
  138OSM   H11A15005   1.670   4.513   5.929 -0.1009  0.8051  2.3213
  138OSM   H11B15006   1.789   4.598   6.018  1.2015  1.6902 -2.4652
  138OSM      P15007   1.987   4.408   6.052 -0.0783 -0.1265  0.0320
  138OSM    O1315008   2.029   4.278   6.100  0.0520 -0.7425  0.3361
  138OSM    O1415009   2.070   4.465   5.949  0.1812  0.3146 -0.0816
  138OSM    O1115010   1.974   4.515   6.166 -0.6085  0.4500 -0.0685
  138OSM    O1215011   1.835   4.399   5.993  0.0574  0.1223 -0.6156
  138OSM    C1S15012   1.892   4.481   6.275  0.4498  0.5690 -0.8269
  138OSM    H1S15013   1.930   4.388   6.323 -1.0875 -0.2409 -1.1605
  138OSM    H1T15014   1.795   4.453   6.229  0.9467 -0.0971 -1.4766
  138OSM     NF15015   1.777   4.552   6.491 -0.3201 -0.4054 -0.0121
  138OSM    HNF15016   1.681   4.578   6.481 -0.3824 -0.7530 -0.3484
  138OSM    C2S15017   1.859   4.594   6.385 -0.3071  0.1943  0.6494
  138OSM    H2S15018   1.954   4.626   6.432 -0.2665 -1.2772  1.6006
  138OSM    C3S15019   1.801   4.717   6.308  0.0337  0.3892  0.0193
  138OSM    H3S15020   1.704   4.692   6.258 -0.2527  0.0242  0.7503
  138OSM     O315021   1.888   4.762   6.201 -0.5920 -0.3063 -0.7373
  138OSM    HO315022   1.944   4.684   6.197 -0.4403 -0.1941 -0.7850
  138OSM    C4S15023   1.777   4.837   6.394 -0.2182 -0.6132 -0.1672
  138OSM    H4S15024   1.852   4.842   6.474  0.2951  1.4842 -0.7179
  138OSM    C5S15025   1.680   4.926   6.391  0.7818 -0.0988  0.2729
  138OSM    H5S15026   1.603   4.926   6.313 -2.0279 -0.1326  2.9444
  138OSM    C6S15027   1.662   5.043   6.481  0.1767  0.2677  0.3023
  138OSM    H6S15028   1.556   5.036   6.513 -0.3299 -1.5311 -1.6496
  138OSM    H6T15029   1.672   5.139   6.424 -0.8837  1.0270  1.3731
  138OSM    C7S15030   1.748   5.043   6.606  0.0953  0.2323 -0.8352
  138OSM    H7S15031   1.858   5.039   6.590  0.1551 -1.7264  0.0096
  138OSM    H7T15032   1.721   4.958   6.672  0.1095 -0.3675 -1.5911
  138OSM    C8S15033   1.734   5.175   6.682 -0.3400  0.6219 -0.1873
  138OSM    H8S15034   1.627   5.190   6.708 -0.3474  0.8603 -0.3561
  138OSM    H8T15035   1.755   5.255   6.608 -1.1125 -1.3459 -2.5991
  138OSM    C9S15036   1.817   5.201   6.809 -0.4222 -0.2188 -0.0207
  138OSM    H9S15037   1.809   5.309   6.834 -0.0409 -0.4990  1.3730
  138OSM    H9T15038   1.924   5.173   6.800 -0.5876 -1.0237  0.4843
  138OSM   C10S15039   1.761   5.123   6.929 -0.5514  0.0896 -0.1999
  138OSM   H10S15040   1.768   5.014   6.907  1.6208  0.8201 -3.4964
  138OSM   H10T15041   1.657   5.160   6.945  0.0143  1.5478  0.2079
  138OSM   C11S15042   1.836   5.143   7.058 -0.1499 -0.2484 -0.9042
  138OSM   H11S15043   1.860   5.251   7.071  1.2352 -0.0988 -4.2539
  138OSM   H11T15044   1.936   5.096   7.050 -0.9298 -1.8090 -1.7005
  138OSM   C12S15045   1.756   5.078   7.180 -0.6409  0.4116  0.3129
  138OSM   H12S15046   1.748   4.973   7.144 -1.5415 -0.0548  1.8374
  138OSM   H12T15047   1.651   5.111   7.192 -0.6865 -0.2656  1.9471
  138OSM   C13S15048   1.841   5.090   7.312 -0.2956 -0.2572 -0.2636
  138OSM   H13S15049   1.908   5.178   7.301  0.9724 -1.0883  0.5778
  138OSM   H13T15050   1.914   5.006   7.306  0.2409  0.1653  0.1870
  138OSM   C14S15051   1.757   5.090   7.434 -0.8234 -0.3390 -0.0581
  138OSM   H14S15052   1.720   4.992   7.471 -0.5828  0.4637  2.4275
  138OSM   H14T15053   1.678   5.164   7.411  0.0220  0.0539 -1.7826
  138OSM   C15S15054   1.835   5.153   7.559  0.4755 -0.0564  0.8386
  138OSM   H15S15055   1.865   5.256   7.534 -1.2493  0.5237  1.0571
  138OSM   H15T15056   1.928   5.095   7.579 -1.0729 -2.8212  0.4035
  138OSM   C16S15057   1.756   5.159   7.692  0.6085  0.0257  0.3209
  138OSM   H16S15058   1.669   5.221   7.662  1.9364  2.4695  1.3597
  138OSM   H16T15059   1.808   5.217   7.771  0.1261  1.9282 -0.7492
  138OSM   C17S15060   1.719   5.017   7.743 -0.2072  0.0986 -0.1418
  138OSM   H17S15061   1.806   4.950   7.725  1.0290  1.2373  1.4741
  138OSM   H17T15062   1.634   4.971   7.688  2.4351 -2.1570 -2.4765
  138OSM   C18S15063   1.669   5.003   7.890  0.3401  0.7207  0.4641
  138OSM   H18S15064   1.637   4.898   7.905  2.4356 -0.0488 -0.2465
  138OSM   H18T15065   1.580   5.066   7.912 -2.8281 -2.5657 -2.2786
  138OSM   H18U15066   1.742   5.023   7.972 -0.3352  2.8799  0.5715
  138OSM    C1F15067   1.821   4.468   6.581  0.9708  0.9232  0.5882
  138OSM     OF15068   1.935   4.425   6.567 -0.1477  0.5423 -0.1514
  138OSM    C2F15069   1.728   4.418   6.694  0.7535 -0.1991  0.8177
  138OSM    H2F15070   1.650   4.349   6.654 -0.6175  0.8257  1.6796
  138OSM    H2G15071   1.673   4.502   6.741 -0.6238 -0.7743  0.2635
  138OSM    C3F15072   1.796   4.345   6.812 -0.2072  0.3187 -0.5908
  138OSM    H3F15073   1.878   4.413   6.843  0.5602 -1.1486  0.5965
  138OSM    H3G15074   1.836   4.246   6.783  1.1074 -0.3235  3.2481
  138OSM    C4F15075   1.718   4.325   6.944  0.3266  0.0144 -0.1704
  138OSM    H4F15076   1.658   4.232   6.939 -2.3086  1.7528 -2.1590
  138OSM    H4G15077   1.646   4.410   6.942 -1.2887 -1.2551  1.9469
  138OSM    C5F15078   1.811   4.325   7.065 -0.2367 -0.2342 -0.4053
  138OSM    H5F15079   1.883   4.406   7.043  0.0000 -0.1560  0.6233
  138OSM    H5G15080   1.861   4.227   7.055 -3.3967 -2.2532  2.2982
  138OSM    C6F15081   1.729   4.325   7.187 -0.1664  0.3634 -0.6424
  138OSM    H6F15082   1.681   4.225   7.197  3.7434 -1.2703  3.6446
  138OSM    H6G15083   1.659   4.411   7.187  0.9395  1.3708  4.1084
  138OSM    C7F15084   1.824   4.339   7.312  0.2695 -0.1676  0.3314
  138OSM    H7F15085   1.889   4.425   7.285 -0.1129  0.2015  0.5853
  138OSM    H7G15086   1.884   4.246   7.324  1.1003  0.0369 -2.0269
  138OSM    C8F15087   1.759   4.370   7.448  0.0537 -0.4932 -0.1850
  138OSM    H8F15088   1.682   4.450   7.434  1.7824  0.8870 -2.0344
  138OSM    H8G15089   1.841   4.414   7.509 -0.6879 -0.1618  0.5870
  138OSM    C9F15090   1.697   4.245   7.504 -0.6507  0.5346 -0.4946
  138OSM    H9F15091   1.715   4.148   7.456  0.5018  0.8877 -0.8074
  138OSM   C10F15092   1.642   4.241   7.629 -0.5346 -0.5718 -0.2406
  138OSM   H10F15093   1.620   4.143   7.674 -1.3408 -1.3777 -2.3606
  138OSM   C11F15094   1.624   4.357   7.723 -0.0632 -0.8541 -0.3010
  138OSM   H11F15095   1.520   4.340   7.759  0.5035 -0.4168  1.5758
  138OSM   H11G15096   1.620   4.451   7.665  1.7547 -0.6077 -0.0312
  138OSM   C12F15097   1.718   4.390   7.846 -0.3107  0.5470 -0.2867
  138OSM   H12F15098   1.821   4.416   7.813 -0.4430 -1.1033 -2.0593
  138OSM   H12G15099   1.724   4.297   7.907 -2.1701  0.0989 -0.7492
  138OSM   C13F15100   1.673   4.501   7.948 -0.3600  0.7215 -0.5238
  138OSM   H13F15101   1.659   4.595   7.889 -2.8906  0.4181 -0.4289
  138OSM   H13G15102   1.757   4.510   8.021  0.0043 -0.2007 -0.8222
  138OSM   C14F15103   1.538   4.478   8.019 -0.2800  0.3814 -0.4111
  138OSM   H14F15104   1.466   4.436   7.946 -0.1995  0.5244 -0.5743
  138OSM   H14G15105   1.501   4.577   8.053  2.0428  1.0483  0.3026
  138OSM   C15F15106   1.542   4.377   8.133 -0.5062  0.5939  0.1763
  138OSM   H15F15107   1.626   4.405   8.200  1.1277 -0.4571 -1.3769
  138OSM   H15G15108   1.567   4.273   8.103 -1.1430  0.6154 -0.4497
  138OSM   C16F15109   1.416   4.387   8.210  0.0826 -0.0153 -0.2863
  138OSM   H16F15110   1.378   4.489   8.233  0.2075  0.1611 -0.8616
  138OSM   H16G15111   1.440   4.338   8.307  0.6027 -2.5380 -1.6518
  138OSM   C17F15112   1.303   4.312   8.131 -0.2502  0.3763 -0.2930
  138OSM   H17F15113   1.296   4.222   8.195  4.5197 -2.0272 -2.8626
  138OSM   H17G15114   1.331   4.274   8.030  2.2654  2.3780 -0.4023
  138OSM   C18F15115   1.168   4.384   8.120  0.3955  0.2217  0.0356
  138OSM   H18F15116   1.172   4.468   8.047 -0.1547 -1.6747 -2.2409
  138OSM   H18G15117   1.146   4.435   8.216  2.3454  1.2602 -0.0429
  138OSM   H18H15118   1.079   4.320   8.099 -0.3815  0.5084  2.2930
  139OSM      N15119   1.205   5.538   6.055 -0.4462 -0.8199 -0.4161
  139OSM    C1515120   1.250   5.531   5.915 -0.2488  0.0325  0.8100
  139OSM   H15A15121   1.172   5.487   5.855  0.7247 -2.4973  1.3629
  139OSM   H15B15122   1.341   5.474   5.908  1.5054  2.8884 -0.4723
  139OSM   H15C15123   1.277   5.629   5.879  0.5127 -0.8761 -1.1233
  139OSM    C1415124   1.183   5.394   6.105  0.2884 -0.3182 -0.7941
  139OSM   H14A15125   1.280   5.347   6.102  0.2633 -0.3743 -0.7305
  139OSM   H14B15126   1.114   5.343   6.039 -1.8771  2.2938 -0.6082
  139OSM   H14C15127   1.161   5.389   6.210 -0.9582 -0.7582 -1.0627
  139OSM    C1315128   1.316   5.607   6.130  0.4451 -0.3582  0.2469
  139OSM   H13A15129   1.354   5.697   6.083 -1.3895  0.3974  0.1692
  139OSM   H13B15130   1.396   5.536   6.139 -2.3818 -3.5000  1.2647
  139OSM   H13C15131   1.276   5.644   6.223  0.1312  0.2566 -0.1262
  139OSM    C1215132   1.085   5.625   6.082  0.1884 -0.3903  0.0137
  139OSM   H12A15133   1.108   5.727   6.055  0.1624 -0.6606 -1.0319
  139OSM   H12B15134   1.070   5.622   6.189  1.6516  2.8833  0.3785
  139OSM    C1115135   0.953   5.586   6.021 -0.5701  0.3686 -0.1595
  139OSM   H11A15136   0.967   5.548   5.917  0.1044  0.1030  0.0253
  139OSM   H11B15137   0.891   5.677   6.014 -3.1796 -1.3689 -0.5316
  139OSM      P15138   0.754   5.476   6.121 -0.0471 -0.2775 -0.3690
  139OSM    O1315139   0.691   5.486   5.990  0.4868 -0.1519  0.4505
  139OSM    O1415140   0.740   5.348   6.200 -0.2507  0.2179 -0.0477
  139OSM    O1115141   0.706   5.596   6.215 -0.0253  0.1211 -0.2399
  139OSM    O1215142   0.907   5.492   6.112 -0.3016  0.2515 -0.3880
  139OSM    C1S15143   0.789   5.658   6.316 -0.3753 -0.0489 -0.6142
  139OSM    H1S15144   0.851   5.732   6.261 -1.3526  1.2476  0.0081
  139OSM    H1T15145   0.844   5.588   6.382  0.0827 -1.6783 -2.6885
  139OSM     NF15146   0.777   5.849   6.472 -0.2607 -0.2688 -0.5545
  139OSM    HNF15147   0.830   5.813   6.549  0.0997  0.0307 -0.6586
  139OSM    C2S15148   0.697   5.747   6.410 -0.0880  0.1629 -0.7581
  139OSM    H2S15149   0.621   5.793   6.343 -0.9427 -1.9970 -1.3407
  139OSM    C3S15150   0.621   5.648   6.511 -0.0064  0.3844 -0.3036
  139OSM    H3S15151   0.694   5.573   6.549  1.7630  1.7527 -0.9191
  139OSM     O315152   0.519   5.560   6.457  0.0944 -0.1999 -0.2571
  139OSM    HO315153   0.544   5.551   6.365 -0.0664 -0.9988 -0.2317
  139OSM    C4S15154   0.546   5.724   6.618  0.5641 -0.1888 -0.0221
  139OSM    H4S15155   0.455   5.774   6.582  0.1743  0.4091  1.7618
  139OSM    C5S15156   0.568   5.713   6.747  0.1997  0.0689 -0.1615
  139OSM    H5S15157   0.658   5.657   6.778 -1.1873 -2.1090  0.0873
  139OSM    C6S15158   0.482   5.789   6.846  0.0088  0.4096 -0.0771
  139OSM    H6S15159   0.401   5.715   6.866  2.9711 -2.5260  1.6151
  139OSM    H6T15160   0.443   5.885   6.806  0.0791  0.6787  0.4974
  139OSM    C7S15161   0.543   5.811   6.985  0.1761  0.4630 -0.2451
  139OSM    H7S15162   0.633   5.875   6.969 -0.4090  1.9934  2.2261
  139OSM    H7T15163   0.575   5.711   7.022 -2.5250  0.4932  2.3794
  139OSM    C8S15164   0.451   5.880   7.088  0.6725  0.4794 -0.5777
  139OSM    H8S15165   0.364   5.818   7.117  1.3329  0.1299  0.6861
  139OSM    H8T15166   0.408   5.969   7.038  2.6133  0.6486 -2.0080
  139OSM    C9S15167   0.531   5.946   7.199  0.0055  0.5155 -0.1505
  139OSM    H9S15168   0.486   6.037   7.243  1.9371  1.1346  0.6332
  139OSM    H9T15169   0.631   5.973   7.157  0.7819 -0.0340  1.2808
  139OSM   C10S15170   0.568   5.846   7.313 -0.4710 -0.3259 -0.5016
  139OSM   H10S15171   0.592   5.749   7.263 -1.2066  0.3575 -2.2061
  139OSM   H10T15172   0.478   5.821   7.373 -1.0064 -1.4920 -1.7613
  139OSM   C11S15173   0.688   5.890   7.401 -0.0690  0.1205  0.1010
  139OSM   H11S15174   0.773   5.907   7.332 -2.3193  2.1439 -2.2465
  139OSM   H11T15175   0.707   5.810   7.476  0.3203  0.6636  0.5808
  139OSM   C12S15176   0.661   6.015   7.483  0.4422 -0.2723 -0.3451
  139OSM   H12S15177   0.559   6.016   7.526  0.3227 -1.1318 -0.5958
  139OSM   H12T15178   0.662   6.099   7.411  3.0041  0.4117  0.4273
  139OSM   C13S15179   0.765   6.035   7.601  1.0252 -0.1718 -1.2586
  139OSM   H13S15180   0.865   6.057   7.558  0.0645  0.9640 -2.9772
  139OSM   H13T15181   0.770   5.936   7.651 -0.7323  0.2405 -0.2119
  139OSM   C14S15182   0.735   6.150   7.691  0.3805 -0.3236  0.1132
  139OSM   H14S15183   0.636   6.127   7.736  1.1157 -1.0493  1.3921
  139OSM   H14T15184   0.715   6.247   7.641  1.1764 -0.0111  0.3912
  139OSM   C15S15185   0.842   6.185   7.800 -0.1796 -0.9583  0.0677
  139OSM   H15S15186   0.926   6.221   7.736 -0.7981  1.6665  0.6865
  139OSM   H15T15187   0.872   6.095   7.858 -0.8174 -1.6354 -0.6456
  139OSM   C16S15188   0.801   6.290   7.894  0.4011 -0.0316  0.2675
  139OSM   H16S15189   0.710   6.257   7.948  0.4130  1.0664  0.9786
  139OSM   H16T15190   0.775   6.380   7.833 -0.2066  0.5578  1.3781
  139OSM   C17S15191   0.894   6.305   8.010  0.3654  0.0590  0.5686
  139OSM   H17S15192   0.869   6.391   8.076 -0.8507 -0.3216  0.6159
  139OSM   H17T15193   0.993   6.335   7.968 -0.0600  1.8807  0.8153
  139OSM   C18S15194   0.904   6.187   8.104  0.2810 -0.6652  0.2195
  139OSM   H18S15195   0.808   6.133   8.120  0.0768 -0.4226 -0.1670
  139OSM   H18T15196   0.938   6.225   8.202  0.9932  2.0813 -1.0275
  139OSM   H18U15197   0.975   6.110   8.068  0.1831  0.6967 -3.0853
  139OSM    C1F15198   0.816   5.953   6.404 -0.1906  0.0307 -0.1726
  139OSM     OF15199   0.776   5.970   6.288 -0.1015  0.0438 -0.0124
  139OSM    C2F15200   0.911   6.036   6.472 -0.4897  0.0979  0.1849
  139OSM    H2F15201   0.976   6.090   6.399 -0.4885  0.9622  0.8134
  139OSM    H2G15202   0.973   5.994   6.554 -1.1766  1.4897  1.4365
  139OSM    C3F15203   0.835   6.150   6.541  0.6005 -0.3932  0.1660
  139OSM    H3F15204   0.762   6.207   6.479 -0.3949 -1.5329  0.2731
  139OSM    H3G15205   0.910   6.229   6.560  1.0905 -0.0973 -2.8519
  139OSM    C4F15206   0.769   6.104   6.673  0.5291 -0.3765  0.2854
  139OSM    H4F15207   0.832   6.033   6.730 -0.7714 -1.2598  0.6477
  139OSM    H4G15208   0.675   6.047   6.652  2.4020 -2.3322 -3.3041
  139OSM    C5F15209   0.734   6.219   6.771 -0.0484 -0.0069  0.2742
  139OSM    H5F15210   0.662   6.286   6.719 -1.9925 -1.1706  1.4086
  139OSM    H5G15211   0.827   6.274   6.795  1.1169 -0.9708 -1.8930
  139OSM    C6F15212   0.684   6.176   6.913  0.0691 -0.2788 -1.1555
  139OSM    H6F15213   0.758   6.097   6.938  1.2143  1.2790  0.4792
  139OSM    H6G15214   0.579   6.142   6.899 -0.5951 -0.1760  3.0039
  139OSM    C7F15215   0.682   6.296   7.009 -0.2318  0.3517 -0.3969
  139OSM    H7F15216   0.614   6.283   7.096 -0.4790  0.4392 -0.5797
  139OSM    H7G15217   0.650   6.391   6.961  0.6313  0.6162 -0.4730
  139OSM    C8F15218   0.822   6.337   7.081  0.1876 -0.1810 -0.1309
  139OSM    H8F15219   0.795   6.438   7.118 -1.8822 -0.3871 -1.0303
  139OSM    H8G15220   0.901   6.345   7.002 -1.7438  1.3707 -1.9617
  139OSM    C9F15221   0.866   6.236   7.177 -0.2382  0.1424 -0.6982
  139OSM    H9F15222   0.860   6.133   7.139  1.1013 -0.1263 -0.1930
  139OSM   C10F15223   0.904   6.269   7.302 -0.4686 -0.3689 -0.2592
  139OSM   H10F15224   0.948   6.192   7.366 -0.1476 -0.7268 -0.9042
  139OSM   C11F15225   0.907   6.414   7.351 -0.9414 -0.2137  0.9473
  139OSM   H11F15226   0.804   6.452   7.364 -1.1974 -0.3076 -0.7310
  139OSM   H11G15227   0.956   6.486   7.282 -1.9664 -1.1544 -0.7851
  139OSM   C12F15228   0.984   6.424   7.483 -0.3200 -0.0331  0.5599
  139OSM   H12F15229   0.951   6.336   7.541 -3.3017  0.9440  0.4072
  139OSM   H12G15230   0.951   6.506   7.549  0.8482  3.0007 -2.4368
  139OSM   C13F15231   1.133   6.444   7.465  0.3382  0.4135 -0.0731
  139OSM   H13F15232   1.138   6.534   7.399  2.1811  0.3580 -0.0420
  139OSM   H13G15233   1.180   6.359   7.412  0.3981 -0.9474  2.1127
  139OSM   C14F15234   1.214   6.463   7.593  0.1648  0.5907  0.1023
  139OSM   H14F15235   1.191   6.384   7.667 -0.2833  1.3674  0.7991
  139OSM   H14G15236   1.182   6.559   7.639  1.8618  1.1492  0.1433
  139OSM   C15F15237   1.362   6.474   7.570  0.3044  0.2731  0.1196
  139OSM   H15F15238   1.400   6.567   7.523 -0.3829  1.2396  1.4393
  139OSM   H15G15239   1.386   6.382   7.513  3.5649  1.7419 -0.9549
  139OSM   C16F15240   1.429   6.465   7.706 -0.0963 -0.0803  0.3746
  139OSM   H16F15241   1.390   6.384   7.773  1.4848 -1.5154 -0.4132
  139OSM   H16G15242   1.401   6.559   7.758 -0.8130 -0.0585 -0.0306
  139OSM   C17F15243   1.581   6.434   7.696 -0.3153 -0.5327 -0.0527
  139OSM   H17F15244   1.633   6.504   7.628 -0.3307 -0.5962 -0.1293
  139OSM   H17G15245   1.593   6.329   7.665 -0.4969 -0.8143  0.8094
  139OSM   C18F15246   1.661   6.456   7.829 -0.1036  0.6336 -0.6735
  139OSM   H18F15247   1.639   6.376   7.904  0.5131  0.7367 -0.3734
  139OSM   H18G15248   1.644   6.554   7.878  1.6943  0.9931 -0.7400
  139OSM   H18H15249   1.769   6.430   7.822 -0.5772 -1.8211  0.4827
  140OSM      N15250   1.834   1.283   6.022 -0.1828 -0.5118  0.6271
  140OSM    C1515251   1.926   1.371   5.949 -0.2713  0.3769 -0.1189
  140OSM   H15A15252   2.025   1.329   5.958 -0.3668  0.0049 -0.7846
  140OSM   H15B15253   1.942   1.471   5.987  1.7919 -0.2394  0.7155
  140OSM   H15C15254   1.888   1.371   5.848 -0.3992  1.9113 -0.0863
  140OSM    C1415255   1.697   1.332   6.016  1.2748  0.1824  0.0205
  140OSM   H14A15256   1.668   1.367   5.918  0.1883  1.4086  0.7520
  140OSM   H14B15257   1.674   1.420   6.074 -2.9264 -1.4040  0.9811
  140OSM   H14C15258   1.626   1.258   6.049 -0.9971  2.9979  1.7528
  140OSM    C1315259   1.837   1.142   5.951  0.1214  0.4269 -0.9909
  140OSM   H13A15260   1.738   1.102   5.965  0.9019 -0.8472  0.9668
  140OSM   H13B15261   1.918   1.081   5.986 -0.3690  1.7847  2.6883
  140OSM   H13C15262   1.848   1.156   5.844 -0.0640  1.9084 -0.8290
  140OSM    C1215263   1.880   1.268   6.159  0.2521  0.8363 -0.3137
  140OSM   H12A15264   1.903   1.366   6.197 -1.3892  0.9501  0.4356
  140OSM   H12B15265   1.973   1.214   6.148  1.3819  2.6639  0.0913
  140OSM    C1115266   1.800   1.190   6.271 -0.8963 -0.4533  0.0622
  140OSM   H11A15267   1.696   1.227   6.282  0.1668  2.3587  1.1078
  140OSM   H11B15268   1.851   1.210   6.368 -0.9251  1.9837 -0.4044
  140OSM      P15269   1.683   0.957   6.255 -0.2052 -0.4802  0.0271
  140OSM    O1315270   1.597   1.005   6.144  0.0605 -0.8007  0.3484
  140OSM    O1415271   1.709   0.810   6.263 -0.6665  1.4693  0.8004
  140OSM    O1115272   1.621   1.009   6.393 -0.3639  0.0086  0.1132
  140OSM    O1215273   1.813   1.045   6.251 -0.1752 -0.1622  0.3192
  140OSM    C1S15274   1.683   0.954   6.513 -0.5987  0.2195  0.1230
  140OSM    H1S15275   1.792   0.974   6.517 -0.1215 -2.1894  0.3622
  140OSM    H1T15276   1.671   0.843   6.510  0.4935  0.1172 -3.7294
  140OSM     NF15277   1.657   0.933   6.760  0.2164  0.4192 -0.6851
  140OSM    HNF15278   1.599   0.857   6.790 -0.1665  1.6038  1.6540
  140OSM    C2S15279   1.607   1.001   6.640  0.1235  0.6356  0.1098
  140OSM    H2S15280   1.624   1.111   6.648 -0.6772  0.5471  3.9664
  140OSM    C3S15281   1.451   0.983   6.620  0.1678 -0.0302  0.7364
  140OSM    H3S15282   1.433   0.875   6.603  1.0361 -0.3730  1.9258
  140OSM     O315283   1.389   1.061   6.518  0.2051 -0.0607  0.1653
  140OSM    HO315284   1.458   1.077   6.453  0.5081  1.2963  0.7984
  140OSM    C4S15285   1.369   1.013   6.745 -0.3200  0.1702 -0.1497
  140OSM    H4S15286   1.401   1.099   6.807 -1.8286  0.5041  0.1981
  140OSM    C5S15287   1.287   0.928   6.806 -0.3750  0.1663  0.8082
  140OSM    H5S15288   1.261   0.830   6.764 -0.5078  0.7623 -0.5488
  140OSM    C6S15289   1.216   0.951   6.928  0.0010 -0.6401 -0.1104
  140OSM    H6S15290   1.117   0.899   6.928 -0.4511  0.2119 -1.7862
  140OSM    H6T15291   1.187   1.058   6.930  0.4884 -0.5259  1.5981
  140OSM    C7S15292   1.277   0.925   7.067 -0.4384  0.7359  0.0067
  140OSM    H7S15293   1.386   0.944   7.061 -0.0272 -1.1542  1.1504
  140OSM    H7T15294   1.257   0.818   7.090  0.7287  0.6384  0.5597
  140OSM    C8S15295   1.214   1.013   7.180  0.3065 -0.7433  0.3018
  140OSM    H8S15296   1.108   0.982   7.170  0.1886  0.1392 -1.5375
  140OSM    H8T15297   1.218   1.124   7.170 -0.6922 -0.9091 -2.1793
  140OSM    C9S15298   1.263   0.962   7.312 -0.0613  0.1291 -0.1215
  140OSM    H9S15299   1.373   0.962   7.328 -0.3004 -0.8371  1.7272
  140OSM    H9T15300   1.230   0.856   7.320  2.9075 -0.8461  0.0555
  140OSM   C10S15301   1.207   1.048   7.429  0.3164  0.5479  0.0879
  140OSM   H10S15302   1.103   1.018   7.455  0.0490  0.7800 -0.6891
  140OSM   H10T15303   1.211   1.154   7.395 -4.4134  0.9481  0.4546
  140OSM   C11S15304   1.283   1.023   7.560 -0.1272  0.0402  0.7655
  140OSM   H11S15305   1.390   1.052   7.547 -1.0630  2.0972 -2.7456
  140OSM   H11T15306   1.260   0.916   7.578 -1.3547  0.4419  1.6718
  140OSM   C12S15307   1.227   1.097   7.679  0.7994 -0.2624  1.3244
  140OSM   H12S15308   1.120   1.068   7.676  0.2547  1.7517  0.3066
  140OSM   H12T15309   1.227   1.204   7.651 -1.4680 -0.8415 -1.0736
  140OSM   C13S15310   1.287   1.083   7.819  1.1116  0.2409 -0.8984
  140OSM   H13S15311   1.397   1.083   7.801  1.3081  3.3158 -0.0537
  140OSM   H13T15312   1.252   0.989   7.867 -0.0475 -0.1768 -2.5164
  140OSM   C14S15313   1.257   1.189   7.931 -0.3498 -0.5427 -0.2495
  140OSM   H14S15314   1.148   1.206   7.939 -0.7798 -2.7904 -0.9202
  140OSM   H14T15315   1.290   1.287   7.890  0.4396 -0.0274  1.5477
  140OSM   C15S15316   1.314   1.157   8.067 -0.2547 -0.6031 -0.6152
  140OSM   H15S15317   1.401   1.089   8.054 -1.8559 -2.6905 -0.5834
  140OSM   H15T15318   1.243   1.100   8.130  1.0442 -3.3409 -1.5707
  140OSM   C16S15319   1.348   1.290   8.139 -0.2165 -0.7079 -0.5878
  140OSM   H16S15320   1.381   1.370   8.069  1.2025  1.0665  2.0160
  140OSM   H16T15321   1.433   1.283   8.210 -0.2259  0.7372 -0.4147
  140OSM   C17S15322   1.226   1.337   8.216 -0.4191 -0.3205 -0.2455
  140OSM   H17S15323   1.177   1.249   8.263  0.6029 -1.5689 -1.4505
  140OSM   H17T15324   1.143   1.382   8.157 -1.1152 -1.3997 -0.1021
  140OSM   C18S15325   1.261   1.435   8.326 -0.3066  0.1639 -0.6668
  140OSM   H18S15326   1.175   1.460   8.391  0.2050 -1.3358  0.6231
  140OSM   H18T15327   1.304   1.528   8.282  2.4920 -1.7987 -2.2693
  140OSM   H18U15328   1.340   1.387   8.387 -1.2149  2.8626  2.7638
  140OSM    C1F15329   1.777   0.951   6.818 -0.0004  0.3801  0.1973
  140OSM     OF15330   1.856   1.036   6.778 -0.4027  0.6254  0.4244
  140OSM    C2F15331   1.802   0.863   6.939 -0.1247  0.1556 -0.4169
  140OSM    H2F15332   1.776   0.756   6.923  0.8215  0.0673 -1.4181
  140OSM    H2G15333   1.753   0.905   7.029 -2.7831  1.2419 -2.3079
  140OSM    C3F15334   1.950   0.882   6.972 -0.3771 -0.1518  0.4865
  140OSM    H3F15335   1.973   0.989   6.991 -1.0623  0.2915 -1.1522
  140OSM    H3G15336   2.026   0.862   6.893 -1.5628 -0.1201 -0.6678
  140OSM    C4F15337   2.000   0.807   7.090 -0.0853 -0.1861  0.2687
  140OSM    H4F15338   2.110   0.798   7.089 -0.2082 -1.7125 -1.0957
  140OSM    H4G15339   1.958   0.704   7.082 -0.0743 -0.1642 -0.0607
  140OSM    C5F15340   1.934   0.867   7.224  0.0714 -0.2948  0.1323
  140OSM    H5F15341   1.824   0.850   7.227  0.0356  0.1911  2.1614
  140OSM    H5G15342   1.960   0.974   7.228  0.0919 -0.1290 -2.8146
  140OSM    C6F15343   1.988   0.800   7.357 -0.1671  0.0874 -0.8877
  140OSM    H6F15344   1.938   0.832   7.451 -0.2271 -3.7772  0.4641
  140OSM    H6G15345   2.094   0.831   7.359  0.4338 -1.9973  0.5792
  140OSM    C7F15346   1.969   0.647   7.350  0.0197  0.5292  0.2772
  140OSM    H7F15347   2.033   0.598   7.274 -0.6667  0.3869 -0.2113
  140OSM    H7G15348   1.870   0.626   7.305  1.8754 -2.7351 -2.5285
  140OSM    C8F15349   1.997   0.582   7.488  0.3690  0.5210 -0.0978
  140OSM    H8F15350   1.988   0.472   7.479  1.0776  0.4887 -0.4559
  140OSM    H8G15351   1.919   0.619   7.557 -0.6460 -1.3910 -0.2014
  140OSM    C9F15352   2.139   0.620   7.531 -0.4743 -1.3339  0.1876
  140OSM    H9F15353   2.193   0.683   7.458 -0.8359 -0.0077  1.0487
  140OSM   C10F15354   2.201   0.628   7.653 -0.2207  0.2669  0.5751
  140OSM   H10F15355   2.310   0.640   7.648 -0.0717 -1.2725 -0.4451
  140OSM   C11F15356   2.141   0.578   7.787  0.3897 -0.0384  0.4594
  140OSM   H11F15357   2.204   0.495   7.827 -0.9698 -1.0150  0.6264
  140OSM   H11G15358   2.035   0.544   7.783  1.4500 -3.4620 -0.2015
  140OSM   C12F15359   2.136   0.698   7.883 -0.5697 -0.1165 -0.4165
  140OSM   H12F15360   2.052   0.760   7.845 -2.0023 -1.7605  0.0098
  140OSM   H12G15361   2.223   0.766   7.876 -1.3995  0.8052 -2.1807
  140OSM   C13F15362   2.101   0.648   8.032 -0.2234  0.0025 -0.2548
  140OSM   H13F15363   2.195   0.615   8.080 -0.3578  2.8574  2.1013
  140OSM   H13G15364   2.031   0.567   8.004  0.7730 -0.4588 -1.4442
  140OSM   C14F15365   2.032   0.755   8.126 -0.4154  0.5462  0.3638
  140OSM   H14F15366   1.950   0.805   8.071 -1.7022 -1.8175  0.0963
  140OSM   H14G15367   2.101   0.840   8.150  1.3712 -1.1261  1.3113
  140OSM   C15F15368   1.969   0.694   8.256  0.0038  0.2406  0.0510
  140OSM   H15F15369   1.900   0.613   8.223  1.4932 -1.0675  0.1151
  140OSM   H15G15370   1.905   0.775   8.298 -1.1692 -0.8804  0.4766
  140OSM   C16F15371   2.073   0.642   8.350  0.2435  0.1235  0.0824
  140OSM   H16F15372   2.146   0.573   8.301  0.6441  2.0518 -2.1412
  140OSM   H16G15373   2.020   0.581   8.425  0.0414 -0.3693 -0.4524
  140OSM   C17F15374   2.149   0.757   8.425 -0.0717 -0.2030 -0.0950
  140OSM   H17F15375   2.070   0.815   8.478  0.7145  1.1865 -0.3927
  140OSM   H17G15376   2.191   0.826   8.349  1.4609  0.1042  0.9933
  140OSM   C18F15377   2.249   0.707   8.533 -0.0435  0.3917  0.0169
  140OSM   H18F15378   2.277   0.787   8.605 -0.6904 -0.3176  1.0784
  140OSM   H18G15379   2.337   0.668   8.478 -1.8489 -0.9098 -2.0256
  140OSM   H18H15380   2.202   0.620   8.584  0.3477 -0.9106 -1.7854
  141OSM      N15381   1.224   2.594   6.145 -0.4513  0.0734  0.6924
  141OSM    C1515382   1.131   2.487   6.090  0.4069 -0.1876 -0.7287
  141OSM   H15A15383   1.064   2.528   6.016 -1.5133 -1.3577  0.3092
  141OSM   H15B15384   1.071   2.439   6.166 -0.6829  1.3741 -0.6028
  141OSM   H15C15385   1.203   2.415   6.053 -0.8541 -1.9040  0.0523
  141OSM    C1415386   1.308   2.515   6.237  0.3647 -0.5625  0.4019
  141OSM   H14A15387   1.348   2.420   6.203  0.1991 -1.0252  1.4522
  141OSM   H14B15388   1.257   2.473   6.323 -0.3245 -0.0513  0.2502
  141OSM   H14C15389   1.395   2.571   6.266  2.0238 -2.8301 -0.0329
  141OSM    C1315390   1.310   2.658   6.033  0.0718 -0.4488  0.0412
  141OSM   H13A15391   1.379   2.733   6.068  1.4489 -1.1084 -1.2198
  141OSM   H13B15392   1.244   2.706   5.963 -0.5218 -0.5997  0.4949
  141OSM   H13C15393   1.363   2.579   5.981  1.3591 -0.3653  1.1890
  141OSM    C1215394   1.155   2.711   6.210 -0.2817 -1.1751  0.1381
  141OSM   H12A15395   1.082   2.755   6.143 -0.5669 -0.8243  0.6830
  141OSM   H12B15396   1.229   2.787   6.231 -1.5824  0.1699 -0.1108
  141OSM    C1115397   1.068   2.676   6.334  0.2144  0.3314 -0.3811
  141OSM   H11A15398   1.020   2.768   6.372  0.5157  0.7776 -1.0795
  141OSM   H11B15399   1.141   2.649   6.414 -0.1544  3.0899  0.9607
  141OSM      P15400   0.832   2.607   6.232 -0.5899 -0.0428 -0.1868
  141OSM    O1315401   0.844   2.722   6.145  0.5855  0.4769  0.0426
  141OSM    O1415402   0.777   2.477   6.183  0.4661 -0.0417 -0.7277
  141OSM    O1115403   0.748   2.655   6.363  0.3808 -0.4982  1.0340
  141OSM    O1215404   0.970   2.577   6.307 -0.4701  0.0870  0.0427
  141OSM    C1S15405   0.774   2.621   6.499 -0.4886 -0.5944 -0.0306
  141OSM    H1S15406   0.865   2.677   6.529  0.4347 -1.4754 -1.1582
  141OSM    H1T15407   0.796   2.512   6.509 -0.2055 -0.4341  1.1214
  141OSM     NF15408   0.719   2.660   6.730 -0.0557  0.4584 -0.4562
  141OSM    HNF15409   0.684   2.583   6.784  0.7931 -0.0892 -0.6831
  141OSM    C2S15410   0.667   2.667   6.596  0.4502  0.3627  0.0403
  141OSM    H2S15411   0.640   2.773   6.573 -1.7154  0.0883  1.2258
  141OSM    C3S15412   0.541   2.579   6.569  0.0344 -0.7567 -0.7339
  141OSM    H3S15413   0.566   2.481   6.615  0.4922 -0.3660 -0.1445
  141OSM     O315414   0.511   2.544   6.432  0.3922  0.0013 -0.1449
  141OSM    HO315415   0.575   2.599   6.387  0.3751  1.0629  1.0769
  141OSM    C4S15416   0.416   2.621   6.639  0.1063 -0.0600  0.1397
  141OSM    H4S15417   0.417   2.589   6.745 -3.2658 -0.7124  0.0402
  141OSM    C5S15418   0.298   2.684   6.590  0.0589  0.2167 -0.1330
  141OSM    H5S15419   0.296   2.708   6.483  0.5163 -0.8813 -0.3848
  141OSM    C6S15420   0.174   2.722   6.676  0.9967 -0.1091  0.4559
  141OSM    H6S15421   0.087   2.685   6.617 -0.1479  0.8260  1.5312
  141OSM    H6T15422   0.184   2.832   6.676  2.1176 -0.2052 -0.0352
  141OSM    C7S15423   0.192   2.662   6.815  0.8529 -0.5410 -0.4707
  141OSM    H7S15424   0.288   2.688   6.864 -0.5332  0.7261  1.6898
  141OSM    H7T15425   0.187   2.552   6.802 -0.1845 -0.4817 -0.6699
  141OSM    C8S15426   0.077   2.699   6.909 -0.4332 -0.8113 -0.9390
  141OSM    H8S15427  -0.003   2.629   6.876 -1.5162  0.7952 -1.8133
  141OSM    H8T15428   0.044   2.804   6.893 -0.3668 -0.6533 -0.0354
  141OSM    C9S15429   0.106   2.662   7.055 -0.1928 -0.3987 -0.3887
  141OSM    H9S15430   0.177   2.737   7.096 -0.6887 -0.0048 -0.2460
  141OSM    H9T15431   0.145   2.560   7.074  1.4746  0.5042  1.2398
  141OSM   C10S15432  -0.010   2.698   7.149 -0.2200 -0.4656  0.2591
  141OSM   H10S15433  -0.105   2.650   7.119  0.6731 -0.1124 -3.3365
  141OSM   H10T15434  -0.034   2.806   7.151  3.0344  0.3339  0.0334
  141OSM   C11S15435   0.019   2.664   7.296  0.4591 -0.0699  0.1913
  141OSM   H11S15436   0.060   2.562   7.306 -0.2428 -0.5911 -1.9156
  141OSM   H11T15437  -0.083   2.672   7.340  0.6653  3.0365  0.2494
  141OSM   C12S15438   0.114   2.758   7.375 -1.1128 -0.1333  0.0135
  141OSM   H12S15439   0.068   2.858   7.366 -0.6216 -0.0810 -2.1553
  141OSM   H12T15440   0.213   2.756   7.324 -0.0832 -1.7171  2.0011
  141OSM   C13S15441   0.137   2.725   7.520 -0.1407 -0.3403 -0.5546
  141OSM   H13S15442   0.233   2.770   7.556 -1.3180  1.8096  0.0064
  141OSM   H13T15443   0.146   2.617   7.544 -0.7978 -0.5947 -1.4710
  141OSM   C14S15444   0.020   2.765   7.612 -0.2068 -0.4814  0.2978
  141OSM   H14S15445  -0.075   2.715   7.581  1.1420 -2.8336 -0.2174
  141OSM   H14T15446   0.003   2.873   7.592  1.0126 -0.3296  0.0012
  141OSM   C15S15447   0.054   2.731   7.759  0.1634 -0.6202 -0.0909
  141OSM   H15S15448   0.129   2.804   7.797 -1.1323  0.0547  1.2074
  141OSM   H15T15449   0.090   2.626   7.758 -0.5089 -0.8526 -0.5253
  141OSM   C16S15450  -0.078   2.727   7.838  0.3407 -0.1998 -0.8243
  141OSM   H16S15451  -0.147   2.658   7.786 -1.5763  1.5125 -0.6195
  141OSM   H16T15452  -0.133   2.824   7.841 -0.9964 -0.9585 -0.3697
  141OSM   C17S15453  -0.053   2.655   7.975  0.2535  0.1118 -0.0633
  141OSM   H17S15454  -0.011   2.552   7.976 -0.1108 -0.1231 -3.0926
  141OSM   H17T15455  -0.148   2.668   8.030  0.4404  2.6203 -0.2601
  141OSM   C18S15456   0.043   2.735   8.061 -0.8114 -0.0160 -0.0847
  141OSM   H18S15457   0.033   2.706   8.168  2.4286  1.3211  0.6173
  141OSM   H18T15458   0.030   2.844   8.050 -0.1753  0.0804  0.1183
  141OSM   H18U15459   0.144   2.709   8.025  0.3477 -0.7002  3.4114
  141OSM    C1F15460   0.805   2.741   6.780  0.3490 -0.1658 -0.9192
  141OSM     OF15461   0.827   2.842   6.721  0.1466  0.1127 -0.0927
  141OSM    C2F15462   0.867   2.707   6.912 -0.4740 -0.3417  0.9124
  141OSM    H2F15463   0.974   2.709   6.883 -0.4745  2.7729  0.9779
  141OSM    H2G15464   0.851   2.599   6.930 -2.2451 -0.1159  0.7765
  141OSM    C3F15465   0.833   2.798   7.026  0.0485  0.0269 -0.0748
  141OSM    H3F15466   0.724   2.812   7.035  0.0956  0.6923 -0.5235
  141OSM    H3G15467   0.860   2.904   7.007  0.2657 -0.5198 -3.0964
  141OSM    C4F15468   0.893   2.751   7.158 -1.1121 -0.5394 -0.4777
  141OSM    H4F15469   1.004   2.742   7.157 -0.9788  0.8990 -1.3411
  141OSM    H4G15470   0.869   2.644   7.176 -1.7406 -0.1558  1.0689
  141OSM    C5F15471   0.847   2.847   7.272 -0.3032 -0.3907  0.0632
  141OSM    H5F15472   0.737   2.845   7.289 -1.0737 -0.9391 -4.4301
  141OSM    H5G15473   0.877   2.947   7.235 -0.9308  0.3522  1.5126
  141OSM    C6F15474   0.909   2.824   7.404 -0.4337  0.2697  0.3520
  141OSM    H6F15475   1.014   2.857   7.400 -1.1813  3.0292  2.2791
  141OSM    H6G15476   0.916   2.717   7.433  3.9892  0.3594 -0.0991
  141OSM    C7F15477   0.840   2.918   7.507 -0.0878 -0.1184  0.5254
  141OSM    H7F15478   0.733   2.891   7.525  0.1780 -0.2973  1.8595
  141OSM    H7G15479   0.830   3.017   7.457 -1.6681 -0.2382  0.5712
  141OSM    C8F15480   0.907   2.911   7.649  0.1862 -0.1256  0.1240
  141OSM    H8F15481   0.875   3.008   7.693  0.6063  1.4185 -2.8389
  141OSM    H8G15482   1.017   2.909   7.632  0.0795 -2.0774 -0.4720
  141OSM    C9F15483   0.870   2.788   7.726  0.1007 -0.0262  0.3791
  141OSM    H9F15484   0.867   2.699   7.662  1.9130 -1.9826  2.9438
  141OSM   C10F15485   0.834   2.778   7.852 -0.8539  0.7641  0.3668
  141OSM   H10F15486   0.814   2.676   7.887  0.0115  0.6335  0.4780
  141OSM   C11F15487   0.829   2.889   7.952 -0.1107  0.2051  0.4432
  141OSM   H11F15488   0.721   2.912   7.962 -0.3273 -0.3363 -0.5570
  141OSM   H11G15489   0.883   2.978   7.914  1.2652 -0.8537 -0.1033
  141OSM   C12F15490   0.867   2.872   8.102 -0.5286  0.6440 -0.4192
  141OSM   H12F15491   0.974   2.845   8.100 -0.4556  0.5929  2.3863
  141OSM   H12G15492   0.806   2.792   8.148 -0.3280  1.3323  1.0606
  141OSM   C13F15493   0.829   2.993   8.191 -0.2801 -0.2654  0.2650
  141OSM   H13F15494   0.732   2.977   8.243 -1.4377  0.3497 -1.6669
  141OSM   H13G15495   0.821   3.081   8.123 -1.4554  1.0605  2.0958
  141OSM   C14F15496   0.945   3.018   8.286 -1.0486 -1.5622  0.6624
  141OSM   H14F15497   0.932   3.106   8.352  1.7795  0.4994 -1.4561
  141OSM   H14G15498   1.046   3.037   8.245  0.0758 -3.4011  2.4743
  141OSM   C15F15499   0.959   2.894   8.383 -0.2244  0.7169  0.1753
  141OSM   H15F15500   0.972   2.795   8.334 -1.3556  0.0691  1.1862
  141OSM   H15G15501   0.869   2.904   8.446  0.0721 -1.1800  0.9494
  141OSM   C16F15502   1.089   2.916   8.463 -0.2464 -0.0884 -0.3806
  141OSM   H16F15503   1.074   3.008   8.524 -0.8254 -0.4604  0.0375
  141OSM   H16G15504   1.176   2.938   8.397 -1.4021  0.9747 -1.5844
  141OSM   C17F15505   1.130   2.796   8.552  0.0345  0.4203 -0.4878
  141OSM   H17F15506   1.163   2.704   8.497  1.9601  1.2818 -0.7995
  141OSM   H17G15507   1.037   2.769   8.605 -0.3584  0.1996 -1.2774
  141OSM   C18F15508   1.233   2.839   8.655  0.2804  0.0468  0.3877
  141OSM   H18F15509   1.265   2.765   8.731  3.9587  1.9211  0.8080
  141OSM   H18G15510   1.187   2.923   8.712 -0.5535  0.5391 -0.9825
  141OSM   H18H15511   1.321   2.891   8.610  1.6861 -0.4830  2.4552
  142OSM      N15512   0.995   4.203   6.046  0.2416  0.2489 -0.0403
  142OSM    C1515513   1.142   4.198   6.043 -0.1107  0.3334 -0.0093
  142OSM   H15A15514   1.164   4.236   6.142  0.4900  0.1017 -0.0538
  142OSM   H15B15515   1.187   4.272   5.980  0.1870  1.3053  1.3281
  142OSM   H15C15516   1.190   4.103   6.022  0.8058  0.6456  0.6452
  142OSM    C1415517   0.947   4.143   5.919 -0.0718 -0.5307 -0.0802
  142OSM   H14A15518   0.958   4.209   5.834 -3.2008  0.3146  0.1107
  142OSM   H14B15519   0.839   4.131   5.926 -0.0771  0.9280  3.2915
  142OSM   H14C15520   0.986   4.044   5.901  2.1010  0.2901  0.0398
  142OSM    C1315521   0.937   4.117   6.156  1.2235  0.1351 -0.2038
  142OSM   H13A15522   0.952   4.013   6.131 -1.3318 -0.2806 -0.1752
  142OSM   H13B15523   0.831   4.138   6.148  0.9370  0.5986  3.9131
  142OSM   H13C15524   0.979   4.136   6.254 -0.4188 -0.3058  0.6090
  142OSM    C1215525   0.944   4.348   6.062  0.3086 -0.0172 -0.1185
  142OSM   H12A15526   0.837   4.338   6.053  0.3179 -1.6403  1.2828
  142OSM   H12B15527   0.984   4.407   5.981 -0.3192  0.6235  0.0373
  142OSM    C1115528   0.971   4.428   6.193 -0.5365 -0.2311 -0.1550
  142OSM   H11A15529   0.942   4.533   6.169  0.0655 -0.0233 -0.0036
  142OSM   H11B15530   1.081   4.428   6.214 -0.7090  0.0291  0.7658
  142OSM      P15531   0.747   4.410   6.319 -0.4970 -0.0309  0.2259
  142OSM    O1315532   0.717   4.556   6.310  0.6125 -0.3281 -0.3929
  142OSM    O1415533   0.682   4.317   6.226 -0.2233  0.2186  0.8416
  142OSM    O1115534   0.716   4.367   6.472 -0.5445  0.3987  0.1723
  142OSM    O1215535   0.905   4.383   6.313 -0.1006 -0.3761 -0.2659
  142OSM    C1S15536   0.813   4.375   6.574 -0.0973  0.6552  0.1601
  142OSM    H1S15537   0.885   4.459   6.559  1.1315 -0.6644 -1.4695
  142OSM    H1T15538   0.875   4.283   6.569  1.7042  1.8675 -0.3711
  142OSM     NF15539   0.850   4.445   6.797  0.1851 -1.2514  0.5792
  142OSM    HNF15540   0.912   4.372   6.826 -1.1109 -2.3888  0.5301
  142OSM    C2S15541   0.749   4.396   6.709  0.1562  1.1592 -0.2619
  142OSM    H2S15542   0.674   4.476   6.695 -1.0809  0.1474  0.5101
  142OSM    C3S15543   0.677   4.263   6.751  0.5299  0.0177  0.2704
  142OSM    H3S15544   0.753   4.185   6.773 -1.5883 -1.8760  1.0355
  142OSM     O315545   0.615   4.197   6.644 -0.2673  0.4341  0.4282
  142OSM    HO315546   0.652   4.243   6.568  0.4256 -0.1979  0.3803
  142OSM    C4S15547   0.579   4.299   6.861 -0.2416  0.1873  0.4410
  142OSM    H4S15548   0.619   4.266   6.958 -1.0109 -0.0534  0.6826
  142OSM    C5S15549   0.456   4.347   6.856 -0.2170  0.6756  0.5466
  142OSM    H5S15550   0.414   4.360   6.756 -0.0730  0.2546  0.4343
  142OSM    C6S15551   0.367   4.397   6.972  0.4637 -0.0101  0.3682
  142OSM    H6S15552   0.262   4.363   6.962 -0.1247  1.2560  1.9156
  142OSM    H6T15553   0.384   4.507   6.961  0.3931 -0.1380 -1.1138
  142OSM    C7S15554   0.416   4.376   7.121 -0.8286  0.1527  0.9888
  142OSM    H7S15555   0.521   4.411   7.122 -0.7058 -0.0783 -1.2398
  142OSM    H7T15556   0.406   4.268   7.146 -0.7001 -0.3803 -1.1602
  142OSM    C8S15557   0.334   4.456   7.221 -0.1739  0.1699  0.5971
  142OSM    H8S15558   0.227   4.434   7.199 -0.2021 -0.0188  0.9216
  142OSM    H8T15559   0.348   4.565   7.212 -3.9009  0.5281 -2.3930
  142OSM    C9S15560   0.371   4.424   7.369  0.2618 -0.1085 -0.2806
  142OSM    H9S15561   0.481   4.436   7.377  0.1567  0.1728  0.7857
  142OSM    H9T15562   0.345   4.324   7.408 -0.3689  0.5364  0.9673
  142OSM   C10S15563   0.299   4.524   7.454 -0.2174 -0.1697  0.2330
  142OSM   H10S15564   0.189   4.522   7.441 -0.3661  0.1675  1.3646
  142OSM   H10T15565   0.332   4.624   7.419  1.5069 -1.3805 -1.7091
  142OSM   C11S15566   0.325   4.503   7.605  0.1352  0.4819 -0.1166
  142OSM   H11S15567   0.436   4.495   7.609 -0.0290 -1.9278  0.2277
  142OSM   H11T15568   0.291   4.409   7.653  3.7716 -1.3387 -0.9305
  142OSM   C12S15569   0.290   4.631   7.684  0.1024  0.1845 -0.1887
  142OSM   H12S15570   0.184   4.660   7.667  0.4461  0.7095 -1.4591
  142OSM   H12T15571   0.353   4.708   7.636  1.0545 -1.3710 -1.4795
  142OSM   C13S15572   0.326   4.628   7.833 -0.5986 -0.4258 -0.4133
  142OSM   H13S15573   0.427   4.583   7.844  0.8580  2.4390 -1.5485
  142OSM   H13T15574   0.260   4.553   7.883  1.6044 -2.2627 -0.1911
  142OSM   C14S15575   0.307   4.762   7.900 -0.7504 -0.0085 -0.1691
  142OSM   H14S15576   0.210   4.803   7.865  0.0977  2.4448  0.2318
  142OSM   H14T15577   0.388   4.820   7.852  1.4851 -1.2326  2.0139
  142OSM   C15S15578   0.313   4.787   8.053 -0.4674 -0.3812  0.4232
  142OSM   H15S15579   0.384   4.711   8.094  0.0957 -0.0589  0.0515
  142OSM   H15T15580   0.216   4.764   8.100 -1.5977  1.0430 -1.1647
  142OSM   C16S15581   0.359   4.931   8.100 -0.9879 -0.4906  0.3784
  142OSM   H16S15582   0.298   5.007   8.048  2.1718  1.8884 -0.0438
  142OSM   H16T15583   0.467   4.938   8.074 -1.1212 -1.4924 -0.4765
  142OSM   C17S15584   0.341   4.964   8.248 -0.6672  0.0185 -0.0542
  142OSM   H17S15585   0.401   4.898   8.313  2.1232  0.8682 -1.6723
  142OSM   H17T15586   0.238   4.940   8.279 -0.2825 -0.4794  0.8371
  142OSM   C18S15587   0.372   5.112   8.278 -0.1615 -1.6709  0.0409
  142OSM   H18S15588   0.367   5.144   8.385  2.2298  0.0910 -0.3446
  142OSM   H18T15589   0.293   5.179   8.237  1.0050  1.6682  2.9034
  142OSM   H18U15590   0.476   5.144   8.255 -0.6659  1.8092  2.0906
  142OSM    C1F15591   0.907   4.571   6.801  0.3023 -0.5178  0.7363
  142OSM     OF15592   0.860   4.661   6.731 -0.2441  0.0275  0.0547
  142OSM    C2F15593   1.021   4.583   6.896  0.0294 -0.2335  0.1114
  142OSM    H2F15594   1.099   4.656   6.864  1.8308 -2.9693 -1.9198
  142OSM    H2G15595   1.071   4.484   6.902 -2.9047 -1.9334 -2.1058
  142OSM    C3F15596   0.985   4.620   7.044 -0.6073  1.0166 -0.6521
  142OSM    H3F15597   0.953   4.523   7.088 -0.6602  1.2902 -0.0938
  142OSM    H3G15598   0.892   4.679   7.053 -0.0486  1.5831  1.7023
  142OSM    C4F15599   1.094   4.691   7.113  0.1056 -0.3749 -0.2598
  142OSM    H4F15600   1.110   4.781   7.051  1.1040 -0.4261 -0.0917
  142OSM    H4G15601   1.189   4.633   7.118 -1.2700 -2.7275 -0.6268
  142OSM    C5F15602   1.053   4.719   7.258  0.6477 -1.0176  0.7923
  142OSM    H5F15603   1.059   4.637   7.333  1.1605 -1.1916  0.5590
  142OSM    H5G15604   0.949   4.757   7.265  1.3038  0.7027  1.4561
  142OSM    C6F15605   1.124   4.836   7.324  0.0775  0.3032 -0.7586
  142OSM    H6F15606   1.230   4.822   7.354 -0.4142  3.6791  2.9560
  142OSM    H6G15607   1.067   4.861   7.417  1.5468 -0.5505  0.3930
  142OSM    C7F15608   1.103   4.969   7.252  0.1091  0.1612 -0.6400
  142OSM    H7F15609   0.995   4.985   7.231  0.3090 -0.2829 -2.0580
  142OSM    H7G15610   1.156   4.965   7.154 -0.4264  1.2525 -0.9826
  142OSM    C8F15611   1.153   5.092   7.330 -0.8114  0.0478 -0.4255
  142OSM    H8F15612   1.096   5.111   7.423  2.1933 -1.9341  1.9252
  142OSM    H8G15613   1.128   5.173   7.259 -0.6675 -1.3324 -2.0714
  142OSM    C9F15614   1.301   5.093   7.359 -0.3169 -0.7980  1.2446
  142OSM    H9F15615   1.369   5.052   7.284 -0.2535  0.3396  0.6672
  142OSM   C10F15616   1.353   5.129   7.479  0.8805 -0.8689 -0.2447
  142OSM   H10F15617   1.461   5.111   7.495  1.1833 -0.1572 -1.4097
  142OSM   C11F15618   1.273   5.183   7.593  0.4520  0.6953 -0.3689
  142OSM   H11F15619   1.218   5.099   7.642 -1.1747  1.7147 -0.3906
  142OSM   H11G15620   1.200   5.254   7.549 -1.3033 -0.7635  0.1180
  142OSM   C12F15621   1.352   5.238   7.720  0.7116 -0.3345 -0.2259
  142OSM   H12F15622   1.430   5.307   7.683  0.0910 -0.6710 -2.2789
  142OSM   H12G15623   1.397   5.145   7.762 -1.8644 -1.3878  0.2829
  142OSM   C13F15624   1.262   5.308   7.825  0.2438 -0.2531  1.3863
  142OSM   H13F15625   1.184   5.237   7.862 -1.3981  1.3734  1.1038
  142OSM   H13G15626   1.205   5.382   7.766  1.7577 -1.0189 -1.0992
  142OSM   C14F15627   1.346   5.370   7.939 -0.1606  0.4019 -0.1158
  142OSM   H14F15628   1.380   5.465   7.893  3.6755 -0.4120  0.8547
  142OSM   H14G15629   1.425   5.299   7.973  0.0233  0.4829 -0.3741
  142OSM   C15F15630   1.259   5.405   8.060 -0.0395 -0.0283 -0.1340
  142OSM   H15F15631   1.231   5.306   8.103 -0.2637  1.0042  2.1820
  142OSM   H15G15632   1.175   5.462   8.015 -0.7968 -1.7738 -0.9910
  142OSM   C16F15633   1.328   5.488   8.173 -0.2085  0.5212 -0.3205
  142OSM   H16F15634   1.249   5.480   8.251 -0.5787  1.7763 -0.5621
  142OSM   H16G15635   1.331   5.594   8.141 -2.1238  0.8581  0.5685
  142OSM   C17F15636   1.463   5.437   8.234  0.0455 -1.4285 -0.8599
  142OSM   H17F15637   1.529   5.382   8.164  0.8089 -0.7986 -0.6402
  142OSM   H17G15638   1.426   5.358   8.303 -0.9360  0.8469  1.2772
  142OSM   C18F15639   1.529   5.544   8.321  0.0578  0.1930  0.1913
  142OSM   H18F15640   1.462   5.578   8.402 -0.3661 -2.3187  0.9439
  142OSM   H18G15641   1.567   5.628   8.259  0.1235  0.0723  0.0703
  142OSM   H18H15642   1.623   5.495   8.356 -1.0441 -0.6819  1.9951
  143OSM      N15643   1.949   0.676   5.926  0.0884 -1.2778 -0.0892
  143OSM    C1515644   1.908   0.558   5.844  0.3028 -0.2763  0.7790
  143OSM   H15A15645   1.992   0.514   5.793 -2.0160 -1.8918 -1.7747
  143OSM   H15B15646   1.833   0.594   5.774  0.9820 -1.8584 -0.7847
  143OSM   H15C15647   1.862   0.476   5.896  0.4953 -0.7384  0.2243
  143OSM    C1415648   2.018   0.760   5.823  0.6270  0.3409  0.3995
  143OSM   H14A15649   1.947   0.798   5.752  0.9034 -3.4589 -2.0253
  143OSM   H14B15650   2.100   0.702   5.783  0.0352 -0.6843  0.6618
  143OSM   H14C15651   2.064   0.841   5.879 -0.2332  1.5477 -0.6007
  143OSM    C1315652   1.829   0.739   5.983  0.6057 -0.6602 -0.2465
  143OSM   H13A15653   1.776   0.663   6.038  2.8278 -0.5153  2.2331
  143OSM   H13B15654   1.761   0.780   5.910  2.0963  0.6169 -0.9461
  143OSM   H13C15655   1.855   0.809   6.061 -2.9173  1.2196 -0.6757
  143OSM    C1215656   2.043   0.648   6.039 -0.2234 -0.2053  0.1178
  143OSM   H12A15657   2.095   0.734   6.078 -0.0515  0.0827 -0.7365
  143OSM   H12B15658   2.130   0.601   5.995  0.5489 -0.5816  1.9906
  143OSM    C1115659   2.000   0.565   6.160 -0.0026 -0.4110 -0.4857
  143OSM   H11A15660   1.905   0.614   6.190  1.6689  1.8286  1.3794
  143OSM   H11B15661   2.067   0.570   6.249 -0.2381 -2.9790 -0.1272
  143OSM      P15662   2.094   0.321   6.097  0.1904  0.5329 -0.1491
  143OSM    O1315663   2.039   0.213   6.010  0.1707  0.3472 -0.2711
  143OSM    O1415664   2.220   0.382   6.050 -0.3789  0.4077 -0.4599
  143OSM    O1115665   2.114   0.260   6.244  0.1834  0.3020 -0.3784
  143OSM    O1215666   1.981   0.427   6.106 -0.4519  0.2155  0.0272
  143OSM    C1S15667   2.214   0.316   6.333  0.5184  0.1964  0.4490
  143OSM    H1S15668   2.203   0.427   6.331 -0.3049  0.1237  0.5600
  143OSM    H1T15669   2.321   0.300   6.309  0.8575 -0.3305  2.2088
  143OSM     NF15670   2.278   0.333   6.578 -1.1820 -0.3804 -0.0362
  143OSM    HNF15671   2.357   0.275   6.594  0.7275  1.7303 -1.5661
  143OSM    C2S15672   2.187   0.267   6.480  0.9079  0.2495 -0.1892
  143OSM    H2S15673   2.080   0.284   6.503 -0.4457 -5.6275 -1.4758
  143OSM    C3S15674   2.210   0.116   6.493  0.0609  0.6058 -0.0861
  143OSM    H3S15675   2.320   0.110   6.476 -0.4927 -1.4429 -3.3156
  143OSM     O315676   2.141   0.029   6.396 -0.4691  0.1296 -0.0635
  143OSM    HO315677   2.112   0.087   6.325 -0.1374 -0.8838 -1.0390
  143OSM    C4S15678   2.182   0.062   6.632 -0.3147  0.7241 -0.1115
  143OSM    H4S15679   2.234   0.108   6.718 -2.0726 -0.6564  1.7283
  143OSM    C5S15680   2.080  -0.019   6.676  0.0178 -0.0286  0.3143
  143OSM    H5S15681   2.015  -0.069   6.603  1.1508 -1.5652  0.3323
  143OSM    C6S15682   2.058  -0.060   6.821 -0.2688  0.4503  0.1563
  143OSM    H6S15683   1.948  -0.055   6.837 -0.1858  2.1726  0.2943
  143OSM    H6T15684   2.102   0.013   6.893 -0.4322 -0.8379  1.5710
  143OSM    C7S15685   2.130  -0.196   6.853 -0.0805 -0.3641  0.2616
  143OSM    H7S15686   2.239  -0.178   6.849 -0.2724  1.3529  1.8613
  143OSM    H7T15687   2.103  -0.283   6.791  0.4425 -0.3740  0.0546
  143OSM    C8S15688   2.105  -0.242   6.999 -0.1473  0.3010  0.2702
  143OSM    H8S15689   1.996  -0.260   6.997  0.0504 -1.4195  2.5382
  143OSM    H8T15690   2.140  -0.160   7.065  0.1925  0.8533 -0.5929
  143OSM    C9S15691   2.183  -0.366   7.042  0.0292  0.4846 -0.2448
  143OSM    H9S15692   2.293  -0.352   7.053  0.0662  0.8774 -1.0989
  143OSM    H9T15693   2.171  -0.435   6.956  0.5528  0.0949 -0.0079
  143OSM   C10S15694   2.105  -0.432   7.161  0.7019 -0.0281 -0.2226
  143OSM   H10S15695   2.135  -0.539   7.170  3.4514  0.7141 -0.1589
  143OSM   H10T15696   2.000  -0.445   7.126 -0.0646  1.2553  1.5417
  143OSM   C11S15697   2.110  -0.357   7.298 -0.0936 -0.1528 -0.4195
  143OSM   H11S15698   2.077  -0.254   7.273 -0.8740 -0.0259  1.0606
  143OSM   H11T15699   2.215  -0.351   7.335  0.1777  0.6227 -1.3069
  143OSM   C12S15700   2.016  -0.416   7.408 -0.2867 -0.2312  0.0349
  143OSM   H12S15701   2.017  -0.527   7.405 -2.4636 -0.3270  1.8304
  143OSM   H12T15702   1.907  -0.396   7.400  0.2398  4.1730  2.3721
  143OSM   C13S15703   2.070  -0.384   7.546 -0.4801 -0.5021 -0.7940
  143OSM   H13S15704   2.181  -0.388   7.556 -0.4589  1.0753 -0.2266
  143OSM   H13T15705   2.039  -0.456   7.625  1.0874 -0.0333  0.2723
  143OSM   C14S15706   2.018  -0.242   7.589 -0.0865  0.1279  0.4456
  143OSM   H14S15707   1.918  -0.226   7.544 -0.2027  1.5488  1.1776
  143OSM   H14T15708   2.092  -0.171   7.545  0.7589 -1.5911 -0.9576
  143OSM   C15S15709   2.004  -0.225   7.746 -0.3317 -0.1162  0.4803
  143OSM   H15S15710   1.989  -0.326   7.790 -1.7548 -0.2787 -0.3423
  143OSM   H15T15711   1.924  -0.151   7.768 -0.7845 -0.5290  0.2480
  143OSM   C16S15712   2.130  -0.165   7.812  0.1250  0.1107  0.3730
  143OSM   H16S15713   2.098  -0.112   7.904  1.0151  1.8781 -0.2951
  143OSM   H16T15714   2.187  -0.111   7.733  0.0487  0.3063  0.4516
  143OSM   C17S15715   2.230  -0.272   7.853  0.6747 -0.4147 -0.2319
  143OSM   H17S15716   2.250  -0.339   7.767  0.1038  1.3885 -1.8202
  143OSM   H17T15717   2.184  -0.334   7.932 -2.1818  0.4084 -1.1647
  143OSM   C18S15718   2.359  -0.197   7.893  0.7794  0.3539  0.4157
  143OSM   H18S15719   2.441  -0.268   7.919  0.8865  0.8833  1.5208
  143OSM   H18T15720   2.332  -0.138   7.983 -1.0471 -0.3302  0.3411
  143OSM   H18U15721   2.394  -0.130   7.811  3.2211 -2.8854 -1.3450
  143OSM    C1F15722   2.278   0.469   6.608  0.3995 -0.4105  0.3186
  143OSM     OF15723   2.188   0.538   6.558 -0.3444 -0.1521  0.3396
  143OSM    C2F15724   2.390   0.531   6.688 -0.1805 -0.0678 -0.8403
  143OSM    H2F15725   2.482   0.540   6.626  0.8665 -0.4255  0.6513
  143OSM    H2G15726   2.409   0.454   6.765  1.6583  0.9295 -0.2772
  143OSM    C3F15727   2.348   0.667   6.726  0.0796  0.0124  0.2964
  143OSM    H3F15728   2.241   0.664   6.757 -0.3361 -0.5378 -1.1463
  143OSM    H3G15729   2.337   0.736   6.640 -0.4503 -0.1363  0.2407
  143OSM    C4F15730   2.439   0.733   6.826 -0.2422  0.1314  0.0359
  143OSM    H4F15731   2.429   0.844   6.830  0.1797  0.1586  0.2925
  143OSM    H4G15732   2.539   0.721   6.781 -1.2856  1.9146 -2.9010
  143OSM    C5F15733   2.430   0.672   6.969 -0.5182 -0.3953  1.2471
  143OSM    H5F15734   2.438   0.561   6.962  1.5257 -0.1541 -0.9971
  143OSM    H5G15735   2.331   0.691   7.014 -0.5137  1.5711  0.4707
  143OSM    C6F15736   2.527   0.729   7.073  0.0480 -0.1812 -0.4928
  143OSM    H6F15737   2.545   0.839   7.072 -1.4280  0.0769  0.4171
  143OSM    H6G15738   2.626   0.680   7.061  0.9290  1.9325 -2.2572
  143OSM    C7F15739   2.490   0.690   7.221 -0.8432 -0.4460  0.8439
  143OSM    H7F15740   2.554   0.609   7.264 -0.9873  0.4594  2.7975
  143OSM    H7G15741   2.385   0.656   7.224 -0.9837 -0.0386  0.5174
  143OSM    C8F15742   2.477   0.810   7.316  0.4421  0.3815 -0.3322
  143OSM    H8F15743   2.439   0.760   7.407  1.0077 -0.5556 -0.6009
  143OSM    H8G15744   2.392   0.879   7.301 -0.9940 -1.3858 -0.4710
  143OSM    C9F15745   2.601   0.888   7.328 -0.2713 -0.2848 -0.5022
  143OSM    H9F15746   2.599   0.973   7.258 -1.8376  1.4098  1.5205
  143OSM   C10F15747   2.690   0.867   7.424 -0.4279  0.3063 -0.2683
  143OSM   H10F15748   2.776   0.934   7.430 -0.3061  0.0323  1.2426
  143OSM   C11F15749   2.686   0.761   7.528 -0.0982  0.0347  0.9467
  143OSM   H11F15750   2.780   0.702   7.516  1.0061  2.1281 -1.0320
  143OSM   H11G15751   2.604   0.689   7.508  0.1737  0.2474 -1.0222
  143OSM   C12F15752   2.682   0.809   7.675 -0.0066  0.0363 -0.6672
  143OSM   H12F15753   2.630   0.730   7.733 -0.6563  1.1527  0.2915
  143OSM   H12G15754   2.610   0.894   7.677 -0.4600 -0.3405 -0.8366
  143OSM   C13F15755   2.820   0.846   7.725 -0.4658  0.7277  0.4167
  143OSM   H13F15756   2.835   0.956   7.722  0.8802  0.5242 -1.6514
  143OSM   H13G15757   2.902   0.806   7.661  0.0736 -0.4428  1.8150
  143OSM   C14F15758   2.848   0.801   7.871  0.0585  0.5071  0.1320
  143OSM   H14F15759   2.813   0.696   7.881 -0.6809  0.6591 -0.7616
  143OSM   H14G15760   2.784   0.869   7.932 -1.9368  0.0547 -1.4226
  143OSM   C15F15761   2.996   0.811   7.926 -0.2956  0.7486 -0.4442
  143OSM   H15F15762   3.029   0.903   7.874 -0.5919  0.5379 -1.0049
  143OSM   H15G15763   3.063   0.728   7.896 -1.3496  0.2191 -1.3445
  143OSM   C16F15764   2.996   0.828   8.080  1.1271  0.1444 -0.4265
  143OSM   H16F15765   2.948   0.739   8.126  0.0973  2.0693  2.3666
  143OSM   H16G15766   2.921   0.907   8.103  0.6493 -0.4703  0.1518
  143OSM   C17F15767   3.132   0.853   8.135  0.4470  0.6034  0.2616
  143OSM   H17F15768   3.165   0.942   8.078  0.3159 -1.0777 -2.5437
  143OSM   H17G15769   3.196   0.767   8.107  1.9806  2.1990 -1.2608
  143OSM   C18F15770   3.143   0.866   8.295 -0.6457 -0.8521 -0.2698
  143OSM   H18F15771   3.114   0.763   8.324 -2.4971  0.2969  2.1523
  143OSM   H18G15772   3.083   0.949   8.339 -1.3470 -1.3887 -0.2051
  143OSM   H18H15773   3.249   0.880   8.325 -0.6327 -0.4579 -0.4886
  144OSM      N15774   1.881   6.008   5.924 -0.7149  0.1782  0.4313
  144OSM    C1515775   1.966   5.966   5.812  0.5486  0.2982  0.2879
  144OSM   H15A15776   2.062   5.937   5.852  0.2695 -0.0434  0.7263
  144OSM   H15B15777   1.988   6.046   5.742 -1.1500 -0.4618 -1.1454
  144OSM   H15C15778   1.922   5.882   5.762 -1.5408  1.2395  0.4794
  144OSM    C1415779   1.967   6.116   5.993 -0.6595 -0.8238  0.2159
  144OSM   H14A15780   1.979   6.202   5.930 -2.2081  0.8480  2.1210
  144OSM   H14B15781   2.063   6.076   6.021  0.0823  0.0762 -1.0100
  144OSM   H14C15782   1.918   6.143   6.086  0.5356  0.6448  0.4418
  144OSM    C1315783   1.748   6.054   5.877  0.4874  0.2354  0.8325
  144OSM   H13A15784   1.700   5.970   5.828 -0.6971  0.0921  2.1838
  144OSM   H13B15785   1.747   6.142   5.815  0.4259 -0.2617  0.1183
  144OSM   H13C15786   1.685   6.066   5.964 -2.6818  1.5533 -1.5571
  144OSM    C1215787   1.860   5.886   6.016  0.2311  0.4156  0.4753
  144OSM   H12A15788   1.952   5.831   6.020  0.0787 -0.1579 -2.7404
  144OSM   H12B15789   1.789   5.821   5.968  0.6376 -0.0708  0.5377
  144OSM    C1115790   1.796   5.910   6.153  0.4318 -0.1255  0.4373
  144OSM   H11A15791   1.860   5.985   6.204  1.8465 -1.2960  0.4020
  144OSM   H11B15792   1.804   5.818   6.215 -1.1129 -2.1978 -2.3145
  144OSM      P15793   1.550   5.861   6.120 -0.7850  0.0061  0.2793
  144OSM    O1315794   1.426   5.934   6.080  0.0670 -0.2145 -0.0552
  144OSM    O1415795   1.595   5.754   6.026 -0.1829  0.2004 -0.0476
  144OSM    O1115796   1.539   5.792   6.267 -0.4411 -0.6512  0.3484
  144OSM    O1215797   1.661   5.963   6.142 -0.8296 -0.6263  0.1568
  144OSM    C1S15798   1.534   5.882   6.381 -0.6982  0.3637  0.5356
  144OSM    H1S15799   1.451   5.953   6.364 -2.0251 -0.8817  1.6395
  144OSM    H1T15800   1.625   5.946   6.390  2.2593 -3.3343 -1.5452
  144OSM     NF15801   1.471   5.906   6.611 -0.4209  0.3410 -0.2686
  144OSM    HNF15802   1.547   5.966   6.636 -0.6300  1.0586 -1.3249
  144OSM    C2S15803   1.498   5.806   6.508  0.4684 -0.2409  0.7180
  144OSM    H2S15804   1.408   5.750   6.474 -1.2778  1.2983  2.7350
  144OSM    C3S15805   1.603   5.705   6.554 -0.1354 -0.6917  0.2050
  144OSM    H3S15806   1.701   5.754   6.574 -0.4851 -0.9370  2.6753
  144OSM     O315807   1.626   5.612   6.447 -0.3152  0.0211  0.3684
  144OSM    HO315808   1.586   5.647   6.367  0.4653 -2.1734 -1.0262
  144OSM    C4S15809   1.558   5.639   6.690 -0.3028  0.0568  0.3262
  144OSM    H4S15810   1.579   5.703   6.776 -0.0436 -0.2881  0.5185
  144OSM    C5S15811   1.502   5.521   6.704  0.1448  0.4556 -0.4066
  144OSM    H5S15812   1.490   5.464   6.611 -0.3013  1.2657 -0.8468
  144OSM    C6S15813   1.454   5.454   6.833 -0.4338 -0.5496  0.1356
  144OSM    H6S15814   1.503   5.355   6.842  0.7898  0.1353  1.1847
  144OSM    H6T15815   1.345   5.432   6.827 -0.7124  1.0919 -1.2943
  144OSM    C7S15816   1.489   5.527   6.962 -0.0981  0.1726  0.3498
  144OSM    H7S15817   1.433   5.477   7.044 -0.1361  0.8119  0.7189
  144OSM    H7T15818   1.451   5.631   6.954  0.7332  0.7565  3.1630
  144OSM    C8S15819   1.636   5.511   7.003 -0.2906  0.6187 -0.1998
  144OSM    H8S15820   1.713   5.548   6.932 -1.0162  1.8467 -0.3711
  144OSM    H8T15821   1.664   5.405   7.022  2.3765  1.0661 -1.4717
  144OSM    C9S15822   1.653   5.588   7.131 -0.6764 -0.1324  0.4000
  144OSM    H9S15823   1.585   5.675   7.145 -1.7927 -0.9137 -0.1297
  144OSM    H9T15824   1.755   5.632   7.135 -0.3083 -1.0267  1.1674
  144OSM   C10S15825   1.634   5.508   7.260  0.7549 -0.0509 -0.0527
  144OSM   H10S15826   1.704   5.422   7.257 -0.2770 -0.8897 -0.3110
  144OSM   H10T15827   1.537   5.455   7.267  0.5232  0.4316  0.4234
  144OSM   C11S15828   1.683   5.579   7.383  0.6487 -0.2993 -0.6237
  144OSM   H11S15829   1.627   5.674   7.396  2.0638  0.5854 -0.8482
  144OSM   H11T15830   1.784   5.624   7.369  0.7516  0.8344  3.0699
  144OSM   C12S15831   1.669   5.511   7.517 -0.3250 -0.3447 -0.3641
  144OSM   H12S15832   1.727   5.417   7.506  1.1265  0.5025 -0.0605
  144OSM   H12T15833   1.562   5.482   7.528 -1.3596  3.8889  1.9174
  144OSM   C13S15834   1.716   5.579   7.646  0.3053 -0.8678  0.1594
  144OSM   H13S15835   1.662   5.676   7.639  1.6200 -0.1404  0.0376
  144OSM   H13T15836   1.823   5.607   7.644 -0.0442  0.5430  0.5927
  144OSM   C14S15837   1.675   5.502   7.776  0.1926  0.1089  0.1930
  144OSM   H14S15838   1.740   5.411   7.777 -1.6355 -1.2266 -0.5718
  144OSM   H14T15839   1.575   5.459   7.756  0.4645 -0.4929  0.0948
  144OSM   C15S15840   1.684   5.576   7.911  0.4031 -0.0516  0.2926
  144OSM   H15S15841   1.627   5.518   7.987  1.3234  0.2132  1.1960
  144OSM   H15T15842   1.648   5.679   7.892  1.1235  0.3545  1.1001
  144OSM   C16S15843   1.825   5.582   7.969  0.2712  0.6508 -0.1447
  144OSM   H16S15844   1.816   5.649   8.057 -2.7398  1.7191 -1.1947
  144OSM   H16T15845   1.901   5.624   7.900  0.9350 -0.7058 -0.2646
  144OSM   C17S15846   1.867   5.448   8.022  0.8837 -0.4283 -0.0557
  144OSM   H17S15847   1.880   5.388   7.930  1.3084 -0.8234  0.2576
  144OSM   H17T15848   1.788   5.409   8.089  0.9674 -1.9282 -0.8054
  144OSM   C18S15849   2.001   5.451   8.094 -0.3322 -0.3263  0.8909
  144OSM   H18S15850   2.038   5.347   8.083 -0.0133 -0.0272 -0.9161
  144OSM   H18T15851   1.995   5.477   8.202 -1.0119 -0.4285  0.8841
  144OSM   H18U15852   2.070   5.515   8.035  0.4904 -0.8100  1.3164
  144OSM    C1F15853   1.349   5.947   6.627  0.4659  0.0121  0.2205
  144OSM     OF15854   1.253   5.890   6.574 -0.1841  0.0764 -0.1721
  144OSM    C2F15855   1.332   6.076   6.700  0.0245 -0.3627 -0.6030
  144OSM    H2F15856   1.391   6.156   6.651  0.8409  0.1895  1.2341
  144OSM    H2G15857   1.360   6.058   6.806  1.7727 -0.1402 -1.0105
  144OSM    C3F15858   1.194   6.133   6.692  0.9103  0.3391  0.3518
  144OSM    H3F15859   1.124   6.046   6.692  1.2198  0.0623  2.7777
  144OSM    H3G15860   1.179   6.170   6.589 -0.5073 -3.9364 -1.0888
  144OSM    C4F15861   1.158   6.223   6.812 -0.4790  0.1347  0.5783
  144OSM    H4F15862   1.166   6.168   6.909  1.6618 -0.6434  0.0036
  144OSM    H4G15863   1.060   6.270   6.792 -1.5351 -1.4019  2.0035
  144OSM    C5F15864   1.253   6.347   6.816 -0.1236  0.1071  0.5399
  144OSM    H5F15865   1.238   6.410   6.725 -0.3179 -2.4233 -1.2315
  144OSM    H5G15866   1.352   6.298   6.812  0.3948  0.8929  3.2008
  144OSM    C6F15867   1.228   6.433   6.936  0.0173  0.1828 -0.4657
  144OSM    H6F15868   1.268   6.379   7.024  1.2071 -0.8770 -1.6495
  144OSM    H6G15869   1.117   6.441   6.945 -0.0156 -3.0384  2.7457
  144OSM    C7F15870   1.273   6.578   6.939  0.0967  0.1897  0.4881
  144OSM    H7F15871   1.254   6.629   6.842  1.1149  0.0056  0.1849
  144OSM    H7G15872   1.384   6.587   6.934  0.3072 -1.4684  1.8464
  144OSM    C8F15873   1.220   6.653   7.053 -0.1016 -0.2712 -0.6646
  144OSM    H8F15874   1.114   6.622   7.059 -0.0195 -0.5184 -0.4696
  144OSM    H8G15875   1.214   6.761   7.029  3.0888 -0.1250 -1.0352
  144OSM    C9F15876   1.279   6.632   7.190  0.0609 -0.4216  0.8148
  144OSM    H9F15877   1.291   6.526   7.215 -2.3770 -1.1144 -0.8216
  144OSM   C10F15878   1.312   6.729   7.277  0.0168  0.1409  0.8914
  144OSM   H10F15879   1.358   6.695   7.371  3.0190 -0.5831 -0.8038
  144OSM   C11F15880   1.305   6.881   7.269  0.7111  0.3139  0.1849
  144OSM   H11F15881   1.251   6.918   7.179 -0.0393 -0.0247  0.4826
  144OSM   H11G15882   1.410   6.915   7.261  0.5257  0.7939 -0.2043
  144OSM   C12F15883   1.241   6.954   7.389 -0.4963  0.2109  0.3268
  144OSM   H12F15884   1.131   6.964   7.390 -0.6692 -1.3338 -1.2706
  144OSM   H12G15885   1.274   7.060   7.380 -1.0075  0.3912  0.5813
  144OSM   C13F15886   1.278   6.899   7.523  0.1626  0.4416 -0.0134
  144OSM   H13F15887   1.386   6.873   7.527 -0.1123 -0.7627 -0.2478
  144OSM   H13G15888   1.208   6.814   7.537 -1.2746  1.4398 -0.9850
  144OSM   C14F15889   1.238   6.992   7.642 -0.0062  0.2261 -0.3579
  144OSM   H14F15890   1.133   7.028   7.629 -0.0194  0.4876  0.4407
  144OSM   H14G15891   1.301   7.083   7.631 -0.2065  0.6059  1.5493
  144OSM   C15F15892   1.269   6.922   7.778 -1.2437  1.0873 -0.1027
  144OSM   H15F15893   1.204   6.831   7.784 -1.5306  1.2953 -0.0573
  144OSM   H15G15894   1.240   6.991   7.860  1.5506  3.1428 -0.7761
  144OSM   C16F15895   1.414   6.880   7.796 -0.2026  0.7862  0.2319
  144OSM   H16F15896   1.483   6.966   7.784  0.9667  0.0325  1.4444
  144OSM   H16G15897   1.445   6.814   7.712 -0.3920  0.0404  0.7413
  144OSM   C17F15898   1.431   6.818   7.936 -0.3910 -0.2883  0.9692
  144OSM   H17F15899   1.408   6.709   7.935  0.5686 -0.4938  0.3530
  144OSM   H17G15900   1.371   6.863   8.018  1.4680 -1.1358  2.8666
  144OSM   C18F15901   1.577   6.812   7.984 -0.0808  0.3294 -0.2021
  144OSM   H18F15902   1.611   6.913   8.015  0.3216  0.4244 -0.9434
  144OSM   H18G15903   1.648   6.799   7.899  0.9849  0.8878  0.5910
  144OSM   H18H15904   1.599   6.754   8.076  0.9575 -0.9401 -1.2365
  145SAPE     N15905   5.975   0.778  10.786  0.3366 -0.5422  0.8025
  145SAPE   HN115906   5.884   0.776  10.836  0.0404  2.0641  0.4232
  145SAPE   HN215907   6.041   0.715  10.835  0.3723 -1.4661 -0.4113
  145SAPE   HN315908   6.007   0.876  10.801  1.2818 -0.9915  1.8087
  145SAPE   C1215909   5.958   0.739  10.642 -0.1293  0.1538  0.1901
  145SAPE  H12A15910   5.867   0.790  10.603  0.0584 -0.1588 -0.6742
  145SAPE  H12B15911   5.938   0.629  10.642 -1.3989  0.3128 -3.2064
  145SAPE   C1115912   6.089   0.773  10.560 -0.1406  0.3866 -0.0043
  145SAPE  H11A15913   6.096   0.883  10.541 -2.7029  0.5898 -0.0361
  145SAPE  H11B15914   6.076   0.722  10.462 -0.0875 -0.3826  0.3882
  145SAPE     P15915   6.345   0.690  10.564  0.0794 -0.3080 -0.3121
  145SAPE   O1315916   6.437   0.811  10.558  0.3073 -0.2653  0.5003
  145SAPE   O1415917   6.391   0.574  10.638 -0.6868 -0.4161  0.0869
  145SAPE   O1215918   6.208   0.734  10.637  0.5128  0.6044 -0.5212
  145SAPE   O1115919   6.306   0.651  10.422  0.0753  0.6824  0.3615
  145SAPE    C115920   6.284   0.525  10.360 -0.3716 -0.1090  0.7011
  145SAPE    HA15921   6.360   0.450  10.390 -0.9182 -0.5927  0.8964
  145SAPE    HB15922   6.184   0.488  10.392 -0.1660 -1.1075  0.2104
  145SAPE    C215923   6.287   0.529  10.204  0.0028  0.5277 -0.1335
  145SAPE    HS15924   6.389   0.556  10.168  0.7610 -2.3715 -0.2923
  145SAPE   O2115925   6.180   0.610  10.155 -0.1325 -0.7071 -0.2974
  145SAPE   C2115926   6.210   0.736  10.151 -0.0405 -0.8636  0.4686
  145SAPE   O2215927   6.323   0.785  10.149  0.1618 -0.3446  0.0930
  145SAPE   C2215928   6.083   0.817  10.144 -0.5262  0.1947 -0.1709
  145SAPE   H2R15929   6.011   0.758  10.082 -1.4572  0.8890  0.2331
  145SAPE   H2S15930   6.042   0.834  10.246 -1.7425  0.6494 -0.7259
  145SAPE    C315931   6.268   0.390  10.145  0.3512 -0.5026  0.4961
  145SAPE    HX15932   6.164   0.361  10.171 -0.6781  0.9125 -1.7883
  145SAPE    HY15933   6.327   0.313  10.199  1.1450  0.6178  1.2433
  145SAPE   O3115934   6.278   0.389  10.000  0.4729  0.6143 -0.3361
  145SAPE   C3115935   6.401   0.372   9.960  0.2108 -0.0362  0.1481
  145SAPE   O3215936   6.504   0.369  10.025 -0.5819  0.0903 -0.9149
  145SAPE   C3215937   6.397   0.368   9.805 -0.5376  0.0833  0.0869
  145SAPE   H2X15938   6.358   0.463   9.762  0.4669  1.1068  1.3856
  145SAPE   H2Y15939   6.319   0.298   9.768 -1.3014 -0.8378  3.2793
  145SAPE   C2315940   6.108   0.948  10.070 -0.3143 -0.4761 -0.3684
  145SAPE   H3R15941   6.190   1.011  10.110  0.9501 -1.0631 -1.9654
  145SAPE   H3S15942   6.016   1.009  10.079 -0.2233 -0.6374  1.8362
  145SAPE   C2415943   6.127   0.937   9.916 -0.5475 -0.7742  0.7904
  145SAPE   H4R15944   6.225   0.890   9.893 -0.0919  0.6108 -0.1638
  145SAPE   H4S15945   6.131   1.037   9.870 -2.6232 -1.7711 -1.6521
  145SAPE   C2515946   6.010   0.870   9.847 -0.1364  0.2067  0.6400
  145SAPE   H5R15947   5.913   0.923   9.847 -1.6402 -2.4413  2.6346
  145SAPE   C2615948   6.013   0.748   9.785 -0.1179  1.1714  0.8182
  145SAPE   H6R15949   5.919   0.705   9.749  0.7886  2.0261 -2.7736
  145SAPE   C2715950   6.142   0.672   9.765  0.5859  0.0556  0.9816
  145SAPE   H7R15951   6.207   0.702   9.850  1.9414  0.8512 -0.3044
  145SAPE   H7S15952   6.197   0.704   9.674  0.9470 -0.2907  1.0754
  145SAPE   C2815953   6.111   0.524   9.766  0.6224  0.2361  0.0036
  145SAPE   H8R15954   6.116   0.484   9.869 -0.7376  0.6527  0.2445
  145SAPE   C2915955   6.090   0.438   9.662 -0.5063 -0.5948  0.2449
  145SAPE   H9R15956   6.066   0.333   9.682 -0.4514 -0.8070 -0.7882
  145SAPE  C21015957   6.093   0.469   9.518  0.3516 -0.0993  0.9921
  145SAPE  H10R15958   6.091   0.580   9.509 -0.3530 -0.2818 -1.5150
  145SAPE  H10S15959   6.001   0.439   9.464  0.1578  2.1380  0.0183
  145SAPE  C21115960   6.209   0.399   9.450  0.5071  0.3824 -0.3814
  145SAPE  H11R15961   6.307   0.430   9.489  1.0016  1.8692 -2.7177
  145SAPE  C21215962   6.206   0.341   9.331 -0.0661  0.6074 -0.2160
  145SAPE  H12R15963   6.300   0.297   9.295 -0.9032 -0.4568 -1.1578
  145SAPE  C21315964   6.089   0.321   9.247  0.0283  0.1497 -0.1425
  145SAPE  H13R15965   5.991   0.302   9.297  1.4356 -2.6111  1.6654
  145SAPE  H13S15966   6.104   0.232   9.183 -1.1616  0.3361 -0.6999
  145SAPE  C21415967   6.095   0.452   9.168  0.7856  0.0840  0.1684
  145SAPE  H14R15968   6.122   0.543   9.224 -0.3645 -0.0953  1.0448
  145SAPE  C21515969   6.069   0.467   9.030 -0.2229  0.1829  0.4288
  145SAPE  H15R15970   6.076   0.563   8.978 -0.9935 -0.1198 -0.2349
  145SAPE  C21615971   6.027   0.350   8.947  0.4086 -0.7133 -0.3899
  145SAPE  H16R15972   5.938   0.299   8.989 -1.2863  0.6812 -2.1923
  145SAPE  H16S15973   6.111   0.279   8.930  0.4370 -0.6269 -0.6198
  145SAPE  C21715974   5.984   0.410   8.807  0.0804 -0.7909 -0.3979
  145SAPE  H17R15975   6.075   0.445   8.754  0.4620 -0.3908  0.4995
  145SAPE  H17S15976   5.906   0.487   8.824  0.9355 -0.0185  0.0597
  145SAPE  C21815977   5.921   0.297   8.727 -0.2184  0.4996 -0.1875
  145SAPE  H18R15978   5.826   0.264   8.774 -0.5636 -0.7096 -1.7030
  145SAPE  H18S15979   5.973   0.199   8.726 -1.7805 -0.3488 -1.9231
  145SAPE  C21915980   5.898   0.331   8.581 -1.0577  0.4580  0.1741
  145SAPE  H19R15981   5.855   0.434   8.582 -0.4397  0.7153  0.6322
  145SAPE  H19S15982   5.835   0.249   8.539 -1.0583 -0.4767  1.9687
  145SAPE  C22015983   6.028   0.321   8.502  0.3457  0.2912 -0.1182
  145SAPE  H20R15984   6.065   0.218   8.521 -0.2917 -0.0061 -0.4761
  145SAPE  H20S15985   6.113   0.380   8.542  1.2027 -1.2206  0.3229
  145SAPE  H20T15986   6.022   0.329   8.392  1.0025 -0.9404 -0.2459
  145SAPE   C3315987   6.539   0.349   9.741 -0.0288  0.8342  0.2904
  145SAPE   H3X15988   6.618   0.405   9.795 -0.4115 -0.0130  1.7562
  145SAPE   H3Y15989   6.525   0.397   9.642 -0.1145 -1.1470 -0.6683
  145SAPE   C3415990   6.577   0.202   9.734 -0.1396 -0.6168  0.8978
  145SAPE   H4X15991   6.488   0.139   9.710 -0.5007  0.7701 -1.5786
  145SAPE   H4Y15992   6.625   0.183   9.832 -0.7812 -0.9301  1.1553
  145SAPE   C3515993   6.699   0.172   9.636  0.8957  0.8782 -0.6135
  145SAPE   H5X15994   6.718   0.063   9.635 -0.5529  0.6227 -0.9673
  145SAPE   H5Y15995   6.785   0.212   9.694  1.2179  0.0394 -0.5133
  145SAPE   C3615996   6.681   0.234   9.501 -0.0628  0.2983 -0.2720
  145SAPE   H6X15997   6.764   0.190   9.441 -0.6922 -0.1609 -0.8179
  145SAPE   H6Y15998   6.682   0.345   9.501 -0.5023  0.3050 -0.1292
  145SAPE   C3715999   6.556   0.195   9.416  0.0791 -0.5826 -0.3683
  145SAPE   H7X16000   6.469   0.243   9.465  0.4156  0.7599 -1.0905
  145SAPE   H7Y16001   6.548   0.084   9.409 -1.6330 -0.3043 -4.1071
  145SAPE   C3816002   6.555   0.240   9.263  0.2938  0.4660 -0.3125
  145SAPE   H8X16003   6.453   0.221   9.225 -0.7538  1.7791  1.7771
  145SAPE   H8Y16004   6.628   0.170   9.217 -0.1168 -0.3526  0.2630
  145SAPE   C3916005   6.598   0.389   9.248  0.8498  0.3729  0.3052
  145SAPE   H9X16006   6.709   0.382   9.249  0.8792  0.4870 -1.2555
  145SAPE   H9Y16007   6.565   0.446   9.338 -0.2245  0.7405 -0.3071
  145SAPE  C31016008   6.550   0.447   9.113 -0.5486  0.7485 -0.9763
  145SAPE  H10X16009   6.595   0.549   9.111  0.6098  0.2671 -0.1354
  145SAPE  H10Y16010   6.440   0.451   9.097 -0.7519 -1.4008 -0.2999
  145SAPE  C31116011   6.614   0.365   8.997  0.0298  0.5441  0.9071
  145SAPE  H11X16012   6.574   0.261   8.990  0.1231  0.6186 -0.8076
  145SAPE  H11Y16013   6.723   0.363   9.021  0.1555  1.0874  0.3678
  145SAPE  C31216014   6.588   0.424   8.861 -0.9527  0.3793  0.7176
  145SAPE  H12X16015   6.629   0.528   8.855 -0.3871  0.1794  1.1036
  145SAPE  H12Y16016   6.481   0.445   8.841 -0.9483  1.2427  1.5608
  145SAPE  C31316017   6.651   0.343   8.746  0.2815 -0.2123 -0.1776
  145SAPE  H13X16018   6.604   0.243   8.760 -0.6131  0.2164 -0.0458
  145SAPE  H13Y16019   6.759   0.347   8.770  0.2543  0.6495 -0.1940
  145SAPE  C31416020   6.618   0.386   8.605  0.6802  0.2058 -0.5192
  145SAPE  H14X16021   6.699   0.340   8.545 -0.8042 -0.4590 -2.0606
  145SAPE  H14Y16022   6.619   0.495   8.582  0.6148  0.1222 -0.9289
  145SAPE  C31516023   6.489   0.325   8.542  0.5814  0.5901  0.3075
  145SAPE  H15X16024   6.476   0.382   8.447  0.8149  0.2214  0.0566
  145SAPE  H15Y16025   6.399   0.354   8.601  1.8945  1.9154  1.7342
  145SAPE  C31616026   6.486   0.174   8.525  0.1407 -0.4561 -0.0933
  145SAPE  H16X16027   6.523   0.121   8.615  0.5852  2.7487  1.6774
  145SAPE  H16Y16028   6.558   0.151   8.443 -0.4801 -4.7792  0.4418
  145SAPE  C31716029   6.349   0.111   8.486  0.9313  0.4823 -0.2894
  145SAPE  H17X16030   6.307   0.187   8.416 -0.7026 -1.3715 -1.3989
  145SAPE  H17Y16031   6.284   0.129   8.574  0.4498 -1.1843 -0.2842
  145SAPE  C31816032   6.341  -0.038   8.440 -0.9880  0.2081 -0.1220
  145SAPE  H18X16033   6.395  -0.106   8.509 -1.8656 -1.7762 -1.3758
  145SAPE  H18Y16034   6.399  -0.047   8.345  0.8789  2.2712  0.7567
  145SAPE  H18Z16035   6.235  -0.061   8.418 -2.1005  4.3973  0.3678
  146SAPE     N16036   5.921   2.203  10.735  0.0230 -0.0890  0.8064
  146SAPE   HN116037   5.960   2.272  10.802 -2.8737  1.5291  0.9108
  146SAPE   HN216038   5.878   2.265  10.664  0.4286 -0.2034  0.4580
  146SAPE   HN316039   5.850   2.147  10.786 -1.1987  0.8336  0.1428
  146SAPE   C1216040   6.018   2.112  10.676  0.1613  0.7038 -0.2384
  146SAPE  H12A16041   6.075   2.076  10.764 -3.5553  0.5569  2.2083
  146SAPE  H12B16042   6.092   2.169  10.616  0.7012  1.7385  1.3776
  146SAPE   C1116043   5.959   1.984  10.614 -0.5178  0.4810 -0.7916
  146SAPE  H11A16044   6.038   1.906  10.613  2.2951  3.2223 -1.6957
  146SAPE  H11B16045   5.924   2.005  10.510  0.1534 -0.4463 -1.2054
  146SAPE     P16046   5.746   1.838  10.652  0.1724 -0.1628  0.3991
  146SAPE   O1316047   5.814   1.710  10.659 -0.0753  0.0248  1.1471
  146SAPE   O1416048   5.621   1.857  10.730 -0.0774 -0.5716 -0.7456
  146SAPE   O1216049   5.854   1.939  10.698 -0.2056 -0.7745  0.0658
  146SAPE   O1116050   5.709   1.897  10.510 -0.4329 -0.0989  0.7440
  146SAPE    C116051   5.620   2.006  10.497 -0.8180 -0.6572 -0.0537
  146SAPE    HA16052   5.521   1.982  10.541 -0.8021 -1.5640 -0.4937
  146SAPE    HB16053   5.665   2.097  10.541 -0.9473 -0.3486 -0.5561
  146SAPE    C216054   5.588   2.045  10.347 -0.8809 -0.2199  0.1514
  146SAPE    HS16055   5.523   2.136  10.343 -1.1518 -0.4672 -1.5373
  146SAPE   O2116056   5.534   1.928  10.278  0.8233 -0.0538 -0.4196
  146SAPE   C2116057   5.406   1.916  10.296 -0.0517  0.2952  0.0636
  146SAPE   O2216058   5.342   1.993  10.363 -0.2130  0.2079  0.8882
  146SAPE   C2216059   5.347   1.791  10.235 -1.0541 -0.0732 -0.7297
  146SAPE   H2R16060   5.422   1.713  10.209  1.1128  0.1713  4.1847
  146SAPE   H2S16061   5.278   1.751  10.313  0.8076  1.5551  1.8233
  146SAPE    C316062   5.719   2.088  10.270  0.0577 -0.5751  0.2149
  146SAPE    HX16063   5.787   2.001  10.279 -1.3470 -1.8695 -1.1724
  146SAPE    HY16064   5.771   2.172  10.319 -3.1341  2.5781 -1.5105
  146SAPE   O3116065   5.699   2.127  10.131 -0.6225 -0.5237 -0.2353
  146SAPE   C3116066   5.791   2.088  10.038 -0.2629  0.5100  0.5875
  146SAPE   O3216067   5.899   2.039  10.053 -0.7574  0.1693 -0.2556
  146SAPE   C3216068   5.725   2.108   9.898  0.4779  0.2037 -0.6050
  146SAPE   H2X16069   5.640   2.178   9.912  0.1731 -0.5921  1.7825
  146SAPE   H2Y16070   5.685   2.011   9.863 -0.3157  1.6011 -3.7580
  146SAPE   C2316071   5.270   1.816  10.104  0.4398 -0.8973 -0.4540
  146SAPE   H3R16072   5.194   1.896  10.119  1.2520 -0.2867  0.5183
  146SAPE   H3S16073   5.208   1.729  10.075  0.1959  0.0172 -2.7273
  146SAPE   C2416074   5.349   1.867   9.972  0.2155  0.0724  0.1846
  146SAPE   H4R16075   5.382   1.969  10.002 -0.0710  0.5774 -1.2129
  146SAPE   H4S16076   5.281   1.877   9.885  0.7051 -0.4447 -0.2604
  146SAPE   C2516077   5.469   1.786   9.937  0.2553  0.2502 -0.2858
  146SAPE   H5R16078   5.531   1.752  10.021  1.4299 -1.5926 -1.8564
  146SAPE   C2616079   5.488   1.719   9.818  0.0056  0.3304 -0.8427
  146SAPE   H6R16080   5.576   1.657   9.800  0.5507  0.8313  0.0369
  146SAPE   C2716081   5.396   1.730   9.700  0.7707  0.2884 -0.4333
  146SAPE   H7R16082   5.291   1.752   9.729  1.4985 -0.8033  3.2700
  146SAPE   H7S16083   5.381   1.629   9.657 -1.0476  0.3138  0.0854
  146SAPE   C2816084   5.440   1.830   9.599  0.3885 -0.3437  0.3903
  146SAPE   H8R16085   5.385   1.924   9.610 -1.4325 -0.7130 -4.1995
  146SAPE   C2916086   5.501   1.811   9.480 -0.2861 -0.5212 -0.8925
  146SAPE   H9R16087   5.538   1.901   9.429  1.6915 -0.4837  0.5656
  146SAPE  C21016088   5.554   1.688   9.421  0.0362  0.4812  0.1081
  146SAPE  H10R16089   5.514   1.595   9.468  1.3923 -2.0582 -3.4784
  146SAPE  H10S16090   5.664   1.682   9.430  0.3439  2.7370 -1.6218
  146SAPE  C21116091   5.522   1.663   9.272 -0.7897 -0.1188 -0.3110
  146SAPE  H11R16092   5.419   1.694   9.247 -1.4855 -0.6233  1.8234
  146SAPE  C21216093   5.596   1.594   9.184  0.0144 -0.0197 -0.3314
  146SAPE  H12R16094   5.551   1.578   9.085 -2.9269  1.5041  0.7088
  146SAPE  C21316095   5.731   1.532   9.222 -0.3267  0.4117 -0.1767
  146SAPE  H13R16096   5.774   1.574   9.316  1.3764 -0.5359 -0.5200
  146SAPE  H13S16097   5.800   1.552   9.138 -0.1179 -0.4083 -0.2031
  146SAPE  C21416098   5.706   1.381   9.239 -0.1541 -0.0822 -0.4462
  146SAPE  H14R16099   5.693   1.352   9.344  1.7471  0.4856 -0.0276
  146SAPE  C21516100   5.680   1.294   9.139 -0.5668 -0.0329  0.4812
  146SAPE  H15R16101   5.662   1.185   9.141 -0.8068 -0.0139 -0.4586
  146SAPE  C21616102   5.698   1.329   8.992  0.0076  0.2022 -0.4251
  146SAPE  H16R16103   5.753   1.426   8.989  0.9334 -0.2124  1.9962
  146SAPE  H16S16104   5.609   1.362   8.936  0.9152  0.8114 -1.5263
  146SAPE  C21716105   5.794   1.236   8.922 -0.0749 -0.2323 -0.1812
  146SAPE  H17R16106   5.740   1.142   8.897  2.0396 -1.6792  0.4986
  146SAPE  H17S16107   5.879   1.207   8.989  0.6648 -0.4343 -1.2012
  146SAPE  C21816108   5.842   1.303   8.793  0.2753 -0.1278 -0.0749
  146SAPE  H18R16109   5.907   1.233   8.735  0.8493  0.6552 -0.3728
  146SAPE  H18S16110   5.895   1.399   8.811 -3.0068  1.6704  0.3984
  146SAPE  C21916111   5.725   1.334   8.696 -0.0353  0.0905 -0.1364
  146SAPE  H19R16112   5.773   1.357   8.598  0.5825  0.2049  0.1885
  146SAPE  H19S16113   5.680   1.430   8.730 -0.2694 -1.0698  2.8708
  146SAPE  C22016114   5.608   1.237   8.672 -0.6971  0.5823 -0.4178
  146SAPE  H20R16115   5.645   1.134   8.653 -0.6837  0.7110 -1.1369
  146SAPE  H20S16116   5.551   1.274   8.584 -0.7735 -0.9480 -1.0198
  146SAPE  H20T16117   5.555   1.228   8.769  0.2891 -1.8177 -0.0657
  146SAPE   C3316118   5.826   2.159   9.795  0.5863  0.4575  0.4299
  146SAPE   H3X16119   5.913   2.090   9.796  2.0636  2.2839  2.1414
  146SAPE   H3Y16120   5.870   2.257   9.819  0.2413  0.9423 -0.8921
  146SAPE   C3416121   5.771   2.176   9.657  0.7757  0.5072 -0.1407
  146SAPE   H4X16122   5.747   2.076   9.615  1.7116 -0.0466  0.6087
  146SAPE   H4Y16123   5.834   2.229   9.582  1.1588 -0.1289 -0.2714
  146SAPE   C3516124   5.640   2.250   9.658 -0.0468  0.1373  0.8771
  146SAPE   H5X16125   5.651   2.353   9.697  0.9984  1.4184 -2.6701
  146SAPE   H5Y16126   5.556   2.195   9.706 -2.2856  1.9690 -0.8244
  146SAPE   C3616127   5.601   2.280   9.512  0.2642 -0.0724 -0.1000
  146SAPE   H6X16128   5.598   2.191   9.446  1.8655  0.2610 -0.6198
  146SAPE   H6Y16129   5.686   2.339   9.473  1.4708 -1.3056  0.6366
  146SAPE   C3716130   5.481   2.371   9.497 -0.4235 -0.2717  0.2527
  146SAPE   H7X16131   5.503   2.459   9.561  1.5127 -0.7559  0.2816
  146SAPE   H7Y16132   5.387   2.329   9.540 -0.4470  0.1428  0.6076
  146SAPE   C3816133   5.458   2.421   9.355 -0.4495  0.0772  0.4873
  146SAPE   H8X16134   5.553   2.455   9.309 -1.9007  1.7622 -1.3407
  146SAPE   H8Y16135   5.398   2.514   9.364 -0.3770  0.1431  0.2941
  146SAPE   C3916136   5.398   2.324   9.257  0.5202  0.3656  0.4473
  146SAPE   H9X16137   5.298   2.291   9.294 -0.4381 -0.2475 -2.5230
  146SAPE   H9Y16138   5.460   2.233   9.239  1.5880  0.8955  1.4249
  146SAPE  C31016139   5.364   2.384   9.119  0.3125  0.5278 -0.3029
  146SAPE  H10X16140   5.282   2.458   9.129 -1.3938 -1.5944  2.1282
  146SAPE  H10Y16141   5.318   2.308   9.051  0.0217  0.0951  0.3768
  146SAPE  C31116142   5.480   2.444   9.050 -0.0709 -0.3357  0.4375
  146SAPE  H11X16143   5.546   2.358   9.023 -0.8940 -0.9011  0.1883
  146SAPE  H11Y16144   5.532   2.519   9.113  0.0989 -0.1831  0.1158
  146SAPE  C31216145   5.442   2.517   8.913  0.4369  0.2248  0.0823
  146SAPE  H12X16146   5.376   2.604   8.934 -0.4009 -0.8626  2.0354
  146SAPE  H12Y16147   5.392   2.440   8.851 -0.5819  0.3126  0.7817
  146SAPE  C31316148   5.561   2.556   8.833  0.2940 -0.1973 -0.5999
  146SAPE  H13X16149   5.609   2.466   8.788 -3.1121 -2.5644  0.2917
  146SAPE  H13Y16150   5.632   2.585   8.914 -2.1650  2.5691  0.6466
  146SAPE  C31416151   5.533   2.665   8.732 -0.4295 -0.0519 -0.2713
  146SAPE  H14X16152   5.616   2.701   8.668 -2.1304  3.8098 -0.4497
  146SAPE  H14Y16153   5.496   2.749   8.794  1.2419  1.6988 -1.5789
  146SAPE  C31516154   5.419   2.623   8.634 -0.2533  0.8750 -0.3061
  146SAPE  H15X16155   5.323   2.615   8.689 -0.5590  0.8404 -0.8503
  146SAPE  H15Y16156   5.441   2.523   8.591 -0.5258  0.8413 -0.3648
  146SAPE  C31616157   5.406   2.725   8.515  0.4488  0.7833  0.6285
  146SAPE  H16X16158   5.500   2.772   8.481 -0.2720  1.1628 -0.8769
  146SAPE  H16Y16159   5.355   2.814   8.557 -1.6632  1.1688 -2.5222
  146SAPE  C31716160   5.326   2.675   8.395  0.1619 -0.5989  0.8909
  146SAPE  H17X16161   5.329   2.748   8.312 -0.1133 -0.4494  1.0131
  146SAPE  H17Y16162   5.222   2.667   8.434 -1.1372  1.2824 -2.0657
  146SAPE  C31816163   5.370   2.541   8.332  0.2985 -0.2545  0.1313
  146SAPE  H18X16164   5.365   2.456   8.402  0.3108 -1.7293 -1.6277
  146SAPE  H18Y16165   5.473   2.547   8.291 -0.6688  0.3590 -2.3803
  146SAPE  H18Z16166   5.301   2.517   8.248 -1.7112  0.7151  1.4662
  147SAPE     N16167   0.229   4.673  11.201 -0.2392 -0.5452  0.3105
  147SAPE   HN116168   0.280   4.684  11.291  0.1238 -0.4042  0.0886
  147SAPE   HN216169   0.144   4.613  11.207  0.3284 -1.3343  0.4981
  147SAPE   HN316170   0.288   4.622  11.132 -2.2200  0.4879 -2.2582
  147SAPE   C1216171   0.186   4.802  11.137 -0.2447  0.3436  0.8910
  147SAPE  H12A16172   0.279   4.858  11.112  0.2455  0.2740  2.4919
  147SAPE  H12B16173   0.127   4.868  11.204 -1.4276  2.5077 -2.1512
  147SAPE   C1116174   0.099   4.764  11.011 -0.6129 -0.2153  0.2273
  147SAPE  H11A16175   0.075   4.861  10.963  0.0898  0.5716  1.4424
  147SAPE  H11B16176   0.003   4.717  11.043  0.8919 -2.2915  1.8660
  147SAPE     P16177   0.266   4.719  10.816  0.0771  0.1537  0.7102
  147SAPE   O1316178   0.313   4.852  10.861  0.4959  0.3210 -0.5960
  147SAPE   O1416179   0.365   4.613  10.798  0.5646 -0.5364 -0.4135
  147SAPE   O1216180   0.161   4.670  10.926 -0.4705  0.2691 -0.2599
  147SAPE   O1116181   0.177   4.729  10.685  0.4619 -0.1133 -0.1197
  147SAPE    C116182   0.065   4.645  10.654 -0.3316 -0.0251  0.3069
  147SAPE    HA16183   0.001   4.628  10.743 -2.2605  2.1820 -0.5887
  147SAPE    HB16184   0.002   4.701  10.581 -0.3638 -1.5689 -0.8682
  147SAPE    C216185   0.101   4.513  10.576 -0.4122 -0.3968 -1.0957
  147SAPE    HS16186   0.126   4.442  10.658 -1.4273 -0.2626 -0.6640
  147SAPE   O2116187   0.209   4.541  10.485 -0.4491  0.2552  0.2635
  147SAPE   C2116188   0.311   4.454  10.491  0.8574  0.8264  0.4639
  147SAPE   O2216189   0.314   4.349  10.552 -0.2512 -0.3062  0.0542
  147SAPE   C2216190   0.424   4.506  10.397  0.3492  0.1818 -0.9963
  147SAPE   H2R16191   0.414   4.616  10.384 -0.7593 -0.2442 -4.1991
  147SAPE   H2S16192   0.518   4.494  10.455  0.3975  0.6783 -0.9660
  147SAPE    C316193  -0.026   4.466  10.498  0.0259  0.3593 -0.1671
  147SAPE    HX16194  -0.057   4.537  10.419 -1.5164  0.9219  0.9379
  147SAPE    HY16195  -0.102   4.440  10.574  1.1874 -4.0412 -0.3691
  147SAPE   O3116196   0.013   4.340  10.430  0.3439 -0.0840 -0.3978
  147SAPE   C3116197  -0.026   4.227  10.488  0.2349 -0.1803  0.2798
  147SAPE   O3216198  -0.070   4.219  10.605  0.6293 -0.1842  0.6627
  147SAPE   C3216199  -0.028   4.110  10.386 -0.6465  0.2269  0.1981
  147SAPE   H2X16200  -0.123   4.126  10.331  0.3700  0.2081 -1.5784
  147SAPE   H2Y16201  -0.042   4.021  10.450  0.8505  0.7142  1.2350
  147SAPE   C2316202   0.426   4.413  10.265  0.8480  0.1048 -0.4780
  147SAPE   H3R16203   0.376   4.319  10.292 -1.8056  1.9123  1.1024
  147SAPE   H3S16204   0.534   4.394  10.243  0.9054 -0.1973  0.0711
  147SAPE   C2416205   0.353   4.467  10.143  0.7810 -0.3669  0.2141
  147SAPE   H4R16206   0.256   4.504  10.182 -0.1501 -3.4303  0.9682
  147SAPE   H4S16207   0.333   4.378  10.080  2.7152  0.4846 -1.6835
  147SAPE   C2516208   0.421   4.576  10.059  0.1747  0.0755 -0.1768
  147SAPE   H5R16209   0.446   4.661  10.124  2.9812 -1.5992  1.0272
  147SAPE   C2616210   0.441   4.590   9.925 -0.1439  0.0813 -0.4428
  147SAPE   H6R16211   0.498   4.678   9.893  0.4510 -0.0930  0.1269
  147SAPE   C2716212   0.393   4.507   9.809  0.4094 -0.1996  0.6654
  147SAPE   H7R16213   0.316   4.432   9.839 -1.1426  1.3955  0.7773
  147SAPE   H7S16214   0.483   4.449   9.780  1.1427  0.3929  1.6988
  147SAPE   C2816215   0.348   4.581   9.683 -0.2467  0.9382 -0.3579
  147SAPE   H8R16216   0.265   4.653   9.696 -0.5306  0.4635  0.5144
  147SAPE   C2916217   0.396   4.582   9.558  0.3240  0.1956  0.6390
  147SAPE   H9R16218   0.349   4.643   9.480  1.2084  2.0915  1.5475
  147SAPE  C21016219   0.513   4.504   9.504  0.5027  0.5095  0.3474
  147SAPE  H10R16220   0.562   4.449   9.587 -0.1514 -0.6460 -0.0195
  147SAPE  H10S16221   0.604   4.561   9.475  2.8748 -3.0303  0.4721
  147SAPE  C21116222   0.470   4.397   9.401 -0.3256 -0.7766  0.0057
  147SAPE  H11R16223   0.439   4.299   9.440  0.8295 -2.2107 -2.5679
  147SAPE  C21216224   0.477   4.418   9.268 -0.2221 -0.5412 -0.3035
  147SAPE  H12R16225   0.443   4.337   9.202  0.0804 -0.1924 -0.8939
  147SAPE  C21316226   0.526   4.547   9.195 -0.1290  0.4124  0.1392
  147SAPE  H13R16227   0.501   4.635   9.258 -3.0283 -1.2920  1.4718
  147SAPE  H13S16228   0.471   4.573   9.101 -0.8354  1.6214  0.8704
  147SAPE  C21416229   0.674   4.544   9.168 -0.8142  0.1306 -0.2239
  147SAPE  H14R16230   0.737   4.546   9.258  1.9718  1.7171 -2.1172
  147SAPE  C21516231   0.734   4.561   9.049 -0.3379 -0.0025  0.3056
  147SAPE  H15R16232   0.842   4.547   9.040  0.0058  2.1535  0.6716
  147SAPE  C21616233   0.667   4.582   8.908 -1.0802 -0.6591 -0.3123
  147SAPE  H16R16234   0.572   4.529   8.884 -1.4200  0.5727 -1.7125
  147SAPE  H16S16235   0.729   4.545   8.824 -0.5522 -0.3304 -0.0711
  147SAPE  C21716236   0.634   4.732   8.881 -0.4433  0.5296  0.0236
  147SAPE  H17R16237   0.725   4.796   8.893 -0.3069  0.8514 -2.4135
  147SAPE  H17S16238   0.551   4.762   8.949 -0.4671  1.1103 -0.2570
  147SAPE  C21816239   0.574   4.761   8.739  0.2389  0.2322 -0.6154
  147SAPE  H18R16240   0.497   4.683   8.721 -0.4877  0.8602 -0.2897
  147SAPE  H18S16241   0.653   4.737   8.665 -1.0553  0.6582 -2.1689
  147SAPE  C21916242   0.511   4.898   8.730 -0.0693  0.6274 -0.5502
  147SAPE  H19R16243   0.561   4.959   8.808  0.6363 -0.2567 -0.3095
  147SAPE  H19S16244   0.406   4.883   8.762 -0.7617  3.0930 -1.5203
  147SAPE  C22016245   0.511   4.942   8.590  0.0900 -0.1755  0.1681
  147SAPE  H20R16246   0.460   4.867   8.525 -0.1662  0.3507 -0.2419
  147SAPE  H20S16247   0.617   4.962   8.562  0.0271 -0.8031 -0.5550
  147SAPE  H20T16248   0.466   5.043   8.583 -0.3060 -0.3694 -0.0944
  147SAPE   C3316249   0.098   4.098  10.297  0.0861 -0.3472  0.6957
  147SAPE   H3X16250   0.188   4.071  10.357  0.3866  0.5747  0.6702
  147SAPE   H3Y16251   0.129   4.196  10.256  1.8075 -1.0739  0.1894
  147SAPE   C3416252   0.087   4.005  10.180 -0.5373  0.0125  0.2761
  147SAPE   H4X16253  -0.006   4.015  10.119  0.1613  0.7212 -0.6937
  147SAPE   H4Y16254   0.093   3.896  10.201 -0.9862 -0.2397 -0.8119
  147SAPE   C3516255   0.208   4.029  10.084  0.3518 -0.0296 -0.5822
  147SAPE   H5X16256   0.298   3.982  10.130  0.9809 -0.7332 -2.5021
  147SAPE   H5Y16257   0.229   4.137  10.071 -1.9141  0.4479 -0.4340
  147SAPE   C3616258   0.180   3.977   9.942 -0.3005  0.1323 -0.1292
  147SAPE   H6X16259   0.079   4.010   9.910  0.1478  0.2617 -1.4417
  147SAPE   H6Y16260   0.184   3.866   9.942 -1.0551  0.1019 -0.1918
  147SAPE   C3716261   0.287   4.039   9.847 -0.2265  0.0577  0.1224
  147SAPE   H7X16262   0.387   4.002   9.878  0.2445 -0.3419 -1.8019
  147SAPE   H7Y16263   0.279   4.148   9.866  0.3779  0.2922 -0.9268
  147SAPE   C3816264   0.270   4.000   9.698  0.0556 -0.0173 -0.3547
  147SAPE   H8X16265   0.166   4.014   9.659 -0.1316 -0.0399  0.1409
  147SAPE   H8Y16266   0.280   3.891   9.682  0.8703  0.0301 -0.1910
  147SAPE   C3916267   0.381   4.054   9.606  0.4557 -0.3565 -0.0268
  147SAPE   H9X16268   0.483   4.043   9.650  0.6492 -0.6158 -0.5396
  147SAPE   H9Y16269   0.355   4.162   9.596 -0.1710 -0.4652  0.4028
  147SAPE  C31016270   0.386   3.989   9.469  0.3641 -0.0081 -0.0175
  147SAPE  H10X16271   0.420   3.884   9.484  0.4892  0.2260  1.3887
  147SAPE  H10Y16272   0.465   4.039   9.409 -1.2940  1.6788 -0.8361
  147SAPE  C31116273   0.263   4.001   9.397 -0.5265 -0.2383  0.1529
  147SAPE  H11X16274   0.229   4.106   9.385  1.7346  0.5050  0.1147
  147SAPE  H11Y16275   0.179   3.940   9.438  0.0134 -0.4852  0.9084
  147SAPE  C31216276   0.275   3.958   9.252 -0.0537 -0.4119 -0.2530
  147SAPE  H12X16277   0.180   3.933   9.199 -1.5688  0.7925  1.8222
  147SAPE  H12Y16278   0.331   3.862   9.255  2.0285  0.7152 -1.9975
  147SAPE  C31316279   0.354   4.051   9.156 -0.5296 -0.9490 -0.0515
  147SAPE  H13X16280   0.451   4.073   9.204 -1.5435  2.0314  0.7642
  147SAPE  H13Y16281   0.300   4.147   9.145  1.4310 -0.0194 -1.8042
  147SAPE  C31416282   0.363   3.999   9.010 -0.7203 -0.0525  0.2561
  147SAPE  H14X16283   0.421   4.075   8.953 -0.0563  0.8306  2.0449
  147SAPE  H14Y16284   0.260   3.993   8.968 -1.6638  3.5358  1.8055
  147SAPE  C31516285   0.443   3.871   8.987 -0.0558 -0.3513  0.1499
  147SAPE  H15X16286   0.394   3.787   9.039  0.6821 -1.1116 -0.3558
  147SAPE  H15Y16287   0.541   3.882   9.039  0.8175 -3.8344 -0.6298
  147SAPE  C31616288   0.458   3.845   8.838 -0.6221  0.6532 -0.0219
  147SAPE  H16X16289   0.378   3.889   8.776 -0.1498  1.3590 -0.1360
  147SAPE  H16Y16290   0.442   3.736   8.822 -1.5569  0.7125  0.4476
  147SAPE  C31716291   0.595   3.868   8.772 -0.0343  0.0143 -0.1209
  147SAPE  H17X16292   0.673   3.820   8.835  0.5124  0.7042 -0.2676
  147SAPE  H17Y16293   0.609   3.979   8.772 -0.7916  0.1123 -0.2011
  147SAPE  C31816294   0.610   3.819   8.628 -0.2650  0.2687  0.4734
  147SAPE  H18X16295   0.552   3.724   8.623  3.3680 -1.9552 -0.9662
  147SAPE  H18Y16296   0.718   3.807   8.604 -0.6803 -1.4437 -0.6476
  147SAPE  H18Z16297   0.556   3.888   8.561 -2.1899  0.3638  2.0760
  148SAPE     N16298   1.464   0.874  10.694  0.4119  0.0773  0.0149
  148SAPE   HN116299   1.560   0.876  10.733  0.3178 -1.0112  0.3250
  148SAPE   HN216300   1.444   0.970  10.658  2.2224 -0.0480 -1.3944
  148SAPE   HN316301   1.396   0.844  10.767 -0.9821 -0.8462 -1.6276
  148SAPE   C1216302   1.460   0.787  10.571  0.3051 -0.3513 -0.0497
  148SAPE  H12A16303   1.553   0.802  10.512  0.4157 -1.1360 -0.0852
  148SAPE  H12B16304   1.373   0.817  10.509  0.5807 -0.6641 -0.5890
  148SAPE   C1116305   1.433   0.637  10.614  0.9074 -0.2921 -0.1979
  148SAPE  H11A16306   1.402   0.583  10.523  1.7223 -0.5186 -0.3435
  148SAPE  H11B16307   1.349   0.641  10.687 -0.2328  1.4711 -1.5818
  148SAPE     P16308   1.652   0.510  10.572  0.5155  0.5398 -0.4370
  148SAPE   O1316309   1.784   0.554  10.609 -0.0356 -0.2900 -0.1112
  148SAPE   O1416310   1.630   0.361  10.561  0.2408  0.2320 -0.0793
  148SAPE   O1216311   1.548   0.579  10.665 -0.2224  0.5969  0.0987
  148SAPE   O1116312   1.621   0.566  10.426  0.4723 -0.7519 -0.0135
  148SAPE    C116313   1.681   0.537  10.302  0.7478  0.7213 -0.1110
  148SAPE    HA16314   1.699   0.632  10.247 -0.9293  1.2434  0.2027
  148SAPE    HB16315   1.782   0.492  10.311 -1.0591 -3.4259  0.6459
  148SAPE    C216316   1.591   0.450  10.208  0.5934  0.1329 -0.2566
  148SAPE    HS16317   1.595   0.351  10.259  0.9662  1.0898  1.6019
  148SAPE   O2116318   1.650   0.466  10.085 -0.0616 -0.4605  0.3648
  148SAPE   C2116319   1.631   0.367  10.008 -0.4948  0.4822 -0.6352
  148SAPE   O2216320   1.582   0.257  10.038  0.2815 -0.0865 -0.1590
  148SAPE   C2216321   1.663   0.412   9.863  0.2429 -0.0428  0.0469
  148SAPE   H2R16322   1.598   0.491   9.820  0.2765 -0.1413 -0.1919
  148SAPE   H2S16323   1.764   0.459   9.868 -0.4712  1.3841  1.3949
  148SAPE    C316324   1.444   0.491  10.231  0.0245 -0.3729  0.7046
  148SAPE    HX16325   1.434   0.599  10.209  0.5475 -0.1447  1.5871
  148SAPE    HY16326   1.399   0.465  10.329 -0.5460 -3.5904 -0.3478
  148SAPE   O3116327   1.359   0.428  10.132 -0.4156 -0.3274  0.2691
  148SAPE   C3116328   1.298   0.319  10.163  0.9166  0.4832 -0.5509
  148SAPE   O3216329   1.322   0.243  10.253 -0.0806 -0.0600 -0.0909
  148SAPE   C3216330   1.191   0.293  10.050 -0.1024 -0.0743  0.6731
  148SAPE   H2X16331   1.136   0.389  10.043  4.0590  2.4073  0.0821
  148SAPE   H2Y16332   1.127   0.206  10.076 -1.7990  1.1848  0.7901
  148SAPE   C2316333   1.660   0.298   9.763  0.2450 -0.6843 -1.1286
  148SAPE   H3R16334   1.555   0.267   9.744 -0.9996  3.0350 -0.5884
  148SAPE   H3S16335   1.717   0.215   9.810  0.4629  0.4924  0.7483
  148SAPE   C2416336   1.718   0.342   9.634  0.3560 -0.6279 -0.1192
  148SAPE   H4R16337   1.813   0.393   9.663  0.7845 -0.2496 -2.1151
  148SAPE   H4S16338   1.656   0.411   9.573 -1.3722 -1.6785  0.4251
  148SAPE   C2516339   1.753   0.222   9.549  0.9693 -0.0067 -0.2561
  148SAPE   H5R16340   1.813   0.143   9.596 -0.2070 -1.6105 -1.3998
  148SAPE   C2616341   1.722   0.197   9.417 -0.2474  1.0052 -1.4315
  148SAPE   H6R16342   1.753   0.099   9.380 -0.2405 -0.7875  2.9984
  148SAPE   C2716343   1.644   0.287   9.328  0.2239 -0.8500  0.0598
  148SAPE   H7R16344   1.714   0.343   9.262  0.3707  0.0051  0.9236
  148SAPE   H7S16345   1.586   0.367   9.380 -1.5022 -0.6529 -2.0645
  148SAPE   C2816346   1.555   0.200   9.252  0.0615  0.0722  0.5537
  148SAPE   H8R16347   1.462   0.178   9.305 -0.7629 -4.0647 -2.3597
  148SAPE   C2916348   1.566   0.169   9.119 -0.1509  0.1129 -0.0245
  148SAPE   H9R16349   1.486   0.108   9.073 -0.6656  0.7540  0.0114
  148SAPE  C21016350   1.677   0.198   9.027 -0.7584  0.1537 -0.0378
  148SAPE  H10R16351   1.712   0.300   9.055  0.2224 -0.0007 -0.6917
  148SAPE  H10S16352   1.649   0.215   8.920 -0.3772  3.0781  0.2788
  148SAPE  C21116353   1.798   0.110   9.052  1.0552  0.0923 -0.1711
  148SAPE  H11R16354   1.807   0.070   9.154 -0.1692 -0.4012 -0.2449
  148SAPE  C21216355   1.883   0.061   8.959  0.3193 -0.0070  0.3833
  148SAPE  H12R16356   1.966   0.002   9.000  0.9141  1.1787  0.9090
  148SAPE  C21316357   1.883   0.088   8.810  0.1123  0.3740 -0.1237
  148SAPE  H13R16358   1.982   0.125   8.777  0.1193 -0.4098 -0.9818
  148SAPE  H13S16359   1.812   0.168   8.779 -1.9045 -2.0626 -1.9622
  148SAPE  C21416360   1.837  -0.028   8.730  0.0373 -0.0520 -0.0687
  148SAPE  H14R16361   1.745  -0.068   8.777 -0.0390 -0.1672 -0.3162
  148SAPE  C21516362   1.916  -0.089   8.639  0.5273  0.7876  0.5095
  148SAPE  H15R16363   1.869  -0.162   8.571  2.3167 -0.2178  0.3182
  148SAPE  C21616364   2.056  -0.049   8.596 -0.0026 -0.5540 -0.3379
  148SAPE  H16R16365   2.133  -0.087   8.667 -0.3072 -1.7482 -0.6388
  148SAPE  H16S16366   2.068   0.061   8.597  0.6362 -0.6173  1.4930
  148SAPE  C21716367   2.099  -0.102   8.456  0.0684  0.3597  0.2270
  148SAPE  H17R16368   2.061  -0.029   8.381  1.3095  2.6619  1.7762
  148SAPE  H17S16369   2.040  -0.194   8.436 -0.4170  0.4003  1.4299
  148SAPE  C21816370   2.248  -0.112   8.451  0.3137  0.7656  0.4739
  148SAPE  H18R16371   2.284  -0.175   8.536  3.0100 -0.7608 -1.7185
  148SAPE  H18S16372   2.287  -0.008   8.459  0.7330  0.4496  3.2128
  148SAPE  C21916373   2.299  -0.162   8.310  0.0762 -0.6080 -0.4239
  148SAPE  H19R16374   2.249  -0.097   8.235 -1.5641  0.1672  1.3107
  148SAPE  H19S16375   2.273  -0.269   8.292  2.4764 -1.3899  0.5594
  148SAPE  C22016376   2.446  -0.153   8.299  0.1878  0.3305  0.2655
  148SAPE  H20R16377   2.495  -0.231   8.361 -1.2395  0.7240  1.9538
  148SAPE  H20S16378   2.490  -0.055   8.328  2.0543 -1.3914  3.5675
  148SAPE  H20T16379   2.478  -0.157   8.193 -1.6217 -0.2592 -0.2774
  148SAPE   C3316380   1.247   0.262   9.905 -0.0902 -0.1051 -0.9093
  148SAPE   H3X16381   1.300   0.164   9.908 -1.0324 -0.5926  0.4694
  148SAPE   H3Y16382   1.320   0.343   9.886  1.0674 -0.6712  0.9651
  148SAPE   C3416383   1.137   0.242   9.804  0.3299 -0.2079  0.2980
  148SAPE   H4X16384   1.072   0.333   9.806  4.1361  2.6173  2.6656
  148SAPE   H4Y16385   1.072   0.155   9.826 -0.0558 -0.1344 -0.5338
  148SAPE   C3516386   1.192   0.237   9.664  0.8456  0.3748  0.1589
  148SAPE   H5X16387   1.260   0.151   9.648 -0.4216 -0.2886 -1.7884
  148SAPE   H5Y16388   1.259   0.325   9.653  0.5968  0.4670 -0.6431
  148SAPE   C3616389   1.094   0.233   9.548  0.7121 -0.1600  0.2225
  148SAPE   H6X16390   1.042   0.331   9.542 -0.2252 -0.7205 -1.4502
  148SAPE   H6Y16391   1.020   0.152   9.569  1.9163 -1.9342 -2.1181
  148SAPE   C3716392   1.184   0.222   9.412  0.0071 -0.4831 -0.4324
  148SAPE   H7X16393   1.244   0.128   9.411 -2.6992 -2.2615 -0.3621
  148SAPE   H7Y16394   1.263   0.300   9.416  1.7425 -2.2474  0.7018
  148SAPE   C3816395   1.100   0.223   9.289  0.1016 -0.2119  0.0157
  148SAPE   H8X16396   1.022   0.302   9.289 -3.9164 -4.0204 -1.3267
  148SAPE   H8Y16397   1.038   0.131   9.293  0.3662 -0.4139 -0.4408
  148SAPE   C3916398   1.180   0.229   9.160 -1.0420 -0.0216  0.6909
  148SAPE   H9X16399   1.240   0.137   9.143  0.3719  1.3252 -2.0852
  148SAPE   H9Y16400   1.255   0.311   9.171  2.2202 -2.9429  0.9877
  148SAPE  C31016401   1.098   0.245   9.030  0.3138  1.0339  0.4373
  148SAPE  H10X16402   1.025   0.329   9.030 -1.6734 -0.6510 -0.5278
  148SAPE  H10Y16403   1.047   0.147   9.021  2.5314 -0.1278 -0.0215
  148SAPE  C31116404   1.187   0.257   8.914  0.0205 -0.4248 -0.5257
  148SAPE  H11X16405   1.249   0.165   8.907 -0.0417 -0.6480  1.4535
  148SAPE  H11Y16406   1.257   0.342   8.927 -2.4017  1.6203 -0.4182
  148SAPE  C31216407   1.115   0.268   8.779  0.1300  0.8455  0.4744
  148SAPE  H12X16408   1.031   0.341   8.789  1.2455  1.8658  2.7371
  148SAPE  H12Y16409   1.062   0.172   8.764  1.7851 -0.2284  1.3707
  148SAPE  C31316410   1.192   0.313   8.655  0.1128 -0.1503 -0.2805
  148SAPE  H13X16411   1.232   0.413   8.682 -0.1922 -0.2699  0.6456
  148SAPE  H13Y16412   1.123   0.334   8.570  0.1401 -1.6389 -0.6851
  148SAPE  C31416413   1.311   0.235   8.610 -0.3065  0.1166  1.0062
  148SAPE  H14X16414   1.397   0.247   8.680  0.5471  0.8688 -0.1549
  148SAPE  H14Y16415   1.340   0.268   8.508  0.1030 -2.3635  0.2880
  148SAPE  C31516416   1.274   0.084   8.580  0.1382 -1.0661 -0.5656
  148SAPE  H15X16417   1.174   0.083   8.533  0.1949 -1.7184 -0.6754
  148SAPE  H15Y16418   1.257   0.039   8.680 -0.4323 -0.6388 -0.4680
  148SAPE  C31616419   1.374   0.009   8.506  0.0379  0.3156  0.1744
  148SAPE  H16X16420   1.472   0.039   8.549 -0.1572  1.5023 -0.2020
  148SAPE  H16Y16421   1.369   0.036   8.398  1.7143  2.4716  0.6065
  148SAPE  C31716422   1.367  -0.142   8.520 -0.3330 -0.4067  0.1919
  148SAPE  H17X16423   1.453  -0.178   8.460  1.9114  1.5650  2.1180
  148SAPE  H17Y16424   1.283  -0.181   8.459 -1.2307 -0.3971  1.3910
  148SAPE  C31816425   1.365  -0.192   8.664  0.4325  0.4307 -0.0161
  148SAPE  H18X16426   1.437  -0.131   8.722 -2.2372  0.7990  3.0029
  148SAPE  H18Y16427   1.402  -0.296   8.679 -1.4804 -0.0138  1.8447
  148SAPE  H18Z16428   1.262  -0.177   8.704  0.1372  1.1275 -1.0125
  149SAPE     N16429   4.413   1.397  11.301 -0.7426  0.1089 -0.5919
  149SAPE   HN116430   4.461   1.372  11.389  1.1279  1.7655 -1.1027
  149SAPE   HN216431   4.310   1.412  11.311 -0.5783  0.9046 -0.0481
  149SAPE   HN316432   4.423   1.312  11.243  0.1921 -1.5604  1.9745
  149SAPE   C1216433   4.457   1.519  11.231  0.4028  0.5844 -0.0020
  149SAPE  H12A16434   4.478   1.598  11.306  2.0507  0.7028 -0.5838
  149SAPE  H12B16435   4.375   1.564  11.169 -0.5263 -0.4898  0.4239
  149SAPE   C1116436   4.587   1.489  11.162 -0.1187 -0.1016  0.2528
  149SAPE  H11A16437   4.567   1.434  11.068 -3.4155 -0.8022  1.3038
  149SAPE  H11B16438   4.663   1.425  11.212  0.5678 -0.8296 -1.7077
  149SAPE     P16439   4.588   1.737  11.057 -0.2619 -0.0114 -0.2623
  149SAPE   O1316440   4.519   1.808  11.165 -0.7888 -0.4139 -0.5330
  149SAPE   O1416441   4.695   1.818  10.983  0.0244 -0.3065  0.4163
  149SAPE   O1216442   4.656   1.617  11.135  0.2086 -0.1406  0.2637
  149SAPE   O1116443   4.477   1.671  10.958  0.6720 -0.0732  0.3832
  149SAPE    C116444   4.529   1.590  10.848 -0.5683  1.0779 -0.1294
  149SAPE    HA16445   4.640   1.579  10.850 -0.8312 -2.0672  0.3651
  149SAPE    HB16446   4.489   1.489  10.873 -3.6883  1.8194 -1.9626
  149SAPE    C216447   4.470   1.630  10.710 -0.0388  0.0659 -0.3541
  149SAPE    HS16448   4.495   1.736  10.689 -3.1182  1.0967  1.0298
  149SAPE   O2116449   4.325   1.590  10.702  0.1559  0.0920 -0.3534
  149SAPE   C2116450   4.243   1.655  10.619  0.5659 -0.1642 -0.5328
  149SAPE   O2216451   4.274   1.738  10.539  0.7645 -0.3107  0.2277
  149SAPE   C2216452   4.107   1.593  10.642  0.2917  0.7734  0.2291
  149SAPE   H2R16453   4.119   1.483  10.633  0.5249  0.8783 -0.8940
  149SAPE   H2S16454   4.073   1.616  10.745  2.7458  1.6005  0.8835
  149SAPE    C316455   4.543   1.554  10.597  0.2211 -0.1693  0.3811
  149SAPE    HX16456   4.550   1.447  10.628  1.1768 -0.1182  0.3723
  149SAPE    HY16457   4.645   1.598  10.591  0.0867  0.1490  0.4632
  149SAPE   O3116458   4.464   1.558  10.471 -0.1621 -0.0703  0.0790
  149SAPE   C3116459   4.531   1.618  10.378 -0.1796 -0.6721 -0.3375
  149SAPE   O3216460   4.649   1.657  10.379  0.5906  0.0673 -0.2418
  149SAPE   C3216461   4.437   1.616  10.256 -0.0280  0.0634  0.3181
  149SAPE   H2X16462   4.370   1.705  10.264  0.5345  0.7536 -2.0379
  149SAPE   H2Y16463   4.373   1.528  10.276  0.0247  0.1006  0.6463
  149SAPE   C2316464   4.004   1.649  10.542 -0.2009 -0.1952  0.4070
  149SAPE   H3R16465   4.049   1.703  10.456  1.5882 -1.2968  0.6276
  149SAPE   H3S16466   3.948   1.732  10.591 -0.0793 -0.7078  1.4091
  149SAPE   C2416467   3.891   1.545  10.503 -0.3648  0.1092 -0.7034
  149SAPE   H4R16468   3.852   1.505  10.599  0.1439  0.7495 -0.2243
  149SAPE   H4S16469   3.931   1.453  10.455  2.0327  0.5733  0.3618
  149SAPE   C2516470   3.784   1.611  10.424  0.4471  0.3296  0.5718
  149SAPE   H5R16471   3.696   1.637  10.486 -1.1983  1.8470 -2.2895
  149SAPE   C2616472   3.778   1.611  10.292  0.3524 -0.0649 -0.0381
  149SAPE   H6R16473   3.691   1.647  10.236  0.1778  1.4958  1.2109
  149SAPE   C2716474   3.868   1.552  10.190 -0.4085 -0.4254  0.3171
  149SAPE   H7R16475   3.817   1.486  10.117 -1.0502 -2.1236  2.2518
  149SAPE   H7S16476   3.953   1.501  10.241 -1.8906 -3.1034  0.2027
  149SAPE   C2816477   3.925   1.667  10.114  0.4943  0.0121  0.6673
  149SAPE   H8R16478   3.954   1.757  10.170  3.7719  0.0416 -0.9363
  149SAPE   C2916479   3.934   1.677   9.980  0.2868 -0.0168 -0.0672
  149SAPE   H9R16480   3.992   1.762   9.940  2.3313 -0.8878  0.9426
  149SAPE  C21016481   3.890   1.561   9.888 -0.0071  0.1778  0.2829
  149SAPE  H10R16482   3.891   1.459   9.931  0.7418  0.1102  0.1120
  149SAPE  H10S16483   3.960   1.540   9.804 -0.6916  0.7608 -0.4518
  149SAPE  C21116484   3.750   1.598   9.838  0.3594  0.6633  0.2198
  149SAPE  H11R16485   3.679   1.603   9.922 -0.6450 -0.2949 -0.5563
  149SAPE  C21216486   3.705   1.634   9.713  0.5637 -0.6474  0.1777
  149SAPE  H12R16487   3.598   1.655   9.700  1.2868  3.0945 -0.2431
  149SAPE  C21316488   3.792   1.643   9.585 -0.0054 -0.1180 -0.4732
  149SAPE  H13R16489   3.789   1.550   9.524 -1.5711 -1.8669  2.1755
  149SAPE  H13S16490   3.900   1.645   9.609 -0.2365 -0.7604  0.6479
  149SAPE  C21416491   3.742   1.765   9.508  0.1867  0.2563  0.2439
  149SAPE  H14R16492   3.701   1.852   9.561 -1.3791  0.1687 -0.7717
  149SAPE  C21516493   3.737   1.784   9.376  0.0225 -0.2469 -0.9135
  149SAPE  H15R16494   3.710   1.882   9.335  1.1071  0.3522 -0.2325
  149SAPE  C21616495   3.788   1.680   9.272 -0.4130  0.3486 -0.9052
  149SAPE  H16R16496   3.703   1.620   9.232  0.8276 -1.0296 -1.5475
  149SAPE  H16S16497   3.863   1.611   9.316  0.6846  1.8201 -0.4178
  149SAPE  C21716498   3.846   1.754   9.154 -0.5013  0.5993 -0.7911
  149SAPE  H17R16499   3.945   1.791   9.189 -1.1989  1.2436  0.5318
  149SAPE  H17S16500   3.777   1.832   9.114 -0.5304  1.1779  0.3726
  149SAPE  C21816501   3.873   1.643   9.048 -0.0213 -0.8869 -0.9573
  149SAPE  H18R16502   3.775   1.599   9.021 -1.2912  1.1005  0.3213
  149SAPE  H18S16503   3.939   1.563   9.089  0.1761  0.1336  0.7790
  149SAPE  C21916504   3.927   1.709   8.919  0.2280  0.3783 -0.2414
  149SAPE  H19R16505   4.037   1.727   8.923  0.4237 -0.8577 -0.0624
  149SAPE  H19S16506   3.889   1.811   8.896  3.6853  1.7123 -0.4508
  149SAPE  C22016507   3.916   1.616   8.797  0.5507 -0.3688  0.4524
  149SAPE  H20R16508   3.812   1.618   8.759  0.6738 -2.0797  0.0023
  149SAPE  H20S16509   3.946   1.512   8.823  1.3566 -0.2556  0.0118
  149SAPE  H20T16510   3.984   1.646   8.714  0.3639  0.0310  0.4427
  149SAPE   C3316511   4.510   1.614  10.123 -0.7647 -0.0571 -0.5596
  149SAPE   H3X16512   4.615   1.579  10.138  0.0214  2.6147  0.5558
  149SAPE   H3Y16513   4.522   1.715  10.079  0.3003  0.6402  1.2649
  149SAPE   C3416514   4.445   1.519  10.021  0.1904  0.4934 -0.0135
  149SAPE   H4X16515   4.340   1.553  10.008 -0.1227  0.4722  2.1711
  149SAPE   H4Y16516   4.461   1.417  10.061  1.9471  0.2953 -1.1585
  149SAPE   C3516517   4.510   1.521   9.882 -0.2264  0.6941 -0.3365
  149SAPE   H5X16518   4.463   1.460   9.802  2.5524 -0.1155 -1.4024
  149SAPE   H5Y16519   4.616   1.493   9.898 -0.0377  0.4928 -1.8686
  149SAPE   C3616520   4.511   1.659   9.811  0.1844  0.2003 -0.5055
  149SAPE   H6X16521   4.574   1.682   9.723  0.5409 -2.2141 -0.9023
  149SAPE   H6Y16522   4.552   1.735   9.881  2.7134 -0.5834 -1.0593
  149SAPE   C3716523   4.370   1.692   9.751 -0.1981 -0.9186 -0.2206
  149SAPE   H7X16524   4.339   1.787   9.801  2.4417  0.9561 -2.0435
  149SAPE   H7Y16525   4.307   1.609   9.790  1.1951 -1.0648  1.7747
  149SAPE   C3816526   4.354   1.707   9.600 -0.0372  0.2331  0.7342
  149SAPE   H8X16527   4.402   1.623   9.544 -0.2358  0.9613 -0.5480
  149SAPE   H8Y16528   4.425   1.787   9.568  0.7198 -0.2849  1.0924
  149SAPE   C3916529   4.209   1.723   9.549  1.1640 -0.0586  0.2897
  149SAPE   H9X16530   4.176   1.799   9.623  1.3710  0.0449  0.2740
  149SAPE   H9Y16531   4.150   1.634   9.576 -0.9482  1.6081  1.3295
  149SAPE  C31016532   4.194   1.767   9.403 -0.1795 -0.7267 -0.0572
  149SAPE  H10X16533   4.245   1.866   9.400 -0.7577 -0.4386 -0.6497
  149SAPE  H10Y16534   4.086   1.790   9.388 -0.3742 -0.9329  0.9861
  149SAPE  C31116535   4.239   1.669   9.292  0.4614 -0.0309  0.8543
  149SAPE  H11X16536   4.168   1.584   9.281  0.3383  0.3016 -1.1372
  149SAPE  H11Y16537   4.327   1.615   9.333  1.9056 -0.5203 -2.6648
  149SAPE  C31216538   4.270   1.737   9.155  0.5424  0.1026 -0.2817
  149SAPE  H12X16539   4.340   1.820   9.179  0.7290 -0.1492  0.0440
  149SAPE  H12Y16540   4.179   1.785   9.114 -0.0044 -0.0430  0.7274
  149SAPE  C31316541   4.336   1.634   9.060  0.0820  0.5147  0.3598
  149SAPE  H13X16542   4.265   1.551   9.040 -1.3610  1.8970 -0.3995
  149SAPE  H13Y16543   4.429   1.586   9.099  0.1483  0.0637 -0.3510
  149SAPE  C31416544   4.359   1.684   8.916  0.1090  0.3563 -0.1990
  149SAPE  H14X16545   4.450   1.747   8.918 -0.5461  1.3003  0.7978
  149SAPE  H14Y16546   4.283   1.763   8.895  2.0046  2.1798 -0.4059
  149SAPE  C31516547   4.370   1.575   8.813 -0.0493 -0.0376 -0.0274
  149SAPE  H15X16548   4.277   1.517   8.797 -0.5657  0.4772  1.1049
  149SAPE  H15Y16549   4.455   1.508   8.837  0.2274  0.4365  0.3163
  149SAPE  C31616550   4.397   1.634   8.673  0.2998  0.4468  0.1648
  149SAPE  H16X16551   4.451   1.731   8.674  0.4343  0.4954 -3.6213
  149SAPE  H16Y16552   4.295   1.651   8.634 -0.1954 -0.4870  1.0315
  149SAPE  C31716553   4.474   1.530   8.579  0.6028  0.6802  0.4476
  149SAPE  H17X16554   4.579   1.506   8.607 -0.6823 -4.5642  1.1771
  149SAPE  H17Y16555   4.484   1.583   8.482  1.1259  0.6527  0.4863
  149SAPE  C31816556   4.396   1.401   8.562  0.0822 -0.4617  0.0093
  149SAPE  H18X16557   4.450   1.338   8.488  1.6340 -0.6078  1.2370
  149SAPE  H18Y16558   4.291   1.418   8.530 -1.1383 -1.9699  3.0733
  149SAPE  H18Z16559   4.396   1.329   8.646 -0.4890 -2.0810 -1.3500
  150SAPE     N16560   5.896   1.456  10.658  0.0672  0.7097 -0.4912
  150SAPE   HN116561   5.882   1.559  10.652 -1.6661  0.6998  2.5534
  150SAPE   HN216562   5.998   1.436  10.659 -0.2600 -1.0768 -0.3616
  150SAPE   HN316563   5.848   1.402  10.583  0.1180 -0.6102  0.4005
  150SAPE   C1216564   5.866   1.411  10.802  0.8091  0.2394 -0.2255
  150SAPE  H12A16565   5.755   1.407  10.813  0.7446  1.3940 -0.4080
  150SAPE  H12B16566   5.909   1.481  10.876  2.8931 -1.5062  0.2527
  150SAPE   C1116567   5.932   1.271  10.816 -0.1665  0.2082 -0.3309
  150SAPE  H11A16568   5.867   1.197  10.765  0.0359 -0.6945  0.6873
  150SAPE  H11B16569   5.926   1.251  10.925 -0.9315  1.8182 -0.0638
  150SAPE     P16570   6.142   1.146  10.719 -0.5042  0.6004 -0.3688
  150SAPE   O1316571   6.286   1.167  10.728  0.7014 -0.3570  0.4360
  150SAPE   O1416572   6.088   1.035  10.799 -0.2328  0.3940  0.3293
  150SAPE   O1216573   6.064   1.276  10.763 -0.5089 -0.8683  0.4553
  150SAPE   O1116574   6.099   1.140  10.564  0.8111 -0.2892  0.1634
  150SAPE    C116575   6.191   1.150  10.452 -0.5844 -0.4328 -0.4706
  150SAPE    HA16576   6.295   1.178  10.480 -0.6393  0.6859 -1.3353
  150SAPE    HB16577   6.200   1.051  10.403  1.2928 -0.8911  0.7457
  150SAPE    C216578   6.133   1.251  10.347 -0.8445  0.5764  0.5211
  150SAPE    HS16579   6.113   1.335  10.417  0.6710  1.9557 -0.6552
  150SAPE   O2116580   6.013   1.197  10.291 -0.1489  0.4134  0.3768
  150SAPE   C2116581   5.895   1.217  10.348  0.0019 -0.1711 -0.2075
  150SAPE   O2216582   5.870   1.296  10.440 -0.8264  0.4075 -0.3924
  150SAPE   C2216583   5.798   1.111  10.296  0.2997 -0.0431 -0.1561
  150SAPE   H2R16584   5.723   1.153  10.225  0.6065  0.5135 -0.1541
  150SAPE   H2S16585   5.847   1.037  10.229  1.0699  2.8102 -2.8897
  150SAPE    C316586   6.235   1.293  10.234  0.3462 -0.4898 -0.0216
  150SAPE    HX16587   6.248   1.207  10.165  0.4872  0.8423 -1.6749
  150SAPE    HY16588   6.333   1.312  10.281  0.5430 -0.4546 -0.4433
  150SAPE   O3116589   6.214   1.419  10.168 -0.3411  0.4184  0.1219
  150SAPE   C3116590   6.180   1.421  10.043 -0.3760 -0.1442 -0.3511
  150SAPE   O3216591   6.166   1.325   9.974 -0.3070 -0.7246 -0.1956
  150SAPE   C3216592   6.157   1.565   9.994 -0.8954 -0.2788 -0.6649
  150SAPE   H2X16593   6.252   1.609   9.957 -1.1714 -0.7744 -2.0060
  150SAPE   H2Y16594   6.127   1.630  10.079  0.5994 -1.4350  0.7640
  150SAPE   C2316595   5.722   1.040  10.414  0.0800 -0.8326  0.4027
  150SAPE   H3R16596   5.684   1.106  10.494 -3.4755 -0.6794 -1.3338
  150SAPE   H3S16597   5.803   0.983  10.464  1.5317  1.7330  1.0508
  150SAPE   C2416598   5.609   0.946  10.378  0.1552  0.7148  0.2391
  150SAPE   H4R16599   5.528   1.014  10.346 -0.8889 -0.2955  0.6941
  150SAPE   H4S16600   5.561   0.886  10.459 -2.0579  0.2345 -1.3824
  150SAPE   C2516601   5.658   0.852  10.264 -0.4298  0.2460 -0.3247
  150SAPE   H5R16602   5.758   0.813  10.288  0.2960  0.8358 -2.3309
  150SAPE   C2616603   5.598   0.831  10.146  0.1318 -0.1618  0.6135
  150SAPE   H6R16604   5.633   0.763  10.067  0.5472  0.9244 -0.1523
  150SAPE   C2716605   5.462   0.886  10.110 -0.2361 -0.0087 -0.4057
  150SAPE   H7R16606   5.467   0.965  10.033 -0.1190  0.8810  0.4944
  150SAPE   H7S16607   5.414   0.951  10.186 -1.8614 -0.7544 -0.7755
  150SAPE   C2816608   5.358   0.773  10.081  0.1019 -0.0058  0.8274
  150SAPE   H8R16609   5.309   0.734  10.171 -2.1616  0.1828 -0.3084
  150SAPE   C2916610   5.324   0.718   9.968  0.0098  0.1310  0.5621
  150SAPE   H9R16611   5.251   0.636   9.968 -2.2633  2.0208 -3.1689
  150SAPE  C21016612   5.376   0.751   9.829 -0.3799  0.1931  0.1118
  150SAPE  H10R16613   5.395   0.860   9.827  1.8377 -0.0304  4.0036
  150SAPE  H10S16614   5.287   0.722   9.768 -1.6159 -0.4661  2.1659
  150SAPE  C21116615   5.498   0.678   9.778  0.6191  0.1269  0.1597
  150SAPE  H11R16616   5.504   0.575   9.816 -0.3698  1.1954  3.3779
  150SAPE  C21216617   5.582   0.729   9.688  0.3027 -0.1837 -0.4039
  150SAPE  H12R16618   5.679   0.679   9.671  2.4541  3.7192 -0.0212
  150SAPE  C21316619   5.570   0.863   9.616  0.0051 -0.1519  0.3890
  150SAPE  H13R16620   5.620   0.939   9.680 -1.3875 -0.0972  1.4342
  150SAPE  H13S16621   5.468   0.904   9.605  0.5324  0.5904 -1.8448
  150SAPE  C21416622   5.649   0.862   9.483 -0.3304 -0.0642 -0.5557
  150SAPE  H14R16623   5.755   0.840   9.502 -0.5979 -0.8095  0.0851
  150SAPE  C21516624   5.608   0.919   9.367  0.2096 -0.0232  0.4660
  150SAPE  H15R16625   5.669   0.904   9.276  0.3018  0.9873  0.3638
  150SAPE  C21616626   5.480   0.994   9.334  0.6150 -0.2475  0.2480
  150SAPE  H16R16627   5.492   1.082   9.268 -2.4316 -0.9108 -1.2653
  150SAPE  H16S16628   5.457   1.043   9.431  2.2075  2.0951 -0.4925
  150SAPE  C21716629   5.359   0.903   9.278 -0.1416 -0.3928  0.3042
  150SAPE  H17R16630   5.317   0.851   9.366  0.3310  0.3270  0.9698
  150SAPE  H17S16631   5.391   0.833   9.199 -0.1399 -2.2512  1.9335
  150SAPE  C21816632   5.243   0.987   9.217  1.1941 -0.2085  0.5790
  150SAPE  H18R16633   5.236   1.089   9.260  0.8182 -0.6702  1.6453
  150SAPE  H18S16634   5.145   0.936   9.233  1.2597  0.0204  1.7651
  150SAPE  C21916635   5.266   0.982   9.062 -0.3570  0.6331  0.1173
  150SAPE  H19R16636   5.178   1.020   9.005 -0.9908 -1.2126 -0.1755
  150SAPE  H19S16637   5.275   0.876   9.030 -1.0858  0.8733 -0.8980
  150SAPE  C22016638   5.385   1.058   8.997  0.0674  0.2537  0.0459
  150SAPE  H20R16639   5.377   1.043   8.887 -2.5404  1.1688  0.0828
  150SAPE  H20S16640   5.474   1.011   9.043  1.3761  1.9674 -0.6450
  150SAPE  H20T16641   5.385   1.167   9.021  2.5520  0.1028  0.8003
  150SAPE   C3316642   6.065   1.572   9.873 -0.2131 -0.6319  0.4246
  150SAPE   H3X16643   5.962   1.535   9.889 -0.9655  0.7408 -1.1084
  150SAPE   H3Y16644   6.112   1.521   9.786  0.5381  1.1520 -0.2458
  150SAPE   C3416645   6.049   1.717   9.823  0.2157  0.9419 -0.8394
  150SAPE   H4X16646   6.143   1.764   9.788  2.9143 -2.6649  1.2246
  150SAPE   H4Y16647   5.996   1.778   9.899  0.5804  0.9825 -0.6142
  150SAPE   C3516648   5.955   1.722   9.695 -1.2567  0.5520 -1.2401
  150SAPE   H5X16649   5.851   1.718   9.734 -0.8527 -1.0681 -0.2665
  150SAPE   H5Y16650   5.981   1.627   9.644  2.1463  1.5450 -1.4247
  150SAPE   C3616651   5.973   1.837   9.595 -0.2540  0.6504 -0.5763
  150SAPE   H6X16652   6.079   1.865   9.578  0.9986 -1.5762  2.8454
  150SAPE   H6Y16653   5.942   1.929   9.649 -0.1294  1.3604 -1.7160
  150SAPE   C3716654   5.893   1.820   9.465  1.0412 -0.1188  0.5636
  150SAPE   H7X16655   5.785   1.825   9.489  1.3273  2.7217  1.4281
  150SAPE   H7Y16656   5.912   1.714   9.438 -0.0687 -0.1219 -0.2749
  150SAPE   C3816657   5.917   1.906   9.339  0.2759 -0.6177  0.2869
  150SAPE   H8X16658   5.844   1.869   9.265  0.9556 -0.6285 -0.3853
  150SAPE   H8Y16659   6.021   1.893   9.303  0.4367 -1.5839  1.0750
  150SAPE   C3916660   5.892   2.057   9.354 -0.0185 -1.2961 -0.1206
  150SAPE   H9X16661   5.967   2.093   9.428  0.5730 -0.5802 -1.0523
  150SAPE   H9Y16662   5.790   2.057   9.397  0.8806 -2.4911  2.1058
  150SAPE  C31016663   5.917   2.120   9.217 -0.3336 -0.5035  0.6737
  150SAPE  H10X16664   5.857   2.064   9.141 -1.3996  2.9306 -1.1222
  150SAPE  H10Y16665   6.024   2.109   9.193 -0.4223  1.2838 -0.5939
  150SAPE  C31116666   5.868   2.267   9.207  0.1365 -0.1381 -0.2719
  150SAPE  H11X16667   5.911   2.324   9.292  2.3505 -1.8466 -0.1730
  150SAPE  H11Y16668   5.761   2.270   9.237  0.0218  1.9567 -0.8742
  150SAPE  C31216669   5.896   2.319   9.071  0.1023  0.1868  0.0275
  150SAPE  H12X16670   5.839   2.412   9.054 -1.3695 -0.7820 -0.4263
  150SAPE  H12Y16671   5.853   2.249   8.996  0.8377  0.0857 -0.3131
  150SAPE  C31316672   6.043   2.347   9.046 -0.4681  0.2686  0.4685
  150SAPE  H13X16673   6.106   2.257   9.031 -1.0641 -0.2363  0.9388
  150SAPE  H13Y16674   6.085   2.415   9.123 -0.9035  1.6000 -0.4512
  150SAPE  C31416675   6.041   2.429   8.913  0.8548 -0.0051 -0.4046
  150SAPE  H14X16676   6.019   2.537   8.925 -1.3820 -0.7605  2.9663
  150SAPE  H14Y16677   5.965   2.388   8.842  1.0747 -0.9641 -0.0913
  150SAPE  C31516678   6.176   2.420   8.841 -0.3680 -0.7387 -0.0748
  150SAPE  H15X16679   6.163   2.333   8.774  0.5709 -0.2741 -0.8694
  150SAPE  H15Y16680   6.261   2.394   8.907 -1.2667  0.4508  1.5913
  150SAPE  C31616681   6.214   2.551   8.771 -0.4906  0.1782  0.2699
  150SAPE  H16X16682   6.325   2.545   8.778 -0.5061  2.0611  3.1414
  150SAPE  H16Y16683   6.189   2.642   8.831  0.8140  0.1042  0.9548
  150SAPE  C31716684   6.162   2.567   8.628 -0.3538  0.1981 -0.8117
  150SAPE  H17X16685   6.056   2.533   8.630 -0.6209  1.0814  1.3210
  150SAPE  H17Y16686   6.209   2.495   8.558  0.3959 -0.0732 -0.0394
  150SAPE  C31816687   6.167   2.702   8.554 -0.0534  0.5772  0.2271
  150SAPE  H18X16688   6.146   2.793   8.614  0.6616  0.9293 -0.0443
  150SAPE  H18Y16689   6.099   2.694   8.466 -2.4482 -2.7473  2.2672
  150SAPE  H18Z16690   6.274   2.714   8.527  0.0921 -1.5868 -0.2986
  151SAPE     N16691   2.987   4.617  10.423  0.0754  0.1102  0.1737
  151SAPE   HN116692   2.960   4.606  10.323  1.9676  0.2570 -0.3661
  151SAPE   HN216693   3.045   4.703  10.426 -0.7148  0.5781  2.4384
  151SAPE   HN316694   3.048   4.534  10.434  2.9202  2.3887  2.0561
  151SAPE   C1216695   2.874   4.626  10.522  0.6206  0.0303 -0.0513
  151SAPE  H12A16696   2.874   4.725  10.571 -1.8045  0.1386 -0.1873
  151SAPE  H12B16697   2.893   4.542  10.592 -1.4490 -0.3593  0.0865
  151SAPE   C1116698   2.741   4.597  10.442  0.3686  0.4318 -0.7588
  151SAPE  H11A16699   2.731   4.676  10.366 -0.6969  1.8528  0.8222
  151SAPE  H11B16700   2.654   4.609  10.510  0.5973 -3.4213  0.3425
  151SAPE     P16701   2.679   4.342  10.447  0.0620  0.0611  0.4075
  151SAPE   O1316702   2.784   4.287  10.540  0.2848 -0.6978  0.1636
  151SAPE   O1416703   2.555   4.389  10.505 -0.5816  0.1510 -0.6182
  151SAPE   O1216704   2.744   4.467  10.386  0.5010  1.2738  0.0939
  151SAPE   O1116705   2.644   4.244  10.331 -0.2937  0.4925  0.3765
  151SAPE    C116706   2.724   4.225  10.207 -0.1747 -0.2544 -0.1440
  151SAPE    HA16707   2.827   4.196  10.235  0.2083  0.6728 -0.5432
  151SAPE    HB16708   2.687   4.135  10.154  0.3421 -0.2673 -0.4868
  151SAPE    C216709   2.721   4.343  10.115  0.5194 -0.2591  0.3545
  151SAPE    HS16710   2.786   4.423  10.158  0.7894 -0.1697 -0.2074
  151SAPE   O2116711   2.586   4.388  10.100 -0.0207  0.3486  0.2442
  151SAPE   C2116712   2.567   4.523  10.083 -0.3284  0.3832 -0.0982
  151SAPE   O2216713   2.653   4.608  10.069 -0.2394  0.4942  0.3529
  151SAPE   C2216714   2.410   4.546  10.097  0.1596  0.4044 -0.0905
  151SAPE   H2R16715   2.368   4.461  10.155  0.3824  0.6814  0.4817
  151SAPE   H2S16716   2.405   4.635  10.163 -0.6262 -0.7900  1.4769
  151SAPE    C316717   2.789   4.311   9.981  0.0038 -0.2275  0.1581
  151SAPE    HX16718   2.744   4.215   9.948  1.2820 -0.0110 -2.3276
  151SAPE    HY16719   2.893   4.289  10.010 -0.8235  1.1112  4.4453
  151SAPE   O3116720   2.774   4.419   9.881 -0.1438  0.5742 -0.4911
  151SAPE   C3116721   2.869   4.514   9.888 -0.4769 -0.2355  0.1126
  151SAPE   O3216722   2.976   4.508   9.953  0.2498  0.5240  0.3731
  151SAPE   C3216723   2.835   4.622   9.783  0.6759  0.0409 -0.2181
  151SAPE   H2X16724   2.875   4.718   9.821  3.6861 -0.9481 -0.7122
  151SAPE   H2Y16725   2.726   4.638   9.796  0.3741 -1.1787 -1.0913
  151SAPE   C2316726   2.345   4.583   9.965 -0.1838  0.8079  0.4466
  151SAPE   H3R16727   2.415   4.650   9.912 -0.9553  0.9017 -0.4639
  151SAPE   H3S16728   2.249   4.638   9.967 -1.1065 -0.7439 -0.0809
  151SAPE   C2416729   2.312   4.451   9.881 -0.6308 -0.2437  0.2635
  151SAPE   H4R16730   2.238   4.480   9.802 -1.1025  1.6867  1.3866
  151SAPE   H4S16731   2.254   4.370   9.931 -1.3068 -0.8727 -1.4733
  151SAPE   C2516732   2.434   4.395   9.815 -0.3541  0.1711  0.4410
  151SAPE   H5R16733   2.505   4.356   9.889  0.3880  0.8254  0.0779
  151SAPE   C2616734   2.481   4.403   9.691 -0.1596 -0.3218 -0.1715
  151SAPE   H6R16735   2.578   4.357   9.669 -2.1077 -3.6486 -2.1737
  151SAPE   C2716736   2.420   4.475   9.571 -0.0350  0.1932  0.2122
  151SAPE   H7R16737   2.310   4.487   9.588  0.3692  0.1789  3.0853
  151SAPE   H7S16738   2.422   4.409   9.481 -0.4666 -0.3240  0.5788
  151SAPE   C2816739   2.490   4.612   9.554 -0.1143  0.6257 -0.4679
  151SAPE   H8R16740   2.581   4.634   9.610 -0.6732  0.0287  0.6832
  151SAPE   C2916741   2.458   4.702   9.457 -0.6007  0.6012  0.6257
  151SAPE   H9R16742   2.516   4.794   9.444 -0.6602  0.6162  0.4605
  151SAPE  C21016743   2.340   4.699   9.357  0.6599 -0.5764  0.1835
  151SAPE  H10R16744   2.314   4.594   9.332  0.1268 -0.4354  0.1309
  151SAPE  H10S16745   2.384   4.750   9.269  2.6052  0.6183  1.8038
  151SAPE  C21116746   2.222   4.776   9.409 -1.0544 -0.0159 -0.2598
  151SAPE  H11R16747   2.234   4.815   9.511  1.4204  0.4157 -0.6899
  151SAPE  C21216748   2.106   4.803   9.337 -0.6599 -0.1835 -1.1182
  151SAPE  H12R16749   2.019   4.856   9.379  0.5434 -0.0943  1.3314
  151SAPE  C21316750   2.075   4.754   9.200 -0.2761 -0.0877 -0.0675
  151SAPE  H13R16751   2.159   4.708   9.144 -0.5822  0.4462 -0.9752
  151SAPE  H13S16752   2.047   4.844   9.141 -0.6030  0.5688  1.0687
  151SAPE  C21416753   1.964   4.658   9.203 -0.4136  1.0509  0.0535
  151SAPE  H14R16754   1.959   4.605   9.300  2.0772  2.9078  1.2448
  151SAPE  C21516755   1.876   4.639   9.097 -0.6048 -0.1239 -0.3165
  151SAPE  H15R16756   1.792   4.569   9.108 -0.5186 -0.6332 -2.5724
  151SAPE  C21616757   1.870   4.709   8.967 -0.0451  0.4124  0.2265
  151SAPE  H16R16758   1.954   4.780   8.949  0.3441  0.0479  0.5717
  151SAPE  H16S16759   1.774   4.765   8.967 -0.5132 -0.3442  1.8061
  151SAPE  C21716760   1.854   4.625   8.840  0.2350 -0.3669  0.2359
  151SAPE  H17R16761   1.782   4.541   8.837 -0.2566 -0.0686  2.3634
  151SAPE  H17S16762   1.950   4.573   8.821  0.9524 -0.6370  4.1678
  151SAPE  C21816763   1.828   4.714   8.708 -0.5567  0.1603  0.2293
  151SAPE  H18R16764   1.914   4.779   8.681 -0.3746  0.7408  2.1261
  151SAPE  H18S16765   1.749   4.790   8.730 -0.3480 -0.1715  2.2411
  151SAPE  C21916766   1.783   4.638   8.586  0.4682 -0.5260 -0.1081
  151SAPE  H19R16767   1.695   4.574   8.607 -0.3033 -0.0242 -1.7428
  151SAPE  H19S16768   1.868   4.576   8.551  1.4058 -0.5099  2.1118
  151SAPE  C22016769   1.745   4.734   8.472 -0.1480  0.3904 -0.3699
  151SAPE  H20R16770   1.640   4.767   8.483  0.1891  0.9762  1.2397
  151SAPE  H20S16771   1.754   4.682   8.374 -2.6213  1.0901 -0.9766
  151SAPE  H20T16772   1.813   4.822   8.476 -1.0974  1.0992  0.4746
  151SAPE   C3316773   2.871   4.583   9.638  0.0636  0.0110  0.1166
  151SAPE   H3X16774   2.799   4.502   9.611 -1.5064  0.3529  3.0703
  151SAPE   H3Y16775   2.971   4.536   9.631 -0.2345 -0.2236 -3.3301
  151SAPE   C3416776   2.866   4.702   9.540  0.1982  0.3711  0.7106
  151SAPE   H4X16777   2.933   4.784   9.573  0.9242  0.1170 -0.1048
  151SAPE   H4Y16778   2.761   4.739   9.541  0.1489  0.4123 -2.1546
  151SAPE   C3516779   2.894   4.671   9.389  0.0153 -0.6605 -0.1035
  151SAPE   H5X16780   2.831   4.588   9.349  1.0328 -1.1095 -0.7770
  151SAPE   H5Y16781   2.997   4.638   9.368  0.0633  0.9546 -2.5425
  151SAPE   C3616782   2.884   4.797   9.318  0.3199  0.6460 -0.3259
  151SAPE   H6X16783   2.949   4.872   9.369 -0.9880  0.9104  1.0098
  151SAPE   H6Y16784   2.786   4.848   9.333  0.1830  0.9431 -2.1810
  151SAPE   C3716785   2.902   4.780   9.169 -0.0018 -0.1210 -0.4496
  151SAPE   H7X16786   2.849   4.688   9.135 -0.0278 -0.7490  1.2130
  151SAPE   H7Y16787   3.009   4.765   9.145  0.3643  0.1003  0.9751
  151SAPE   C3816788   2.851   4.895   9.094 -0.3436 -0.0863  0.0222
  151SAPE   H8X16789   2.903   4.989   9.120  0.4491 -0.1420 -1.3525
  151SAPE   H8Y16790   2.742   4.907   9.114 -0.3467  1.0398 -0.6381
  151SAPE   C3916791   2.873   4.879   8.942 -0.0388  0.2007 -1.4456
  151SAPE   H9X16792   2.815   4.797   8.896 -1.8448  0.6331 -0.0152
  151SAPE   H9Y16793   2.977   4.840   8.930  0.0250 -0.0414 -0.1946
  151SAPE  C31016794   2.840   5.001   8.860  0.1511  0.1654 -0.1116
  151SAPE  H10X16795   2.910   5.085   8.880 -0.5156  0.5938  0.4643
  151SAPE  H10Y16796   2.739   5.028   8.898  0.3277 -1.2378  1.4076
  151SAPE  C31116797   2.830   4.965   8.708 -0.1255 -0.6017 -0.1308
  151SAPE  H11X16798   2.760   4.879   8.700  1.4420 -1.8997 -0.0529
  151SAPE  H11Y16799   2.925   4.918   8.677 -0.5267 -0.8920 -0.9400
  151SAPE  C31216800   2.775   5.075   8.614  0.6230 -0.4633  0.0585
  151SAPE  H12X16801   2.787   5.044   8.508 -0.4592 -1.0998  0.1174
  151SAPE  H12Y16802   2.840   5.164   8.630 -1.1995  0.5731  1.8149
  151SAPE  C31316803   2.629   5.109   8.632 -0.0430  1.0091 -0.3951
  151SAPE  H13X16804   2.620   5.160   8.730 -0.2667  0.5128 -0.1564
  151SAPE  H13Y16805   2.570   5.017   8.615  1.4037  0.0243 -0.1938
  151SAPE  C31416806   2.586   5.223   8.529  0.9460 -0.0441  0.1857
  151SAPE  H14X16807   2.586   5.160   8.437 -2.1625 -1.9081  1.3530
  151SAPE  H14Y16808   2.661   5.302   8.510 -0.1039  0.2746 -2.8646
  151SAPE  C31516809   2.444   5.281   8.546  0.5744  0.9429  0.1372
  151SAPE  H15X16810   2.374   5.206   8.590 -1.5237  1.8922 -1.4633
  151SAPE  H15Y16811   2.410   5.298   8.442  0.0296  0.2951  0.2037
  151SAPE  C31616812   2.448   5.407   8.626 -0.0290 -0.0100 -0.5538
  151SAPE  H16X16813   2.516   5.478   8.575 -1.2291  1.1171 -0.6090
  151SAPE  H16Y16814   2.483   5.384   8.729 -2.6370 -0.7386  0.2097
  151SAPE  C31716815   2.314   5.487   8.626 -0.3331 -0.0913 -0.0965
  151SAPE  H17X16816   2.228   5.417   8.622 -0.3417 -0.1761  1.4489
  151SAPE  H17Y16817   2.313   5.551   8.535  2.4176  1.5098  0.9315
  151SAPE  C31816818   2.298   5.567   8.755 -0.2757 -0.7898  0.5097
  151SAPE  H18X16819   2.393   5.614   8.787  1.7499 -2.4345 -2.9181
  151SAPE  H18Y16820   2.293   5.502   8.845 -0.9304  0.4674  1.4045
  151SAPE  H18Z16821   2.216   5.643   8.749 -0.0401 -0.6330 -0.7533
  152SAPE     N16822   4.685   5.128  10.638  0.1764  0.0616  0.3620
  152SAPE   HN116823   4.672   5.222  10.680  0.2166  0.1918  0.0847
  152SAPE   HN216824   4.777   5.091  10.670 -0.3367 -1.3250  0.2925
  152SAPE   HN316825   4.695   5.139  10.535  0.1437 -1.0860  0.2243
  152SAPE   C1216826   4.570   5.039  10.678 -0.0537 -0.3926  0.0260
  152SAPE  H12A16827   4.512   5.045  10.583 -1.1895  0.1017  0.7442
  152SAPE  H12B16828   4.510   5.091  10.756  1.0543 -1.3856  1.5654
  152SAPE   C1116829   4.609   4.891  10.708 -0.4145 -0.1546  0.2352
  152SAPE  H11A16830   4.514   4.837  10.723 -0.7828 -0.0201 -1.4823
  152SAPE  H11B16831   4.678   4.880  10.794 -1.1421  0.7901  0.9368
  152SAPE     P16832   4.685   4.681  10.585 -0.5590 -0.0273 -0.2769
  152SAPE   O1316833   4.826   4.648  10.610  0.0748 -0.1053  0.0046
  152SAPE   O1416834   4.579   4.607  10.659 -1.2966  0.2921 -0.0978
  152SAPE   O1216835   4.664   4.832  10.593 -0.0352 -0.0053  0.3052
  152SAPE   O1116836   4.659   4.659  10.432  0.2768  0.5857 -0.2936
  152SAPE    C116837   4.560   4.738  10.354  0.6336  0.4744  0.5939
  152SAPE    HA16838   4.461   4.706  10.394 -0.0090 -0.0961 -1.4392
  152SAPE    HB16839   4.558   4.848  10.370 -0.8820  0.6074 -0.4392
  152SAPE    C216840   4.562   4.717  10.199  0.7447  0.0580 -0.6444
  152SAPE    HS16841   4.585   4.608  10.202 -0.1583 -0.1027  4.9876
  152SAPE   O2116842   4.668   4.797  10.142 -0.6827 -0.3197 -0.1050
  152SAPE   C2116843   4.708   4.747  10.028 -0.4678  0.8205 -0.7556
  152SAPE   O2216844   4.678   4.637   9.984 -0.1096  0.2452 -0.6143
  152SAPE   C2216845   4.788   4.852   9.947  0.4195  0.1876  0.3521
  152SAPE   H2R16846   4.824   4.922  10.025 -0.8556 -1.1342  2.1454
  152SAPE   H2S16847   4.872   4.817   9.883  1.0352 -0.8666  1.7058
  152SAPE    C316848   4.422   4.743  10.130  0.4866 -0.5400  0.7002
  152SAPE    HX16849   4.415   4.853  10.114  1.9806 -0.7185 -1.3178
  152SAPE    HY16850   4.342   4.719  10.203 -0.4924  1.3848  0.3013
  152SAPE   O3116851   4.412   4.696  10.000  0.6141  0.2717  0.1224
  152SAPE   C3116852   4.354   4.573   9.997  0.7946 -0.6278  0.0602
  152SAPE   O3216853   4.320   4.507  10.093 -0.4395  0.5483  0.1452
  152SAPE   C3216854   4.337   4.518   9.858  0.6844  0.5970  0.6720
  152SAPE   H2X16855   4.231   4.517   9.827  0.6912  0.6324  0.6481
  152SAPE   H2Y16856   4.368   4.411   9.857 -0.7621  0.0913 -4.8585
  152SAPE   C2316857   4.690   4.947   9.873  0.3706  0.2784  0.2978
  152SAPE   H3R16858   4.623   4.998   9.946  1.7169  0.1996  1.5866
  152SAPE   H3S16859   4.634   4.869   9.815  2.6293 -1.0864 -0.0949
  152SAPE   C2416860   4.769   5.050   9.790 -0.1982 -0.6249 -0.3332
  152SAPE   H4R16861   4.709   5.129   9.739  0.7382  1.0265  1.0909
  152SAPE   H4S16862   4.817   5.000   9.703  2.0314  0.7091  0.0937
  152SAPE   C2516863   4.864   5.134   9.880 -0.2883  0.3308 -0.3318
  152SAPE   H5R16864   4.813   5.163   9.973 -0.0927  1.5355 -0.5892
  152SAPE   C2616865   4.985   5.179   9.860 -0.2432  0.4250  0.1034
  152SAPE   H6R16866   5.030   5.238   9.941  1.1871 -0.8951  0.2683
  152SAPE   C2716867   5.062   5.158   9.728 -0.2379 -0.5373 -0.3584
  152SAPE   H7R16868   4.996   5.189   9.644 -3.4284 -0.0271  2.2040
  152SAPE   H7S16869   5.086   5.050   9.716  0.4665 -0.3934 -0.2618
  152SAPE   C2816870   5.195   5.229   9.724 -1.0364 -0.1819 -0.3152
  152SAPE   H8R16871   5.251   5.204   9.816  0.7628 -0.2305 -1.4143
  152SAPE   C2916872   5.256   5.302   9.626  0.0542 -0.1655 -0.6658
  152SAPE   H9R16873   5.343   5.366   9.649  1.4968 -2.1252 -0.5635
  152SAPE  C21016874   5.189   5.326   9.489  0.7420 -0.1177  0.1483
  152SAPE  H10R16875   5.172   5.435   9.476 -0.3892 -0.3806 -0.6227
  152SAPE  H10S16876   5.088   5.281   9.476  1.1059 -0.4543 -1.5675
  152SAPE  C21116877   5.269   5.262   9.379 -0.5038 -0.1116  0.4066
  152SAPE  H11R16878   5.310   5.163   9.400 -0.8503 -0.8080 -1.9829
  152SAPE  C21216879   5.310   5.310   9.265  0.0917 -0.6593  0.2045
  152SAPE  H12R16880   5.359   5.236   9.200  1.5325  0.9999 -0.6619
  152SAPE  C21316881   5.290   5.446   9.204 -0.7275  0.3573  0.0516
  152SAPE  H13R16882   5.346   5.455   9.108 -1.3724  0.6242 -0.3077
  152SAPE  H13S16883   5.339   5.525   9.264  0.0868  1.1106 -1.5587
  152SAPE  C21416884   5.149   5.468   9.159 -0.2735 -0.2316 -0.3053
  152SAPE  H14R16885   5.091   5.535   9.223 -1.4851  0.2115 -1.8308
  152SAPE  C21516886   5.081   5.415   9.057 -0.5868 -0.5338  0.2232
  152SAPE  H15R16887   4.981   5.461   9.054  0.4177  1.7808  1.2538
  152SAPE  C21616888   5.137   5.317   8.952  0.2197 -0.0422  0.0348
  152SAPE  H16R16889   5.080   5.223   8.939  0.9506 -0.6179  0.9668
  152SAPE  H16S16890   5.237   5.274   8.972 -0.1832 -2.1261 -2.1451
  152SAPE  C21716891   5.147   5.389   8.812 -0.0466 -0.1526 -0.0870
  152SAPE  H17R16892   5.221   5.472   8.819 -0.4605  0.2329 -0.2855
  152SAPE  H17S16893   5.052   5.438   8.783  0.2009  0.5872  0.3506
  152SAPE  C21816894   5.211   5.301   8.705  0.0408  0.6886  0.4994
  152SAPE  H18R16895   5.246   5.204   8.745 -1.3856 -0.7536 -1.6756
  152SAPE  H18S16896   5.294   5.359   8.661 -1.3512  0.9915 -1.8131
  152SAPE  C21916897   5.094   5.269   8.609 -0.4979  0.1813  0.2232
  152SAPE  H19R16898   5.081   5.366   8.556 -1.6165  0.4773  1.0097
  152SAPE  H19S16899   5.010   5.250   8.679 -0.2179 -0.2493  0.4402
  152SAPE  C22016900   5.109   5.157   8.508  0.3623 -0.3103 -0.6837
  152SAPE  H20R16901   5.216   5.133   8.486 -0.0009 -0.8023 -1.9118
  152SAPE  H20S16902   5.058   5.180   8.413  1.6087 -1.3662 -1.6354
  152SAPE  H20T16903   5.054   5.070   8.549  0.7651  0.6900  2.0992
  152SAPE   C3316904   4.416   4.593   9.749  0.0938 -0.3665  0.3867
  152SAPE   H3X16905   4.527   4.592   9.761  0.1945  0.8313 -0.3846
  152SAPE   H3Y16906   4.410   4.704   9.759 -0.1085 -0.3372 -0.0693
  152SAPE   C3416907   4.371   4.542   9.612 -0.1488  0.3899 -0.6329
  152SAPE   H4X16908   4.285   4.607   9.585 -1.0535 -0.2744  0.5990
  152SAPE   H4Y16909   4.342   4.435   9.618  0.8506 -0.0015 -2.5504
  152SAPE   C3516910   4.475   4.578   9.510 -0.2949 -0.8092  0.1458
  152SAPE   H5X16911   4.561   4.510   9.533  1.1110  1.0425  0.4412
  152SAPE   H5Y16912   4.515   4.679   9.533 -1.8070 -0.2334  0.2764
  152SAPE   C3616913   4.433   4.582   9.358 -0.4891 -0.3008  0.5011
  152SAPE   H6X16914   4.392   4.681   9.331 -0.5223 -0.5161 -0.2291
  152SAPE   H6Y16915   4.345   4.516   9.347 -0.6003 -0.0689  0.0010
  152SAPE   C3716916   4.546   4.547   9.262 -0.2089  0.2644  0.3754
  152SAPE   H7X16917   4.582   4.449   9.298  0.8334  0.2037 -0.7850
  152SAPE   H7Y16918   4.621   4.625   9.287  2.7579 -2.2588 -0.4739
  152SAPE   C3816919   4.522   4.550   9.109  0.5572  0.0081  0.0499
  152SAPE   H8X16920   4.458   4.463   9.082 -1.1671  0.4903  2.3904
  152SAPE   H8Y16921   4.615   4.522   9.055  0.1359 -2.5364  0.5591
  152SAPE   C3916922   4.473   4.689   9.056 -0.9024 -0.3149  0.6096
  152SAPE   H9X16923   4.548   4.765   9.084 -2.8377  1.3067  1.5044
  152SAPE   H9Y16924   4.378   4.708   9.111 -0.7566  0.8547  0.4764
  152SAPE  C31016925   4.428   4.688   8.910 -0.0775 -0.4309 -0.5254
  152SAPE  H10X16926   4.336   4.627   8.894 -0.0259 -0.4002 -0.9542
  152SAPE  H10Y16927   4.516   4.648   8.854 -0.0151 -0.3531 -0.4816
  152SAPE  C31116928   4.409   4.826   8.858  0.6557 -0.5695  0.2938
  152SAPE  H11X16929   4.493   4.892   8.886  0.8922 -0.5731 -0.4001
  152SAPE  H11Y16930   4.319   4.868   8.908  1.5317  3.0656 -1.0730
  152SAPE  C31216931   4.370   4.830   8.708 -0.2377  0.0299 -0.5818
  152SAPE  H12X16932   4.291   4.756   8.685 -0.9526  1.6420 -3.5022
  152SAPE  H12Y16933   4.459   4.804   8.647  0.4638 -0.3933  0.5859
  152SAPE  C31316934   4.310   4.968   8.673  0.2771  0.2804 -0.1266
  152SAPE  H13X16935   4.383   5.031   8.729  1.1537 -2.1306  1.5348
  152SAPE  H13Y16936   4.208   4.984   8.715  0.1881 -0.8112  0.0813
  152SAPE  C31416937   4.307   5.001   8.528 -0.0417  0.2246  0.7173
  152SAPE  H14X16938   4.408   4.989   8.484 -0.3400 -0.7923  0.2859
  152SAPE  H14Y16939   4.275   5.107   8.522 -1.0308 -0.0643  0.7699
  152SAPE  C31516940   4.199   4.926   8.448  0.5737  0.0957 -0.2211
  152SAPE  H15X16941   4.101   4.935   8.500  0.7904 -0.8887  0.3805
  152SAPE  H15Y16942   4.227   4.819   8.438 -0.8844 -0.2588 -0.6494
  152SAPE  C31616943   4.183   4.977   8.309  0.5309 -0.0551  0.2412
  152SAPE  H16X16944   4.265   4.939   8.244 -0.3904  0.0476 -0.9978
  152SAPE  H16Y16945   4.188   5.087   8.301  0.4005 -0.1335 -1.0144
  152SAPE  C31716946   4.042   4.928   8.248  0.1354  0.0149 -0.2818
  152SAPE  H17X16947   3.960   4.977   8.305  0.4944 -0.5467  0.7314
  152SAPE  H17Y16948   4.023   4.827   8.289 -3.5348  0.5509 -0.4584
  152SAPE  C31816949   4.029   4.939   8.096  0.3485  0.6630 -0.2377
  152SAPE  H18X16950   3.944   4.879   8.056  0.0080  0.4017  0.8489
  152SAPE  H18Y16951   4.121   4.896   8.051  0.2536  0.1727  0.0286
  152SAPE  H18Z16952   4.025   5.046   8.070  0.1980  0.7053 -0.0406
  153SAPE     N16953   3.812   6.625  10.611 -0.3780 -0.1577 -0.0745
  153SAPE   HN116954   3.713   6.625  10.643 -1.1466  3.0554 -2.2159
  153SAPE   HN216955   3.871   6.630  10.696 -0.4186  0.7803 -0.0937
  153SAPE   HN316956   3.821   6.715  10.560 -0.9468  0.0288  0.1472
  153SAPE   C1216957   3.833   6.506  10.521  0.3788 -0.4586 -0.4319
  153SAPE  H12A16958   3.758   6.516  10.440  0.4943  0.4188 -0.4278
  153SAPE  H12B16959   3.813   6.415  10.582 -1.0019  0.5174  0.5983
  153SAPE   C1116960   3.974   6.505  10.465 -0.2724  0.5143  0.4784
  153SAPE  H11A16961   4.001   6.591  10.399  2.8011 -1.6069 -1.1790
  153SAPE  H11B16962   3.978   6.422  10.393 -3.8964  0.7845 -0.1213
  153SAPE     P16963   4.116   6.375  10.648  0.1369 -0.3689  0.0338
  153SAPE   O1316964   4.263   6.366  10.683  0.1266 -0.4727 -0.7482
  153SAPE   O1416965   4.006   6.359  10.753 -0.6481 -0.1633  0.0084
  153SAPE   O1216966   4.080   6.510  10.570 -0.0621  0.0837 -0.1640
  153SAPE   O1116967   4.098   6.264  10.540  0.1966 -0.4012 -0.1729
  153SAPE    C116968   4.152   6.136  10.569 -0.3520  0.1734 -0.7550
  153SAPE    HA16969   4.258   6.147  10.601 -1.0620  0.0791  1.7362
  153SAPE    HB16970   4.097   6.092  10.655  1.2768  1.5237  1.0378
  153SAPE    C216971   4.152   6.048  10.443  0.8490 -0.0262  0.4136
  153SAPE    HS16972   4.143   5.943  10.479 -1.4080  0.2124  0.6079
  153SAPE   O2116973   4.261   6.060  10.362 -0.3257  0.9424 -0.1435
  153SAPE   C2116974   4.353   5.969  10.377  0.0904 -0.4541  0.5553
  153SAPE   O2216975   4.357   5.884  10.464  0.1576  0.1113 -0.1668
  153SAPE   C2216976   4.467   5.998  10.280 -0.5352 -0.2259 -0.0842
  153SAPE   H2R16977   4.448   6.096  10.232  1.0491  0.5294  0.7742
  153SAPE   H2S16978   4.557   6.004  10.345  0.3517 -2.9419 -1.0173
  153SAPE    C316979   4.019   6.075  10.355  0.4352 -0.5490 -0.8521
  153SAPE    HX16980   4.051   6.167  10.301  0.4837  0.4600  0.8343
  153SAPE    HY16981   3.937   6.106  10.424  0.7652 -0.2498 -0.5913
  153SAPE   O3116982   3.981   5.970  10.259 -0.1121 -0.7143 -0.7209
  153SAPE   C3116983   3.910   5.875  10.304 -0.4675  0.2244  0.0020
  153SAPE   O3216984   3.874   5.864  10.421  0.5362  0.1926 -0.2174
  153SAPE   C3216985   3.851   5.788  10.192  0.7328 -0.0035 -0.2174
  153SAPE   H2X16986   3.747   5.826  10.180  0.8588  0.6617  0.7214
  153SAPE   H2Y16987   3.849   5.683  10.229 -0.0427  0.3489  0.7442
  153SAPE   C2316988   4.474   5.900  10.165 -1.0944  0.2439 -0.5348
  153SAPE   H3R16989   4.515   5.807  10.209 -0.3537 -0.0466 -1.8094
  153SAPE   H3S16990   4.553   5.917  10.089 -1.5195  0.3551 -0.9522
  153SAPE   C2416991   4.343   5.865  10.095  0.2429 -0.1750  0.8450
  153SAPE   H4R16992   4.279   5.795  10.153  1.3500 -1.2169  0.8316
  153SAPE   H4S16993   4.374   5.799  10.011  2.1292  2.1364 -0.3278
  153SAPE   C2516994   4.277   5.990  10.047 -0.1086 -0.6775 -0.0259
  153SAPE   H5R16995   4.193   6.011  10.115  0.9567 -0.7482  1.3383
  153SAPE   C2616996   4.286   6.053   9.926 -0.4393 -0.4814  0.6082
  153SAPE   H6R16997   4.235   6.150   9.916  0.7666  0.2770  1.7208
  153SAPE   C2716998   4.376   6.013   9.814 -0.4228  0.0390 -0.2741
  153SAPE   H7R16999   4.462   5.951   9.847  1.7360  1.6494 -2.7028
  153SAPE   H7S17000   4.427   6.106   9.781  0.0588 -0.8915 -2.2036
  153SAPE   C2817001   4.299   5.938   9.705 -0.2162 -0.2275 -0.7491
  153SAPE   H8R17002   4.201   5.895   9.730 -0.1277 -1.0080 -1.7165
  153SAPE   C2917003   4.343   5.919   9.580 -0.2867  0.1941  0.3657
  153SAPE   H9R17004   4.279   5.859   9.514  0.7838 -2.2292  1.4846
  153SAPE  C21017005   4.482   5.947   9.528  0.9720 -0.0213 -0.4563
  153SAPE  H10R17006   4.556   5.951   9.612 -0.7214  1.5761  1.0203
  153SAPE  H10S17007   4.483   6.048   9.481  1.1525  0.4875  0.6071
  153SAPE  C21117008   4.526   5.848   9.430 -0.5814  0.8173  0.2079
  153SAPE  H11R17009   4.581   5.760   9.467 -0.7127  0.9489  0.7263
  153SAPE  C21217010   4.514   5.856   9.296  0.5101 -0.5663  0.4220
  153SAPE  H12R17011   4.557   5.775   9.236  1.4905  0.0757  0.2425
  153SAPE  C21317012   4.433   5.960   9.213  0.0407  0.5642 -0.2454
  153SAPE  H13R17013   4.478   5.946   9.113 -1.0231 -0.7330 -0.5671
  153SAPE  H13S17014   4.449   6.067   9.239  1.3597  0.4689 -0.6727
  153SAPE  C21417015   4.285   5.928   9.213  0.5833  0.6315  0.5010
  153SAPE  H14R17016   4.234   5.875   9.295  2.0244  0.0777  1.0613
  153SAPE  C21517017   4.209   5.986   9.110 -0.0041  0.1201  0.4370
  153SAPE  H15R17018   4.102   5.961   9.116 -0.3378  1.8273  1.9683
  153SAPE  C21617019   4.264   6.063   8.995 -0.0321  0.1430 -0.2593
  153SAPE  H16R17020   4.356   6.011   8.960  0.5915  0.3977  0.9770
  153SAPE  H16S17021   4.273   6.168   9.031  2.7399 -0.0474 -0.2520
  153SAPE  C21717022   4.182   6.054   8.861  0.1604 -0.4878 -1.0651
  153SAPE  H17R17023   4.092   6.118   8.866  1.1276  1.0573 -2.6933
  153SAPE  H17S17024   4.166   5.946   8.840 -0.2170 -0.4608 -0.9171
  153SAPE  C21817025   4.250   6.116   8.733 -0.1442  0.5285  0.0079
  153SAPE  H18R17026   4.189   6.099   8.642 -0.1650 -1.6152  0.4084
  153SAPE  H18S17027   4.344   6.061   8.711  0.5348  1.5642  0.2722
  153SAPE  C21917028   4.294   6.258   8.746  0.1344 -0.3699  0.0144
  153SAPE  H19R17029   4.365   6.277   8.828  2.8487 -2.7568 -1.6619
  153SAPE  H19S17030   4.199   6.307   8.774  0.8361 -0.2411  2.2207
  153SAPE  C22017031   4.348   6.324   8.618  0.2463  0.3833 -0.0601
  153SAPE  H20R17032   4.298   6.298   8.522  0.3137  0.4253 -0.1076
  153SAPE  H20S17033   4.458   6.313   8.607  0.1847 -0.7608  0.3661
  153SAPE  H20T17034   4.330   6.434   8.626  0.8238  0.3909  1.2350
  153SAPE   C3317035   3.920   5.801  10.053  0.2223  0.4307 -0.1163
  153SAPE   H3X17036   3.984   5.712  10.034  1.2889  1.0002  0.7583
  153SAPE   H3Y17037   3.979   5.894  10.040 -1.7126  1.5596 -0.8791
  153SAPE   C3417038   3.817   5.818   9.941  0.3356  0.3803 -0.5637
  153SAPE   H4X17039   3.766   5.913   9.970 -3.5846 -1.7105 -0.2487
  153SAPE   H4Y17040   3.739   5.740   9.954 -1.3057  2.3181  1.8187
  153SAPE   C3517041   3.874   5.813   9.800  0.5681  0.0267 -0.2533
  153SAPE   H5X17042   3.931   5.720   9.778 -0.4049 -1.2844  2.4409
  153SAPE   H5Y17043   3.952   5.887   9.774 -0.2207  0.6637 -0.8181
  153SAPE   C3617044   3.765   5.817   9.695  0.3025 -0.3126  0.2008
  153SAPE   H6X17045   3.698   5.904   9.712 -0.2066 -0.5817 -0.3901
  153SAPE   H6Y17046   3.696   5.734   9.721  0.7016 -0.7906 -0.2590
  153SAPE   C3717047   3.829   5.816   9.551 -0.4053 -0.0115 -0.8635
  153SAPE   H7X17048   3.865   5.712   9.539 -0.0875 -0.3664  2.5805
  153SAPE   H7Y17049   3.914   5.888   9.561 -0.0502 -0.4462 -0.7432
  153SAPE   C3817050   3.730   5.857   9.435  0.1893  0.5140 -0.3099
  153SAPE   H8X17051   3.663   5.942   9.463 -1.9937 -2.2741  3.5393
  153SAPE   H8Y17052   3.658   5.773   9.425 -0.5711  1.1459 -0.1986
  153SAPE   C3917053   3.799   5.909   9.307 -0.1140  0.1523  0.4767
  153SAPE   H9X17054   3.864   5.822   9.285 -1.3296 -0.9669  1.2224
  153SAPE   H9Y17055   3.872   5.993   9.307 -2.5147  2.2928  0.4339
  153SAPE  C31017056   3.710   5.927   9.192  0.4831 -0.9918  0.6529
  153SAPE  H10X17057   3.636   6.007   9.213  2.3851  1.1554 -0.6018
  153SAPE  H10Y17058   3.643   5.839   9.178 -0.9005  0.0642  0.4775
  153SAPE  C31117059   3.793   5.961   9.059  0.1390 -0.1574  0.1759
  153SAPE  H11X17060   3.846   5.867   9.032 -1.8400 -1.2282 -0.0800
  153SAPE  H11Y17061   3.876   6.030   9.083 -0.6811  2.2606 -3.5816
  153SAPE  C31217062   3.705   6.005   8.942 -0.4038 -0.0946 -0.8441
  153SAPE  H12X17063   3.692   6.115   8.945 -1.3232 -0.1873 -1.3243
  153SAPE  H12Y17064   3.610   5.948   8.948 -0.7301  0.4878 -0.4961
  153SAPE  C31317065   3.771   5.965   8.802 -0.2979 -0.1418  0.4262
  153SAPE  H13X17066   3.768   5.855   8.787  1.6452  0.1489 -2.4654
  153SAPE  H13Y17067   3.877   5.997   8.809 -0.0740 -0.3279 -1.9715
  153SAPE  C31417068   3.699   6.021   8.687  0.6097 -0.4723 -0.0951
  153SAPE  H14X17069   3.769   6.000   8.603 -1.5824 -1.5150 -1.6952
  153SAPE  H14Y17070   3.690   6.132   8.693  2.4312 -0.3777  1.2500
  153SAPE  C31517071   3.555   5.962   8.667  0.1471 -0.2296 -0.6620
  153SAPE  H15X17072   3.498   5.979   8.761  1.3070 -3.5104  0.7034
  153SAPE  H15Y17073   3.577   5.855   8.650  0.8630 -0.1049 -0.5247
  153SAPE  C31617074   3.460   6.007   8.546  0.3313 -0.4438  0.2323
  153SAPE  H16X17075   3.510   6.005   8.447  0.2419  3.0864  0.0634
  153SAPE  H16Y17076   3.435   6.113   8.569  0.9514 -0.3119  0.3359
  153SAPE  C31717077   3.325   5.931   8.545  0.1638 -0.8498 -0.7349
  153SAPE  H17X17078   3.276   5.969   8.637  0.0994  2.4634 -2.1010
  153SAPE  H17Y17079   3.342   5.824   8.570  0.6815 -0.4559  0.6810
  153SAPE  C31817080   3.233   5.959   8.426 -0.0126 -0.6369  0.3116
  153SAPE  H18X17081   3.173   5.871   8.394 -2.0899  1.3419 -1.4529
  153SAPE  H18Y17082   3.292   5.997   8.339 -1.3139 -0.9488 -0.7094
  153SAPE  H18Z17083   3.161   6.038   8.457  0.3128  0.7829 -2.3389
  154SAPE     N17084   5.585   5.665  10.829 -0.3637 -0.3129 -0.1217
  154SAPE   HN117085   5.558   5.753  10.782 -2.0996 -0.5395  0.4106
  154SAPE   HN217086   5.560   5.679  10.929 -3.9306 -0.9591 -0.8793
  154SAPE   HN317087   5.685   5.639  10.813 -0.4302 -0.6123 -0.0509
  154SAPE   C1217088   5.494   5.557  10.780 -0.1063  0.2701 -0.6652
  154SAPE  H12A17089   5.544   5.463  10.748  0.2883  0.9067 -1.9612
  154SAPE  H12B17090   5.440   5.593  10.690  0.4988  1.5559 -0.5221
  154SAPE   C1117091   5.393   5.525  10.887  0.1702  0.4185 -0.0214
  154SAPE  H11A17092   5.438   5.481  10.979 -0.5368 -3.0259 -1.2428
  154SAPE  H11B17093   5.334   5.440  10.845  1.0134  0.2284 -0.8191
  154SAPE     P17094   5.173   5.649  10.915 -0.6679  0.3085 -0.0205
  154SAPE   O1317095   5.116   5.531  10.980  0.3653 -0.7553  0.8622
  154SAPE   O1417096   5.112   5.776  10.955  0.5940 -0.1692 -0.0616
  154SAPE   O1217097   5.329   5.640  10.935 -0.3794 -0.1745  0.3739
  154SAPE   O1117098   5.151   5.630  10.764  0.2467 -0.0060  0.8048
  154SAPE    C117099   5.166   5.738  10.670  0.0964  0.3845 -0.2970
  154SAPE    HA17100   5.073   5.800  10.671 -0.0378  0.2333 -2.0001
  154SAPE    HB17101   5.241   5.813  10.703 -0.2653  0.3310  0.6653
  154SAPE    C217102   5.194   5.703  10.521 -0.0111  0.0556 -0.4652
  154SAPE    HS17103   5.092   5.680  10.483 -0.4030 -0.6787  1.0165
  154SAPE   O2117104   5.289   5.598  10.505 -0.6623 -0.2129 -0.2019
  154SAPE   C2117105   5.267   5.511  10.401 -1.3541 -0.0324 -0.1420
  154SAPE   O2217106   5.165   5.511  10.330 -0.5172  0.3198  0.6123
  154SAPE   C2217107   5.392   5.417  10.374 -0.0371 -0.4568  0.0479
  154SAPE   H2R17108   5.477   5.456  10.434 -1.7053  1.2201  1.3717
  154SAPE   H2S17109   5.360   5.317  10.410 -0.7493  0.0338  0.7823
  154SAPE    C317110   5.247   5.824  10.447 -0.0849  0.3498  0.8583
  154SAPE    HX17111   5.333   5.857  10.509  2.1365 -3.1768 -0.1780
  154SAPE    HY17112   5.162   5.895  10.443 -0.9723 -0.6362  1.8800
  154SAPE   O3117113   5.303   5.802  10.316  0.0940 -0.1073  0.6164
  154SAPE   C3117114   5.203   5.803  10.218  0.3222 -0.1562  0.0678
  154SAPE   O3217115   5.088   5.829  10.239  0.0702  0.0189 -0.7157
  154SAPE   C3217116   5.260   5.765  10.083 -0.0184  0.2318  0.6467
  154SAPE   H2X17117   5.304   5.663  10.095 -1.4198 -0.3832  0.7494
  154SAPE   H2Y17118   5.345   5.834  10.071  1.8074 -2.1749 -0.6744
  154SAPE   C2317119   5.422   5.410  10.221  0.4238  0.8224 -0.2448
  154SAPE   H3R17120   5.468   5.505  10.189  1.4747  0.0538 -1.0683
  154SAPE   H3S17121   5.325   5.406  10.167 -0.2068 -0.9554  0.9487
  154SAPE   C2417122   5.512   5.286  10.184  0.5683 -0.4273 -0.0442
  154SAPE   H4R17123   5.480   5.197  10.243  4.2625 -2.1517 -0.4909
  154SAPE   H4S17124   5.613   5.305  10.225  0.8107 -1.3754 -0.1957
  154SAPE   C2517125   5.508   5.252  10.038 -0.2674  0.5024  0.2151
  154SAPE   H5R17126   5.471   5.151  10.014 -1.0982  1.1768 -1.4185
  154SAPE   C2617127   5.564   5.333   9.944  0.2166  0.4458 -0.5372
  154SAPE   H6R17128   5.561   5.298   9.839  2.0569  2.1338 -1.1817
  154SAPE   C2717129   5.640   5.467   9.956 -0.4120 -0.0669  0.5941
  154SAPE   H7R17130   5.743   5.440   9.925 -0.6246 -0.4790  0.2544
  154SAPE   H7S17131   5.643   5.507  10.060 -1.1058  0.1044  0.5534
  154SAPE   C2817132   5.582   5.571   9.861 -0.1696 -0.2545 -0.3475
  154SAPE   H8R17133   5.520   5.649   9.908  0.9423  1.0274 -0.9818
  154SAPE   C2917134   5.608   5.579   9.727 -0.4347 -0.1056  0.0926
  154SAPE   H9R17135   5.564   5.660   9.668 -0.8424  1.7550  2.8917
  154SAPE  C21017136   5.688   5.479   9.654  0.2388 -0.9692  0.0406
  154SAPE  H10R17137   5.630   5.415   9.584 -0.1043 -3.4714  2.4940
  154SAPE  H10S17138   5.724   5.396   9.719  1.8691  0.1783  0.6292
  154SAPE  C21117139   5.808   5.545   9.583  0.5155  0.2703  0.5143
  154SAPE  H11R17140   5.878   5.599   9.648 -0.1847  0.9934  0.6746
  154SAPE  C21217141   5.848   5.532   9.457  0.1907 -0.5408 -0.0544
  154SAPE  H12R17142   5.933   5.595   9.426 -0.3600 -0.2109 -0.9051
  154SAPE  C21317143   5.781   5.438   9.359 -0.3556  0.0947  0.2248
  154SAPE  H13R17144   5.685   5.490   9.338 -0.2435 -0.2198 -1.0883
  154SAPE  H13S17145   5.777   5.346   9.422  1.2355 -0.2148 -0.0985
  154SAPE  C21417146   5.865   5.416   9.239  0.9510 -0.3093 -0.5310
  154SAPE  H14R17147   5.966   5.380   9.265  0.3223  0.4690  3.2263
  154SAPE  C21517148   5.816   5.420   9.114  0.2013 -0.3298  0.6159
  154SAPE  H15R17149   5.881   5.403   9.027 -0.0503 -2.4153  0.7968
  154SAPE  C21617150   5.676   5.438   9.065  0.1950  0.3857 -0.2496
  154SAPE  H16R17151   5.652   5.546   9.064  0.8673  0.5337 -0.5911
  154SAPE  H16S17152   5.594   5.403   9.132  0.6141 -1.7406 -0.7929
  154SAPE  C21717153   5.637   5.375   8.932 -0.1463  0.1740  0.2067
  154SAPE  H17R17154   5.531   5.397   8.908 -0.3094  1.0653  1.6854
  154SAPE  H17S17155   5.661   5.267   8.938 -0.3190  0.2338  2.2367
  154SAPE  C21817156   5.711   5.431   8.809  0.9255 -1.2606  0.0523
  154SAPE  H18R17157   5.800   5.489   8.840  1.2525 -1.1896 -1.0227
  154SAPE  H18S17158   5.645   5.498   8.750 -0.9692 -2.2967  0.9069
  154SAPE  C21917159   5.741   5.317   8.709 -0.3748 -0.7505  0.0136
  154SAPE  H19R17160   5.646   5.288   8.659 -0.6550 -1.8722  1.1874
  154SAPE  H19S17161   5.777   5.229   8.767  0.6157  1.0625  2.1739
  154SAPE  C22017162   5.846   5.340   8.596  0.3227  0.6952 -0.1867
  154SAPE  H20R17163   5.812   5.424   8.532  0.0552  1.7552  1.3170
  154SAPE  H20S17164   5.855   5.244   8.541  0.3105  0.2013  0.6625
  154SAPE  H20T17165   5.946   5.363   8.636  1.6477 -3.3856 -0.8897
  154SAPE   C3317166   5.164   5.768   9.961  0.3857 -0.8183  0.0581
  154SAPE   H3X17167   5.128   5.873   9.956 -0.6202 -1.2895 -3.2643
  154SAPE   H3Y17168   5.075   5.704   9.983 -1.1182  1.2106  0.0002
  154SAPE   C3417169   5.243   5.735   9.829  0.0215 -0.5549  0.2692
  154SAPE   H4X17170   5.254   5.625   9.815  1.4790 -0.2025 -1.5098
  154SAPE   H4Y17171   5.345   5.776   9.839  0.7109 -1.7581 -1.5580
  154SAPE   C3517172   5.167   5.777   9.698 -0.0918 -0.5466 -0.2644
  154SAPE   H5X17173   5.158   5.888   9.701  1.3026 -0.4213 -0.2530
  154SAPE   H5Y17174   5.070   5.727   9.718 -0.3308 -1.0606 -2.6343
  154SAPE   C3617175   5.234   5.731   9.569 -0.0067 -0.8350 -0.2626
  154SAPE   H6X17176   5.272   5.630   9.592 -0.2556 -0.5218  1.5616
  154SAPE   H6Y17177   5.320   5.798   9.546  0.0131 -1.5494 -2.3967
  154SAPE   C3717178   5.142   5.732   9.444  0.0333  0.0006  0.1680
  154SAPE   H7X17179   5.063   5.657   9.467 -0.1030 -0.3749 -1.4349
  154SAPE   H7Y17180   5.184   5.679   9.356 -1.1807 -0.7850  0.0499
  154SAPE   C3817181   5.088   5.869   9.399 -0.2370  0.1113 -0.4268
  154SAPE   H8X17182   5.151   5.907   9.315 -1.2963  1.4096 -0.6607
  154SAPE   H8Y17183   5.097   5.940   9.484  0.0173 -1.2894  0.7348
  154SAPE   C3917184   4.949   5.867   9.348 -0.3699  0.2500 -0.4276
  154SAPE   H9X17185   4.900   5.966   9.337 -0.6460  0.5082  2.6133
  154SAPE   H9Y17186   4.895   5.807   9.424 -3.4386  1.6849 -1.3989
  154SAPE  C31017187   4.942   5.795   9.212 -0.3001 -0.4692 -0.0450
  154SAPE  H10X17188   4.836   5.769   9.190 -0.0401  1.6511 -4.4277
  154SAPE  H10Y17189   5.012   5.708   9.215  0.4636  0.1036 -0.9373
  154SAPE  C31117190   4.975   5.876   9.090 -0.5813 -0.9629 -0.2499
  154SAPE  H11X17191   5.063   5.940   9.110 -2.1073  0.9618  0.4609
  154SAPE  H11Y17192   4.893   5.950   9.077  1.6548  2.0253  2.0667
  154SAPE  C31217193   4.995   5.795   8.959  0.4884 -1.1539 -0.3689
  154SAPE  H12X17194   5.080   5.726   8.984  0.3646 -0.3438  2.4650
  154SAPE  H12Y17195   5.044   5.864   8.888 -0.9042  0.4533  0.2036
  154SAPE  C31317196   4.874   5.731   8.904 -0.3981  0.2527 -0.5824
  154SAPE  H13X17197   4.832   5.669   8.986  0.7047 -1.3824 -1.2266
  154SAPE  H13Y17198   4.906   5.668   8.818  0.9407 -2.3234  1.7212
  154SAPE  C31417199   4.769   5.821   8.838 -0.8061  0.4931 -0.1993
  154SAPE  H14X17200   4.808   5.871   8.747  0.1006  0.3132  0.0942
  154SAPE  H14Y17201   4.744   5.895   8.918 -0.1013 -0.5385  0.9789
  154SAPE  C31517202   4.637   5.749   8.805 -0.3328 -0.1314 -0.0764
  154SAPE  H15X17203   4.590   5.712   8.898 -0.6007 -2.0344 -0.9412
  154SAPE  H15Y17204   4.656   5.660   8.740 -1.0955 -0.1018 -0.3463
  154SAPE  C31617205   4.534   5.848   8.728 -1.0100  0.7566 -0.1528
  154SAPE  H16X17206   4.537   5.938   8.793  1.8701  0.0552  0.7760
  154SAPE  H16Y17207   4.430   5.809   8.731 -0.4223 -0.7236  1.8312
  154SAPE  C31717208   4.572   5.870   8.585  0.0726  0.2017  0.3881
  154SAPE  H17X17209   4.578   5.767   8.544  1.1003  0.7946 -0.9949
  154SAPE  H17Y17210   4.670   5.918   8.567 -1.1326  2.2016 -0.9964
  154SAPE  C31817211   4.472   5.946   8.498  0.1977 -0.4739  0.2567
  154SAPE  H18X17212   4.487   5.935   8.389 -3.8063  1.9831 -0.6517
  154SAPE  H18Y17213   4.467   6.054   8.525 -0.7907 -0.8233  1.5371
  154SAPE  H18Z17214   4.374   5.902   8.526  0.5366  0.4616  3.0528
  155SAPE     N17215   6.014   6.407  11.088  0.4390 -0.2408  0.1993
  155SAPE   HN117216   6.038   6.437  11.184  0.3783  1.2861 -0.2478
  155SAPE   HN217217   6.000   6.304  11.082 -0.9361 -0.1348  1.2685
  155SAPE   HN317218   6.099   6.434  11.035 -1.5949 -3.2226 -4.9569
  155SAPE   C1217219   5.887   6.490  11.048 -0.4506  0.0537 -0.3850
  155SAPE  H12A17220   5.821   6.464  11.134  0.4119 -1.3196 -0.1350
  155SAPE  H12B17221   5.853   6.462  10.947  0.1421  1.7958 -1.0886
  155SAPE   C1117222   5.936   6.636  11.047 -0.2665  0.1075  0.1306
  155SAPE  H11A17223   6.001   6.658  11.134 -0.8159 -1.1358  0.8556
  155SAPE  H11B17224   5.845   6.697  11.067 -0.1611  0.3110 -0.0078
  155SAPE     P17225   5.929   6.724  10.803  0.2043 -0.3130 -0.0049
  155SAPE   O1317226   5.786   6.749  10.834  0.1874  0.6988  0.1395
  155SAPE   O1417227   6.006   6.843  10.754  0.3227 -0.0198  0.3278
  155SAPE   O1217228   6.005   6.668  10.924 -0.4094 -0.9878  0.5064
  155SAPE   O1117229   5.943   6.596  10.721 -0.2083  0.3717  0.1571
  155SAPE    C117230   5.838   6.515  10.679  0.1559  0.3501 -0.3202
  155SAPE    HA17231   5.821   6.431  10.749 -1.5380  0.5087 -0.5276
  155SAPE    HB17232   5.742   6.568  10.663  0.0422  0.3550  0.3749
  155SAPE    C217233   5.869   6.445  10.538 -0.1011  0.1246 -0.1808
  155SAPE    HS17234   5.965   6.391  10.551  0.1553  0.7663  0.6178
  155SAPE   O2117235   5.874   6.547  10.434 -0.0858  0.0924 -0.4676
  155SAPE   C2117236   6.001   6.595  10.415  0.0137 -1.4185  0.0689
  155SAPE   O2217237   6.106   6.558  10.472  0.2390  0.3714  0.8124
  155SAPE   C2217238   5.996   6.674  10.289  0.2184 -0.7690  0.1367
  155SAPE   H2R17239   5.944   6.598  10.228  0.8001 -0.8735 -0.2310
  155SAPE   H2S17240   5.931   6.764  10.296  0.2595 -0.6935 -0.4393
  155SAPE    C317241   5.786   6.323  10.497 -0.3120 -0.5245  0.0381
  155SAPE    HX17242   5.683   6.338  10.536 -0.5475 -0.6969 -0.5080
  155SAPE    HY17243   5.827   6.237  10.554 -0.9635 -0.4035  0.7010
  155SAPE   O3117244   5.780   6.304  10.356 -0.2304  0.1747 -0.9277
  155SAPE   C3117245   5.909   6.273  10.305 -0.1216 -0.4320  0.1039
  155SAPE   O3217246   5.996   6.224  10.373  0.1009  0.4807  0.2811
  155SAPE   C3217247   5.925   6.310  10.160 -0.0203 -0.1097  0.1983
  155SAPE   H2X17248   5.947   6.218  10.102 -2.7706 -0.4355 -0.3621
  155SAPE   H2Y17249   6.007   6.384  10.146  0.1995 -0.6962 -1.7971
  155SAPE   C2317250   6.137   6.699  10.228  0.5174  0.1746  0.4075
  155SAPE   H3R17251   6.188   6.601  10.214  1.5647  0.6800  0.7205
  155SAPE   H3S17252   6.196   6.767  10.292  1.0118 -2.0279  2.3690
  155SAPE   C2417253   6.118   6.764  10.094 -0.0861  0.1461  0.2650
  155SAPE   H4R17254   6.080   6.864  10.124  1.3626  0.5721  0.7399
  155SAPE   H4S17255   6.042   6.703  10.041 -1.0135  2.7420 -1.4827
  155SAPE   C2517256   6.233   6.798  10.011  0.1509  0.3370  0.8411
  155SAPE   H5R17257   6.313   6.859  10.056 -0.1354  1.1815  0.2247
  155SAPE   C2617258   6.245   6.772   9.877 -0.1886  0.0801 -0.2020
  155SAPE   H6R17259   6.334   6.820   9.835  0.4708  0.6607  1.7789
  155SAPE   C2717260   6.146   6.704   9.782 -0.0123 -0.1381  1.0300
  155SAPE   H7R17261   6.066   6.653   9.840 -1.1826 -0.3008 -0.7118
  155SAPE   H7S17262   6.190   6.615   9.732 -0.5695 -0.6706  1.4758
  155SAPE   C2817263   6.087   6.804   9.687 -0.3761  0.5065  0.2725
  155SAPE   H8R17264   6.000   6.861   9.720 -0.2894 -0.5135  2.3382
  155SAPE   C2917265   6.126   6.812   9.560  0.1045 -0.5587  0.7773
  155SAPE   H9R17266   6.083   6.883   9.489  2.6908 -1.0806 -1.4265
  155SAPE  C21017267   6.235   6.722   9.499  0.6513  0.6809  0.3746
  155SAPE  H10R17268   6.217   6.613   9.502  2.4538  0.1780 -4.4492
  155SAPE  H10S17269   6.334   6.736   9.548  1.0680  0.1911 -0.3164
  155SAPE  C21117270   6.254   6.755   9.354  0.3611 -0.4781  0.2051
  155SAPE  H11R17271   6.342   6.820   9.339  0.0014  0.4690  2.0682
  155SAPE  C21217272   6.169   6.724   9.248  0.0971 -0.4960  0.2927
  155SAPE  H12R17273   6.203   6.734   9.144  0.9849  1.7839  0.7803
  155SAPE  C21317274   6.034   6.649   9.263 -0.0481 -0.3822  0.8216
  155SAPE  H13R17275   5.954   6.721   9.238  0.6303  0.2245  0.3852
  155SAPE  H13S17276   6.012   6.606   9.364 -0.2168 -1.5931  0.2764
  155SAPE  C21417277   6.016   6.533   9.175  0.6883 -0.4134  0.5436
  155SAPE  H14R17278   6.010   6.434   9.223 -1.1589 -0.0983  0.9939
  155SAPE  C21517279   6.015   6.545   9.038  0.1324  0.3801  0.9546
  155SAPE  H15R17280   6.016   6.456   8.974  1.7796  0.5169  0.7657
  155SAPE  C21617281   6.034   6.673   8.959 -0.1688 -0.5322  0.1734
  155SAPE  H16R17282   6.138   6.674   8.921 -1.2226 -1.1115 -2.8643
  155SAPE  H16S17283   6.019   6.761   9.024  1.7534  0.7625 -1.0737
  155SAPE  C21717284   5.939   6.688   8.836 -0.0490 -0.5765 -0.0010
  155SAPE  H17R17285   5.922   6.794   8.810  1.4464 -0.1399  0.7551
  155SAPE  H17S17286   5.842   6.635   8.846  1.5467 -4.0091 -1.6274
  155SAPE  C21817287   6.010   6.624   8.718 -0.0690  0.7363  0.3138
  155SAPE  H18R17288   6.006   6.513   8.717 -1.5309  0.7429  2.4434
  155SAPE  H18S17289   6.116   6.654   8.718  0.9761 -2.7368  2.0477
  155SAPE  C21917290   5.952   6.678   8.578 -0.6775 -0.6764 -0.3661
  155SAPE  H19R17291   5.971   6.786   8.563 -0.6078 -0.5702  0.4749
  155SAPE  H19S17292   5.843   6.660   8.592 -0.5033 -1.8801 -0.4686
  155SAPE  C22017293   6.004   6.595   8.458 -0.7637  0.5178 -0.2147
  155SAPE  H20R17294   6.106   6.554   8.477  0.3481  3.8256  1.3005
  155SAPE  H20S17295   6.005   6.651   8.363  2.1970 -1.6208 -1.5246
  155SAPE  H20T17296   5.937   6.506   8.449 -0.4510  0.4336 -1.8362
  155SAPE   C3317297   5.803   6.376  10.090  0.0553  0.6378  0.3174
  155SAPE   H3X17298   5.751   6.448  10.156 -0.6233 -0.2267  0.7432
  155SAPE   H3Y17299   5.740   6.286  10.074  0.7799  0.0660  0.6408
  155SAPE   C3417300   5.838   6.448   9.956  0.3947 -0.4804 -0.3203
  155SAPE   H4X17301   5.902   6.537   9.974  0.7788 -0.7542 -0.3309
  155SAPE   H4Y17302   5.740   6.478   9.914  0.8553  2.5372  0.6061
  155SAPE   C3517303   5.905   6.363   9.855  0.0788  0.4393  0.2328
  155SAPE   H5X17304   5.859   6.261   9.852 -0.1235  0.5737 -2.4112
  155SAPE   H5Y17305   6.013   6.346   9.872  0.1863  0.5193 -0.3316
  155SAPE   C3617306   5.905   6.416   9.709 -0.3741 -0.3338  0.3525
  155SAPE   H6X17307   6.003   6.395   9.660  0.0634  2.4615 -0.0633
  155SAPE   H6Y17308   5.911   6.527   9.711  0.6304 -0.3298 -1.3897
  155SAPE   C3717309   5.790   6.370   9.616  0.8733 -0.1428  0.0763
  155SAPE   H7X17310   5.693   6.414   9.648  1.2753  1.3911 -0.7581
  155SAPE   H7Y17311   5.774   6.260   9.624 -0.9183  0.1816  1.0796
  155SAPE   C3817312   5.811   6.410   9.470  0.2595  0.2696 -0.1853
  155SAPE   H8X17313   5.912   6.379   9.436 -0.9644 -2.6393 -1.3060
  155SAPE   H8Y17314   5.809   6.520   9.458  2.1456  0.3858  0.4579
  155SAPE   C3917315   5.698   6.350   9.382 -0.1258 -0.5940  0.6936
  155SAPE   H9X17316   5.613   6.360   9.453 -1.6322 -1.9161 -0.8878
  155SAPE   H9Y17317   5.727   6.243   9.371  1.8486 -0.1558  1.4917
  155SAPE  C31017318   5.687   6.396   9.237  0.1307  0.0653  0.6839
  155SAPE  H10X17319   5.776   6.399   9.171  1.1336  1.0570  2.0458
  155SAPE  H10Y17320   5.642   6.498   9.235 -0.1027 -0.0609 -0.8674
  155SAPE  C31117321   5.582   6.307   9.162 -0.6062 -0.3890 -0.5111
  155SAPE  H11X17322   5.497   6.286   9.230  0.0412  1.0268  0.7827
  155SAPE  H11Y17323   5.625   6.213   9.123  2.0007  1.2219 -1.6966
  155SAPE  C31217324   5.541   6.378   9.030 -0.3312  0.3862 -0.7742
  155SAPE  H12X17325   5.493   6.471   9.067  0.9169 -0.2061  2.4895
  155SAPE  H12Y17326   5.463   6.326   8.970 -1.5130  0.4872  0.6482
  155SAPE  C31317327   5.658   6.408   8.936 -0.0953  0.6219  0.3723
  155SAPE  H13X17328   5.711   6.313   8.914 -0.7897  0.0357  1.1699
  155SAPE  H13Y17329   5.736   6.474   8.980 -1.0433  0.4573  2.3543
  155SAPE  C31417330   5.609   6.470   8.801  0.0307  0.1256  0.0802
  155SAPE  H14X17331   5.695   6.522   8.756  0.1111  0.1365  0.2473
  155SAPE  H14Y17332   5.533   6.547   8.826  0.6160  0.3594  1.1540
  155SAPE  C31517333   5.547   6.371   8.704  0.4966  0.0744 -0.4414
  155SAPE  H15X17334   5.444   6.348   8.741 -0.0889  1.1682 -1.3854
  155SAPE  H15Y17335   5.609   6.280   8.724 -0.0241 -0.3771 -0.8506
  155SAPE  C31617336   5.528   6.408   8.562 -0.4728  0.5788  1.0913
  155SAPE  H16X17337   5.629   6.399   8.515 -1.0960 -0.0714 -0.1343
  155SAPE  H16Y17338   5.492   6.512   8.544 -1.1601 -0.1269 -1.8499
  155SAPE  C31717339   5.429   6.303   8.492  0.3561 -0.1129  0.4167
  155SAPE  H17X17340   5.330   6.309   8.541  0.4637 -1.6130  0.8284
  155SAPE  H17Y17341   5.464   6.200   8.510  1.6969  0.3994  0.8160
  155SAPE  C31817342   5.413   6.330   8.346  0.0576 -0.2497  0.6245
  155SAPE  H18X17343   5.394   6.437   8.324 -1.3271 -0.6943 -0.4230
  155SAPE  H18Y17344   5.337   6.264   8.298  0.4723 -1.1517  1.1887
  155SAPE  H18Z17345   5.507   6.304   8.293 -1.2693  1.9405 -2.9701
  156SAPE     N17346   4.489   4.364  10.595 -0.7009 -0.8510 -0.0182
  156SAPE   HN117347   4.414   4.309  10.640  0.2760 -1.0530  1.4148
  156SAPE   HN217348   4.582   4.325  10.620 -0.4562  0.0964  0.5776
  156SAPE   HN317349   4.486   4.464  10.624  0.6132 -1.2609  1.5704
  156SAPE   C1217350   4.456   4.373  10.442  0.1318  0.3390  0.3229
  156SAPE  H12A17351   4.451   4.265  10.420 -0.0408 -0.0778  2.2903
  156SAPE  H12B17352   4.541   4.420  10.388 -0.7988  2.2849  0.4966
  156SAPE   C1117353   4.324   4.452  10.432 -0.6681  0.5743  0.6168
  156SAPE  H11A17354   4.285   4.442  10.328 -0.3726 -1.3495  0.6619
  156SAPE  H11B17355   4.333   4.561  10.451 -1.0615  0.5566  0.9235
  156SAPE     P17356   4.119   4.291  10.483 -0.7715  0.3605 -0.0459
  156SAPE   O1317357   4.179   4.174  10.417  0.1097  0.0558 -0.0653
  156SAPE   O1417358   4.050   4.258  10.610  0.0309  0.5945  0.2305
  156SAPE   O1217359   4.230   4.391  10.522  0.0173  0.1543  0.1468
  156SAPE   O1117360   4.030   4.374  10.391 -0.2611 -0.2432 -0.6005
  156SAPE    C117361   3.962   4.493  10.445 -0.8392  0.5237  0.4527
  156SAPE    HA17362   3.865   4.464  10.491 -0.7722 -0.2700  0.0887
  156SAPE    HB17363   4.024   4.544  10.522 -0.2771  0.4926  0.0203
  156SAPE    C217364   3.926   4.594  10.335 -0.7148 -0.2659  0.1126
  156SAPE    HS17365   3.877   4.685  10.376  0.5722  1.6313 -2.4457
  156SAPE   O2117366   3.834   4.522  10.258  0.9727 -0.2271 -0.0709
  156SAPE   C2117367   3.746   4.593  10.185  0.2761 -0.6808  0.2082
  156SAPE   O2217368   3.739   4.712  10.187  0.5949 -0.1921  0.3752
  156SAPE   C2217369   3.676   4.500  10.086 -0.3995  0.7088 -0.3692
  156SAPE   H2R17370   3.745   4.417  10.063 -1.5138 -0.5102  0.6152
  156SAPE   H2S17371   3.580   4.477  10.138  0.8874  0.1674  1.8234
  156SAPE    C317372   4.047   4.629  10.246 -1.0058  0.0161 -0.7649
  156SAPE    HX17373   4.073   4.539  10.186 -4.8090 -0.8532 -1.2221
  156SAPE    HY17374   4.139   4.655  10.303 -1.7759  0.5042  0.2559
  156SAPE   O3117375   4.016   4.737  10.160 -0.2701  0.4292 -0.3790
  156SAPE   C3117376   3.984   4.706  10.034 -0.4495 -0.9282  0.1166
  156SAPE   O3217377   3.983   4.596   9.980 -0.2832 -0.2502  0.0299
  156SAPE   C3217378   3.962   4.843   9.969  0.7135 -0.3223  0.4717
  156SAPE   H2X17379   4.054   4.902   9.985 -0.0822  0.5597  1.9678
  156SAPE   H2Y17380   3.875   4.892  10.017  1.0130  1.2860 -0.5889
  156SAPE   C2317381   3.666   4.577   9.945  0.3328  0.4091 -0.7164
  156SAPE   H3R17382   3.766   4.617   9.922 -0.5889  3.8357  0.8999
  156SAPE   H3S17383   3.598   4.662   9.969 -2.4881 -2.2338  1.0207
  156SAPE   C2417384   3.609   4.494   9.824  0.4889  0.1863  0.1622
  156SAPE   H4R17385   3.673   4.403   9.819  0.3088 -0.0023  1.3267
  156SAPE   H4S17386   3.630   4.562   9.738  1.6407  1.1562  1.1780
  156SAPE   C2517387   3.467   4.441   9.845  0.1434 -0.5064 -0.2033
  156SAPE   H5R17388   3.449   4.375   9.931  1.7766 -0.6380  0.0579
  156SAPE   C2617389   3.367   4.466   9.767  0.3265 -1.1135  0.1002
  156SAPE   H6R17390   3.274   4.414   9.795  0.3486 -1.2932 -0.1574
  156SAPE   C2717391   3.353   4.542   9.636  0.0817  0.0241  0.3027
  156SAPE   H7R17392   3.401   4.641   9.652  1.9308 -0.4538 -2.1241
  156SAPE   H7S17393   3.246   4.568   9.624  0.4188  1.7430  0.8683
  156SAPE   C2817394   3.409   4.482   9.511  0.6780 -0.4388  0.3653
  156SAPE   H8R17395   3.491   4.410   9.529 -0.3041 -1.3915  1.0977
  156SAPE   C2917396   3.379   4.511   9.386 -0.9895  0.6534 -0.1059
  156SAPE   H9R17397   3.418   4.449   9.304 -0.5240  1.3516 -0.4205
  156SAPE  C21017398   3.267   4.602   9.339 -0.0485 -0.0516  0.2257
  156SAPE  H10R17399   3.207   4.639   9.426  0.5539  0.9571  0.2187
  156SAPE  H10S17400   3.186   4.560   9.275  0.7478 -0.5797 -0.4376
  156SAPE  C21117401   3.317   4.726   9.257 -0.6591 -0.4685 -0.0198
  156SAPE  H11R17402   3.319   4.819   9.316 -2.1513  0.2888 -1.1555
  156SAPE  C21217403   3.342   4.742   9.125  0.5112 -0.4383 -0.5875
  156SAPE  H12R17404   3.396   4.832   9.094  1.6990 -1.6999 -2.2645
  156SAPE  C21317405   3.339   4.627   9.029  0.0107 -0.7952 -0.5795
  156SAPE  H13R17406   3.349   4.533   9.086 -0.0121 -1.4743 -1.6855
  156SAPE  H13S17407   3.433   4.622   8.969  0.4591 -1.9637  0.2003
  156SAPE  C21417408   3.215   4.627   8.951  0.3121  0.0594 -0.6139
  156SAPE  H14R17409   3.126   4.628   9.016  1.6984  2.1058  1.3253
  156SAPE  C21517410   3.204   4.643   8.816 -0.2484 -0.1542  0.0655
  156SAPE  H15R17411   3.104   4.653   8.772 -0.5183 -0.6453  0.5640
  156SAPE  C21617412   3.323   4.650   8.717  0.2723 -0.2171 -0.6880
  156SAPE  H16R17413   3.317   4.554   8.661 -0.1178 -0.2866 -0.5273
  156SAPE  H16S17414   3.423   4.657   8.765  0.1849  1.7664 -0.7825
  156SAPE  C21717415   3.312   4.764   8.619  0.3720  0.3341  0.9689
  156SAPE  H17R17416   3.229   4.746   8.548  2.0949 -1.0814 -0.7269
  156SAPE  H17S17417   3.398   4.763   8.549 -0.9366 -1.0312 -0.6521
  156SAPE  C21817418   3.315   4.894   8.696  0.1800  0.0604  0.4977
  156SAPE  H18R17419   3.419   4.890   8.735 -0.4088 -1.2728  2.0069
  156SAPE  H18S17420   3.239   4.888   8.777  0.3014 -2.8773  0.4410
  156SAPE  C21917421   3.278   5.021   8.610 -0.4056 -0.0824 -0.5087
  156SAPE  H19R17422   3.190   4.993   8.549 -0.6666  0.2064 -0.2685
  156SAPE  H19S17423   3.368   5.051   8.552  1.3005  0.3734  2.2572
  156SAPE  C22017424   3.244   5.148   8.693  0.1060  0.1597 -0.8088
  156SAPE  H20R17425   3.151   5.134   8.752  0.2127 -1.2851 -0.9782
  156SAPE  H20S17426   3.224   5.231   8.622 -1.8797 -0.3057 -0.8468
  156SAPE  H20T17427   3.326   5.177   8.762 -0.1342 -0.5686 -0.2142
  156SAPE   C3317428   3.934   4.837   9.818 -0.0579  0.5441  0.0614
  156SAPE   H3X17429   3.897   4.938   9.791 -0.1014  0.6482  0.5092
  156SAPE   H3Y17430   3.853   4.763   9.799  0.6081 -0.0695 -0.4412
  156SAPE   C3417431   4.058   4.807   9.728 -0.3890 -0.0804 -0.3193
  156SAPE   H4X17432   4.045   4.710   9.675  1.4250  0.3151 -1.5266
  156SAPE   H4Y17433   4.152   4.789   9.784 -0.5466 -0.7587 -0.2650
  156SAPE   C3517434   4.104   4.930   9.645  0.5603  0.4622  0.2340
  156SAPE   H5X17435   4.104   5.024   9.705 -0.3542  0.7449 -0.1954
  156SAPE   H5Y17436   4.038   4.940   9.556 -1.7433  1.7506  2.0052
  156SAPE   C3617437   4.245   4.923   9.576 -0.3066  0.7231  0.0891
  156SAPE   H6X17438   4.246   4.833   9.510  2.7614  0.6145  0.1804
  156SAPE   H6Y17439   4.319   4.917   9.658 -1.9591  1.1490  1.6396
  156SAPE   C3717440   4.272   5.050   9.492  0.0293 -0.0196 -0.3857
  156SAPE   H7X17441   4.283   5.142   9.554  0.5900  1.6737 -2.9368
  156SAPE   H7Y17442   4.182   5.074   9.431 -0.6795  1.5285  1.2304
  156SAPE   C3817443   4.391   5.022   9.397 -0.0283 -0.1037 -0.1809
  156SAPE   H8X17444   4.410   5.109   9.330 -1.0894 -1.7523 -2.6998
  156SAPE   H8Y17445   4.364   4.935   9.334 -1.4757 -0.3201  0.7274
  156SAPE   C3917446   4.523   4.986   9.467  0.2621  0.4129  0.1992
  156SAPE   H9X17447   4.525   4.892   9.526 -0.8524  1.2936  1.6901
  156SAPE   H9Y17448   4.542   5.054   9.553  1.7723 -0.9670  0.9956
  156SAPE  C31017449   4.636   4.967   9.362  0.6186  0.0846 -0.2709
  156SAPE  H10X17450   4.620   5.041   9.281 -1.3047 -0.4401 -0.4038
  156SAPE  H10Y17451   4.609   4.867   9.322 -0.8872  0.0916  0.6574
  156SAPE  C31117452   4.765   4.954   9.429  0.6051 -0.2951  0.3666
  156SAPE  H11X17453   4.769   4.879   9.511 -0.2480  0.1276  0.8115
  156SAPE  H11Y17454   4.806   5.049   9.470 -2.0494  1.3937 -0.7028
  156SAPE  C31217455   4.877   4.890   9.339  0.2943  0.3146 -0.2781
  156SAPE  H12X17456   4.849   4.784   9.324 -1.0650  0.8659 -1.8574
  156SAPE  H12Y17457   4.976   4.898   9.388  0.2624 -0.0679 -0.1517
  156SAPE  C31317458   4.891   4.958   9.202  0.5314  0.2460  0.6838
  156SAPE  H13X17459   4.924   5.064   9.213 -0.4589  0.9094 -2.3177
  156SAPE  H13Y17460   4.794   4.964   9.149  2.1696  2.6841 -2.2123
  156SAPE  C31417461   4.984   4.882   9.100 -0.7125 -0.3460 -0.7826
  156SAPE  H14X17462   4.962   4.773   9.107  1.3044 -0.5771  2.4740
  156SAPE  H14Y17463   5.087   4.904   9.134 -0.5186 -1.2328 -0.7677
  156SAPE  C31517464   4.962   4.928   8.961 -0.1318  0.4381  0.1105
  156SAPE  H15X17465   5.057   4.908   8.906  0.3677 -1.5265  1.6328
  156SAPE  H15Y17466   4.952   5.036   8.936  1.7183  0.0657 -2.4793
  156SAPE  C31617467   4.850   4.856   8.881 -0.2511 -0.1783  0.0534
  156SAPE  H16X17468   4.754   4.897   8.919 -0.7750 -0.1330 -1.2894
  156SAPE  H16Y17469   4.862   4.758   8.933 -2.6780  0.0720  1.1670
  156SAPE  C31717470   4.878   4.861   8.725 -0.1825 -0.3236  0.5247
  156SAPE  H17X17471   4.978   4.824   8.695  0.8027  0.8052  2.3177
  156SAPE  H17Y17472   4.877   4.964   8.685  0.0697 -1.0969 -1.5625
  156SAPE  C31817473   4.777   4.787   8.642 -0.0135 -0.3460  0.0479
  156SAPE  H18X17474   4.810   4.766   8.538  1.4974 -0.8070  0.6019
  156SAPE  H18Y17475   4.678   4.836   8.632  0.3814  0.2840 -0.7439
  156SAPE  H18Z17476   4.759   4.683   8.677 -0.0389 -0.1750  0.5526
  157SAPE     N17477   2.434   3.922  10.408 -0.1284  0.2770  0.3614
  157SAPE   HN117478   2.335   3.893  10.419 -0.3675  0.7501 -0.5259
  157SAPE   HN217479   2.436   3.979  10.321  0.1577  0.9615  0.8206
  157SAPE   HN317480   2.487   3.833  10.391  1.5938  1.4443 -0.5553
  157SAPE   C1217481   2.495   4.017  10.510 -0.5076 -0.3147 -0.9050
  157SAPE  H12A17482   2.427   4.104  10.526 -0.5664 -0.8437  2.1788
  157SAPE  H12B17483   2.595   4.056  10.483  0.0115  0.7787  2.2739
  157SAPE   C1117484   2.509   3.950  10.649 -0.2645  0.5531 -0.5697
  157SAPE  H11A17485   2.414   3.935  10.704 -0.2981  0.6602 -0.5991
  157SAPE  H11B17486   2.570   4.024  10.705 -2.5480  0.3343  2.3214
  157SAPE     P17487   2.725   3.807  10.616  0.1967  0.5690  0.6657
  157SAPE   O1317488   2.800   3.921  10.673  0.1728  0.3812  0.6224
  157SAPE   O1417489   2.753   3.670  10.671 -0.1202  0.0341 -0.2133
  157SAPE   O1217490   2.566   3.820  10.640 -0.8006 -0.1681 -0.5574
  157SAPE   O1117491   2.743   3.803  10.463 -0.4851  0.2424  0.6841
  157SAPE    C117492   2.859   3.848  10.401 -0.8665  0.2218  0.1710
  157SAPE    HA17493   2.877   3.956  10.418  2.1657 -0.1563 -0.2976
  157SAPE    HB17494   2.945   3.794  10.446 -0.2050  0.0261 -1.2728
  157SAPE    C217495   2.857   3.839  10.243 -0.7402  0.2053  0.1555
  157SAPE    HS17496   2.942   3.908  10.223  0.4429 -1.4872 -0.7732
  157SAPE   O2117497   2.729   3.864  10.184  0.2706 -0.2220 -0.1156
  157SAPE   C2117498   2.729   3.871  10.050 -0.2546 -0.3165  0.7351
  157SAPE   O2217499   2.826   3.887   9.980  0.3041  0.0551  0.1411
  157SAPE   C2217500   2.580   3.875  10.006 -0.9236  0.1334 -0.2251
  157SAPE   H2R17501   2.541   3.778  10.042 -1.7215  0.2931 -0.6487
  157SAPE   H2S17502   2.524   3.958  10.054 -1.4035 -0.8744  0.9835
  157SAPE    C317503   2.911   3.696  10.204 -0.0212 -0.4457 -0.3194
  157SAPE    HX17504   2.996   3.683  10.275  1.3028  2.5976 -1.2591
  157SAPE    HY17505   2.961   3.695  10.105  0.8151  1.6606  0.0510
  157SAPE   O3117506   2.801   3.603  10.213  0.0847 -0.1374 -0.1793
  157SAPE   C3117507   2.837   3.473  10.237  0.6496 -0.3775  0.5101
  157SAPE   O3217508   2.955   3.437  10.224 -0.2318 -0.0579 -0.4741
  157SAPE   C3217509   2.716   3.383  10.267 -0.4116  0.0714  0.9131
  157SAPE   H2X17510   2.637   3.439  10.322 -2.9021 -1.9981 -0.4268
  157SAPE   H2Y17511   2.757   3.304  10.333  0.3138 -0.0295  0.3451
  157SAPE   C2317512   2.567   3.879   9.850 -0.2411 -0.5974 -0.2849
  157SAPE   H3R17513   2.624   3.792   9.812  1.7586  1.1475 -1.4712
  157SAPE   H3S17514   2.615   3.972   9.810  0.5982 -1.1804 -0.6427
  157SAPE   C2417515   2.423   3.868   9.807 -0.4921 -0.0088  0.3939
  157SAPE   H4R17516   2.362   3.797   9.867 -0.6917  0.6589  0.9890
  157SAPE   H4S17517   2.412   3.842   9.699 -1.6579 -0.7558  0.6794
  157SAPE   C2517518   2.367   4.005   9.826  0.3310 -0.1370  0.0188
  157SAPE   H5R17519   2.364   4.041   9.929  0.7151  1.6825 -0.5887
  157SAPE   C2617520   2.311   4.082   9.730  0.2463 -0.7020  0.5824
  157SAPE   H6R17521   2.288   4.186   9.756  0.0797 -0.4796 -0.4395
  157SAPE   C2717522   2.291   4.049   9.588  0.0661  1.0388  0.5115
  157SAPE   H7R17523   2.390   4.023   9.544 -1.1107 -0.4733 -1.3202
  157SAPE   H7S17524   2.266   4.139   9.528  0.8217  0.6255 -0.4580
  157SAPE   C2817525   2.181   3.943   9.568  0.5879 -0.3915 -0.3900
  157SAPE   H8R17526   2.100   3.946   9.643  1.2908 -1.2986  0.4208
  157SAPE   C2917527   2.183   3.846   9.472  0.1157 -0.3653  0.3075
  157SAPE   H9R17528   2.105   3.774   9.444 -0.3066 -0.5448  1.9391
  157SAPE  C21017529   2.291   3.831   9.368 -0.0069 -0.3947  0.0647
  157SAPE  H10R17530   2.282   3.728   9.329 -1.6919 -0.1440 -0.2498
  157SAPE  H10S17531   2.386   3.847   9.424 -0.6154 -1.5231  1.4526
  157SAPE  C21117532   2.294   3.926   9.251 -0.7759 -0.0888 -0.1899
  157SAPE  H11R17533   2.392   3.975   9.237 -0.9250  1.2869  3.1544
  157SAPE  C21217534   2.213   3.936   9.146 -0.7698  0.2469 -0.1421
  157SAPE  H12R17535   2.226   4.014   9.069  0.3096 -1.5117 -1.7771
  157SAPE  C21317536   2.082   3.862   9.111 -0.5328  0.2869 -0.3821
  157SAPE  H13R17537   2.021   3.917   9.036  1.7002  2.1518 -0.8915
  157SAPE  H13S17538   2.022   3.860   9.204  1.6729 -2.4294  1.0565
  157SAPE  C21417539   2.099   3.719   9.063  0.0494  0.2807 -0.2034
  157SAPE  H14R17540   2.108   3.652   9.150  1.1243 -0.9640 -1.2518
  157SAPE  C21517541   2.100   3.679   8.936 -0.1118  0.2049  1.0165
  157SAPE  H15R17542   2.112   3.572   8.915  2.3513  0.4509  0.9757
  157SAPE  C21617543   2.092   3.772   8.810  0.2657 -0.2712 -0.5198
  157SAPE  H16R17544   2.087   3.879   8.841  1.4645 -0.8273  1.6111
  157SAPE  H16S17545   2.007   3.749   8.741 -0.0617  1.2120 -0.6384
  157SAPE  C21717546   2.222   3.761   8.726  0.1156  0.5550 -0.7631
  157SAPE  H17R17547   2.244   3.655   8.702  1.4066  0.5701  0.2568
  157SAPE  H17S17548   2.308   3.790   8.791 -0.1307  0.6955 -0.4959
  157SAPE  C21817549   2.226   3.858   8.613 -0.0820  0.6565 -0.8444
  157SAPE  H18R17550   2.200   3.953   8.664 -0.0535  0.6696 -0.8542
  157SAPE  H18S17551   2.158   3.842   8.527 -1.4363  0.6775  0.1979
  157SAPE  C21917552   2.371   3.866   8.561  0.4393  0.0690 -0.0032
  157SAPE  H19R17553   2.413   3.770   8.524 -1.6213  0.2298 -2.9755
  157SAPE  H19S17554   2.434   3.904   8.644 -1.5399 -0.1869  1.6411
  157SAPE  C22017555   2.388   3.972   8.447 -0.3224  0.4025  0.2475
  157SAPE  H20R17556   2.353   4.072   8.481  0.9627  0.6276  0.9361
  157SAPE  H20S17557   2.346   3.950   8.346  0.3851  1.1457 -0.2172
  157SAPE  H20T17558   2.497   3.993   8.442 -0.1941  0.3483  2.3959
  157SAPE   C3317559   2.645   3.317  10.148 -0.3206  0.7155  0.6042
  157SAPE   H3X17560   2.553   3.268  10.187  0.0942  1.4414  2.5177
  157SAPE   H3Y17561   2.707   3.236  10.102 -1.2635  0.0337  0.5189
  157SAPE   C3417562   2.589   3.404  10.038  0.3649  0.2295  0.2584
  157SAPE   H4X17563   2.565   3.506  10.074 -1.5030 -0.6073  1.4703
  157SAPE   H4Y17564   2.488   3.376  10.001  0.8524 -1.1537 -0.0447
  157SAPE   C3517565   2.685   3.407   9.924  0.4802 -0.6497 -0.3014
  157SAPE   H5X17566   2.726   3.308   9.895 -2.0482 -1.6880 -0.4609
  157SAPE   H5Y17567   2.772   3.465   9.960 -0.0465 -1.1253  1.7971
  157SAPE   C3617568   2.616   3.467   9.798 -0.0266  0.3414 -0.3878
  157SAPE   H6X17569   2.580   3.569   9.822  0.4262  0.0365  1.7147
  157SAPE   H6Y17570   2.522   3.416   9.770 -0.4805  0.3954  0.9768
  157SAPE   C3717571   2.698   3.476   9.669  0.0769 -0.0734  0.4516
  157SAPE   H7X17572   2.718   3.369   9.643  0.7443  0.7588 -2.7057
  157SAPE   H7Y17573   2.796   3.521   9.695 -0.5836  1.6732  0.0045
  157SAPE   C3817574   2.628   3.550   9.551 -0.1216  0.0701  0.1107
  157SAPE   H8X17575   2.603   3.654   9.581  0.3044 -0.2941  1.7502
  157SAPE   H8Y17576   2.533   3.499   9.525  0.5652 -0.2213 -1.9097
  157SAPE   C3917577   2.698   3.552   9.421 -0.0529  0.1592 -0.0510
  157SAPE   H9X17578   2.726   3.450   9.388  0.0228 -0.3555  1.5660
  157SAPE   H9Y17579   2.785   3.620   9.432  0.5521 -0.6279  0.0013
  157SAPE  C31017580   2.608   3.623   9.320  0.1368  0.0940  0.0398
  157SAPE  H10X17581   2.581   3.723   9.360  0.5972  0.2857 -0.1280
  157SAPE  H10Y17582   2.520   3.559   9.298  1.3363 -1.6385  0.1907
  157SAPE  C31117583   2.673   3.645   9.189  0.1817  0.4998  0.4882
  157SAPE  H11X17584   2.732   3.557   9.155  0.8743  1.6200 -1.2538
  157SAPE  H11Y17585   2.729   3.740   9.202 -1.6255  1.6714 -0.2474
  157SAPE  C31217586   2.567   3.672   9.095  0.0166 -0.0395 -0.3034
  157SAPE  H12X17587   2.504   3.756   9.133  0.3933  0.2684 -0.3458
  157SAPE  H12Y17588   2.495   3.588   9.085  2.2577 -1.8822 -1.3690
  157SAPE  C31317589   2.606   3.724   8.956 -0.4241  0.0749  0.2065
  157SAPE  H13X17590   2.660   3.821   8.960  0.8178 -0.6520  1.5508
  157SAPE  H13Y17591   2.508   3.730   8.905 -1.2060 -0.6732  1.5906
  157SAPE  C31417592   2.697   3.630   8.878 -0.0611  0.0834  0.2169
  157SAPE  H14X17593   2.658   3.526   8.882  1.2901 -0.4933 -0.8473
  157SAPE  H14Y17594   2.793   3.613   8.933 -0.4757 -0.3072  0.8207
  157SAPE  C31517595   2.726   3.665   8.724  0.1138 -0.0767  0.2303
  157SAPE  H15X17596   2.780   3.761   8.718  1.1619 -0.6283  0.6951
  157SAPE  H15Y17597   2.622   3.682   8.686 -0.7289 -1.0180  2.0504
  157SAPE  C31617598   2.795   3.560   8.639  0.4384 -0.3808 -0.4170
  157SAPE  H16X17599   2.887   3.527   8.692  1.3000  1.7139 -0.5743
  157SAPE  H16Y17600   2.834   3.609   8.548  0.5076 -2.2904 -1.4418
  157SAPE  C31717601   2.722   3.427   8.616  0.4045 -0.3334  0.1028
  157SAPE  H17X17602   2.733   3.364   8.707  1.8967  2.7777  2.1273
  157SAPE  H17Y17603   2.770   3.370   8.533 -1.0369  0.1807 -1.1234
  157SAPE  C31817604   2.573   3.430   8.584  0.3847 -0.4781  0.2055
  157SAPE  H18X17605   2.564   3.452   8.476 -0.3959 -1.0009  0.1616
  157SAPE  H18Y17606   2.523   3.507   8.646 -0.1284 -1.0257  0.4759
  157SAPE  H18Z17607   2.516   3.337   8.607  0.5208 -0.6535 -0.1630
  158SAPE     N17608   3.795   5.818  10.674  0.6770  0.2117 -0.3073
  158SAPE   HN117609   3.802   5.906  10.729  0.1450  0.1985 -0.2158
  158SAPE   HN217610   3.835   5.841  10.581  1.7698  0.4093  0.2023
  158SAPE   HN317611   3.695   5.792  10.668  0.1867  1.5422  1.4528
  158SAPE   C1217612   3.867   5.715  10.749 -0.1570 -0.5023 -0.6741
  158SAPE  H12A17613   3.821   5.617  10.725 -0.1569 -0.7646  0.3602
  158SAPE  H12B17614   3.847   5.736  10.856  0.7733  2.8664 -1.0809
  158SAPE   C1117615   4.022   5.713  10.725  0.4015 -0.1542  0.0858
  158SAPE  H11A17616   4.073   5.801  10.771 -0.3924  0.3379  0.0465
  158SAPE  H11B17617   4.030   5.726  10.615  0.2410  1.9218  0.2873
  158SAPE     P17618   4.075   5.456  10.698 -0.4527 -0.1643 -0.1329
  158SAPE   O1317619   4.079   5.346  10.799  0.0843  0.0620  0.4968
  158SAPE   O1417620   3.967   5.447  10.595  0.0691 -0.2643  0.3443
  158SAPE   O1217621   4.077   5.594  10.779 -0.2596  0.5222 -0.5228
  158SAPE   O1117622   4.215   5.462  10.616  0.1154 -0.3908  0.3101
  158SAPE    C117623   4.242   5.557  10.514 -0.7635 -0.7202  0.0280
  158SAPE    HA17624   4.153   5.617  10.483  0.2658  0.6133 -0.3972
  158SAPE    HB17625   4.320   5.625  10.552 -0.8119 -0.5144 -0.2372
  158SAPE    C217626   4.298   5.495  10.382 -0.5209 -0.3924  0.0418
  158SAPE    HS17627   4.326   5.576  10.311  1.5276 -1.8310 -0.8438
  158SAPE   O2117628   4.204   5.405  10.325  1.0567 -0.4723  0.1838
  158SAPE   C2117629   4.099   5.468  10.263 -0.1404 -0.3466  0.0967
  158SAPE   O2217630   4.091   5.588  10.248 -0.6649 -0.0177  0.0737
  158SAPE   C2217631   3.988   5.370  10.242  0.2261  0.9364  0.1098
  158SAPE   H2R17632   4.026   5.265  10.241  0.1549  0.9208 -0.9381
  158SAPE   H2S17633   3.931   5.369  10.338 -0.5306  0.0261 -0.3369
  158SAPE    C317634   4.433   5.429  10.411 -0.3349  0.2915 -0.0251
  158SAPE    HX17635   4.421   5.344  10.481 -3.5942  0.2725 -0.5097
  158SAPE    HY17636   4.496   5.506  10.461  1.4111 -0.8275 -0.4716
  158SAPE   O3117637   4.498   5.393  10.289 -0.3497 -0.3946  0.1927
  158SAPE   C3117638   4.513   5.260  10.273 -0.6048  1.1580  1.1116
  158SAPE   O3217639   4.479   5.173  10.353 -0.4539  0.0756 -0.1820
  158SAPE   C3217640   4.568   5.234  10.131 -0.4469 -0.4503  0.5541
  158SAPE   H2X17641   4.646   5.156  10.136 -0.0007 -0.1230 -1.0258
  158SAPE   H2Y17642   4.622   5.326  10.100 -0.2858  0.0518  2.2736
  158SAPE   C2317643   3.896   5.402  10.127 -0.1147  0.0531  0.0194
  158SAPE   H3R17644   3.947   5.472  10.057  1.5345 -1.4449 -0.3097
  158SAPE   H3S17645   3.810   5.461  10.165  1.2380  0.3221  2.7976
  158SAPE   C2417646   3.855   5.268  10.065  0.1125  0.1723  0.0378
  158SAPE   H4R17647   3.748   5.283  10.038  0.1504  0.9259  0.3155
  158SAPE   H4S17648   3.846   5.187  10.140 -0.4640  1.2649  1.1528
  158SAPE   C2517649   3.925   5.216   9.943 -0.4178 -1.0396 -0.9627
  158SAPE   H5R17650   3.994   5.134   9.971  0.4387 -0.8120 -2.3304
  158SAPE   C2617651   3.920   5.261   9.816  0.7128  0.0628 -0.3710
  158SAPE   H6R17652   3.981   5.218   9.735 -0.1232  0.2844 -1.1242
  158SAPE   C2717653   3.843   5.375   9.756  0.4315  0.2006 -0.1666
  158SAPE   H7R17654   3.917   5.457   9.754  0.3980  0.2107 -1.4065
  158SAPE   H7S17655   3.769   5.403   9.834 -0.5914  1.0888 -1.4494
  158SAPE   C2817656   3.770   5.361   9.623 -0.1015  0.4451 -0.0484
  158SAPE   H8R17657   3.825   5.294   9.555 -0.2936 -0.1955  0.4183
  158SAPE   C2917658   3.648   5.408   9.590  0.3923  0.4492 -0.5124
  158SAPE   H9R17659   3.611   5.398   9.487  1.1707 -0.7787 -0.6841
  158SAPE  C21017660   3.566   5.499   9.679 -0.0147  0.5903 -0.4287
  158SAPE  H10R17661   3.568   5.606   9.650 -0.3077 -0.1060 -3.0768
  158SAPE  H10S17662   3.566   5.471   9.787  1.1422 -0.8016 -0.7799
  158SAPE  C21117663   3.419   5.453   9.655  0.2650  0.2192 -0.6219
  158SAPE  H11R17664   3.399   5.355   9.700 -0.6455  1.6620  2.2336
  158SAPE  C21217665   3.327   5.519   9.588  0.2691 -0.1936 -0.4448
  158SAPE  H12R17666   3.227   5.476   9.578  0.1990 -0.1278 -0.0559
  158SAPE  C21317667   3.343   5.646   9.510  0.4119  0.2340  0.4865
  158SAPE  H13R17668   3.285   5.645   9.415  1.4707  1.1351 -0.1773
  158SAPE  H13S17669   3.444   5.658   9.465  0.3828 -1.7399 -0.1619
  158SAPE  C21417670   3.310   5.766   9.593 -0.0176  0.4668 -0.0801
  158SAPE  H14R17671   3.318   5.750   9.702  1.3311 -1.0157 -0.3953
  158SAPE  C21517672   3.264   5.882   9.550  0.1471  0.0375  0.9893
  158SAPE  H15R17673   3.244   5.957   9.628  2.5261  2.4974 -0.6682
  158SAPE  C21617674   3.248   5.931   9.405 -0.0570  0.1217 -1.0809
  158SAPE  H16R17675   3.258   6.042   9.398 -0.0448  0.1840 -0.0950
  158SAPE  H16S17676   3.145   5.912   9.368 -0.2320  1.1212 -1.1278
  158SAPE  C21717677   3.329   5.874   9.290 -0.4335 -0.0751  0.1983
  158SAPE  H17R17678   3.279   5.779   9.264 -1.3497  0.5600 -0.3781
  158SAPE  H17S17679   3.434   5.854   9.320 -0.5609  0.5400  1.0686
  158SAPE  C21817680   3.352   5.953   9.160 -0.3554  0.2204  0.0369
  158SAPE  H18R17681   3.437   5.917   9.099 -0.3157  1.4278 -0.6398
  158SAPE  H18S17682   3.373   6.055   9.198  1.7867 -0.3855  0.5408
  158SAPE  C21917683   3.223   5.955   9.073  0.2141  0.1790 -0.5670
  158SAPE  H19R17684   3.143   5.999   9.137  0.8407  0.0079  0.3402
  158SAPE  H19S17685   3.197   5.849   9.050  0.2549 -0.7470  3.3065
  158SAPE  C22017686   3.244   6.033   8.947  1.1776 -0.5527  0.2712
  158SAPE  H20R17687   3.141   6.057   8.911  0.4053 -0.2382  2.6054
  158SAPE  H20S17688   3.301   5.972   8.874  0.2081 -1.5164  0.3068
  158SAPE  H20T17689   3.299   6.128   8.964 -0.0437  0.4127 -0.9987
  158SAPE   C3317690   4.457   5.190  10.033 -0.7027 -0.0926 -0.2570
  158SAPE   H3X17691   4.427   5.093  10.077  0.8221  0.1644  1.4124
  158SAPE   H3Y17692   4.504   5.177   9.934 -0.7962  1.5213 -0.5234
  158SAPE   C3417693   4.351   5.305  10.020  0.2081 -0.2696 -0.1622
  158SAPE   H4X17694   4.364   5.380  10.101 -0.3191 -1.1601  0.7591
  158SAPE   H4Y17695   4.249   5.266  10.038 -0.5591  2.1015  0.9106
  158SAPE   C3517696   4.361   5.385   9.893  0.2900 -0.1024 -0.0491
  158SAPE   H5X17697   4.330   5.316   9.812 -1.0092  1.1880 -0.6647
  158SAPE   H5Y17698   4.468   5.408   9.871 -0.0278 -0.5054 -2.1291
  158SAPE   C3617699   4.274   5.507   9.877 -0.2628  0.5019 -0.0778
  158SAPE   H6X17700   4.307   5.577   9.956 -0.1319 -0.3285  0.6075
  158SAPE   H6Y17701   4.168   5.480   9.896 -1.0342  1.5579 -2.5692
  158SAPE   C3717702   4.289   5.570   9.736 -0.5816 -0.7949 -0.7861
  158SAPE   H7X17703   4.389   5.618   9.726 -1.1978  0.5971 -0.3849
  158SAPE   H7Y17704   4.219   5.656   9.728  1.2888  0.8430  0.1844
  158SAPE   C3817705   4.243   5.483   9.620 -0.1824 -0.0893 -0.7588
  158SAPE   H8X17706   4.144   5.435   9.633 -0.7145  0.6778 -1.8688
  158SAPE   H8Y17707   4.309   5.397   9.597 -0.4329 -0.6567  0.5809
  158SAPE   C3917708   4.240   5.560   9.486 -0.8643  0.4542 -0.5713
  158SAPE   H9X17709   4.335   5.615   9.473 -1.3155  1.2096 -0.7231
  158SAPE   H9Y17710   4.156   5.632   9.476 -0.9019  0.1120 -2.9339
  158SAPE  C31017711   4.214   5.468   9.360 -0.8137 -0.4350 -0.1407
  158SAPE  H10X17712   4.115   5.421   9.373 -1.4058  1.3500  2.1579
  158SAPE  H10Y17713   4.284   5.383   9.348 -0.0119  0.0567  0.9077
  158SAPE  C31117714   4.237   5.540   9.229 -0.2144 -0.8186 -0.5311
  158SAPE  H11X17715   4.344   5.565   9.213 -0.7578  0.0874 -2.9082
  158SAPE  H11Y17716   4.184   5.637   9.234  0.1648 -0.5196 -2.0751
  158SAPE  C31217717   4.193   5.455   9.111 -0.4612 -0.6702 -1.2147
  158SAPE  H12X17718   4.087   5.423   9.109 -1.1663  1.5722 -0.5859
  158SAPE  H12Y17719   4.252   5.362   9.127 -1.4007 -1.7423 -3.6615
  158SAPE  C31317720   4.228   5.514   8.977  0.5624  0.2929 -0.1860
  158SAPE  H13X17721   4.331   5.557   8.977  0.6103  0.2416  1.6809
  158SAPE  H13Y17722   4.175   5.609   8.955  1.3841  0.1174 -3.1376
  158SAPE  C31417723   4.233   5.412   8.855 -0.8041 -0.1536 -0.4617
  158SAPE  H14X17724   4.132   5.367   8.847 -1.1632  0.0718  2.2809
  158SAPE  H14Y17725   4.305   5.329   8.874 -1.4259 -0.5121  0.3652
  158SAPE  C31517726   4.258   5.477   8.711  0.2640  0.5186  0.3100
  158SAPE  H15X17727   4.254   5.387   8.647 -0.2762 -0.9235  2.3448
  158SAPE  H15Y17728   4.360   5.520   8.703  0.5016  0.0974  1.0389
  158SAPE  C31617729   4.148   5.579   8.676  0.0102  0.0077 -0.1669
  158SAPE  H16X17730   4.185   5.673   8.722 -0.3944 -0.5135  1.2708
  158SAPE  H16Y17731   4.046   5.558   8.716  0.2564  0.1721  0.5543
  158SAPE  C31717732   4.129   5.611   8.531  0.1620  0.1452  0.1476
  158SAPE  H17X17733   4.081   5.528   8.476 -0.6709  1.1674 -0.6953
  158SAPE  H17Y17734   4.233   5.643   8.507  1.0343 -2.0621  0.8695
  158SAPE  C31817735   4.035   5.731   8.515  0.2169 -0.0367  0.0739
  158SAPE  H18X17736   3.931   5.710   8.547  0.2088  4.1100  3.1109
  158SAPE  H18Y17737   4.030   5.756   8.406  0.0434 -0.1946  0.0456
  158SAPE  H18Z17738   4.077   5.818   8.571 -0.5017  1.1131 -1.1182
  159SAPE     N17739   3.531   1.986   6.118  0.3958 -0.3615 -0.0037
  159SAPE   HN117740   3.513   1.896   6.168  0.1810 -1.5076 -2.0639
  159SAPE   HN217741   3.458   2.007   6.047  0.1461  0.6265  0.5430
  159SAPE   HN317742   3.625   1.998   6.074 -0.4534  1.8142 -1.3047
  159SAPE   C1217743   3.513   2.088   6.229 -0.7692 -0.2519  0.4323
  159SAPE  H12A17744   3.549   2.033   6.319 -2.3517  0.4312  1.5086
  159SAPE  H12B17745   3.404   2.110   6.223 -0.6141  0.0219 -1.6244
  159SAPE   C1117746   3.592   2.216   6.210 -0.0926  0.3585  0.2581
  159SAPE  H11A17747   3.572   2.269   6.306 -1.8351 -0.4708  0.3752
  159SAPE  H11B17748   3.562   2.280   6.124  0.0381  1.0656  0.7357
  159SAPE     P17749   3.818   2.111   6.310  0.0201 -0.3877  0.2113
  159SAPE   O1317750   3.834   1.968   6.285 -0.1085 -0.3098 -0.2228
  159SAPE   O1417751   3.942   2.190   6.324 -0.3939 -0.0851  0.0337
  159SAPE   O1217752   3.727   2.174   6.199  0.3047  0.0722  0.1935
  159SAPE   O1117753   3.737   2.129   6.436 -0.1176 -0.0391 -0.1626
  159SAPE    C117754   3.727   2.034   6.539  0.3738  0.2181  0.1196
  159SAPE    HA17755   3.636   1.975   6.513 -0.3645  0.8561  1.1849
  159SAPE    HB17756   3.815   1.966   6.536  1.2986  1.3328  1.5160
  159SAPE    C217757   3.740   2.090   6.694  0.1276  0.3293  1.0129
  159SAPE    HS17758   3.698   2.006   6.753 -2.6123  1.6128  1.0073
  159SAPE   O2117759   3.656   2.207   6.705 -0.1979 -0.3435 -0.8380
  159SAPE   C2117760   3.532   2.189   6.691  0.5275 -0.0630 -0.0644
  159SAPE   O2217761   3.477   2.081   6.686  0.0873  0.0020 -0.0815
  159SAPE   C2217762   3.448   2.312   6.661 -0.2536 -0.2108  0.3096
  159SAPE   H2R17763   3.508   2.385   6.602  0.3555  0.0940  1.2867
  159SAPE   H2S17764   3.372   2.285   6.585  0.6607  1.7376 -1.3768
  159SAPE    C317765   3.889   2.126   6.714  0.0018 -0.2289 -0.0204
  159SAPE    HX17766   3.938   2.201   6.649 -0.3354 -0.5357 -0.6280
  159SAPE    HY17767   3.942   2.036   6.676 -0.8642  0.2264 -2.3957
  159SAPE   O3117768   3.923   2.146   6.856  0.3080 -0.0884  0.0430
  159SAPE   C3117769   3.914   2.264   6.913  0.7505 -0.4311  0.2971
  159SAPE   O3217770   3.861   2.365   6.862 -0.7065  0.3338 -0.2396
  159SAPE   C3217771   3.973   2.254   7.053 -0.4608  0.5534  0.4351
  159SAPE   H2X17772   4.084   2.254   7.044 -0.5481  0.0155 -0.7889
  159SAPE   H2Y17773   3.937   2.159   7.099  0.2500 -0.0470 -0.2283
  159SAPE   C2317774   3.381   2.368   6.787 -0.6329 -0.9000 -0.2960
  159SAPE   H3R17775   3.326   2.290   6.844 -0.3350 -0.9295 -0.0449
  159SAPE   H3S17776   3.299   2.436   6.755 -1.6106 -1.0281  1.8306
  159SAPE   C2417777   3.483   2.420   6.892  0.4132 -0.7866 -0.3699
  159SAPE   H4R17778   3.536   2.505   6.844  0.1706 -1.6853 -2.2838
  159SAPE   H4S17779   3.565   2.349   6.916 -1.9619 -3.8940 -1.2520
  159SAPE   C2517780   3.405   2.485   7.007 -0.1000  0.0711  0.1402
  159SAPE   H5R17781   3.377   2.590   6.990 -0.5070 -0.0495  0.0481
  159SAPE   C2617782   3.398   2.442   7.130 -0.4001 -0.3401 -0.2786
  159SAPE   H6R17783   3.345   2.498   7.208 -2.8605 -1.6454 -0.9654
  159SAPE   C2717784   3.465   2.314   7.176 -0.7904 -0.7181  0.1376
  159SAPE   H7R17785   3.556   2.284   7.119 -1.1239 -0.6557 -0.4308
  159SAPE   H7S17786   3.388   2.235   7.168 -2.7687  1.1038  0.6812
  159SAPE   C2817787   3.500   2.344   7.321 -0.3370 -0.5341 -0.1535
  159SAPE   H8R17788   3.537   2.447   7.334 -1.3667 -0.3681  1.6251
  159SAPE   C2917789   3.479   2.267   7.434 -0.4445 -0.5392 -0.6638
  159SAPE   H9R17790   3.494   2.319   7.530 -1.2549  0.5024 -1.0893
  159SAPE  C21017791   3.422   2.131   7.428  0.5156  0.3206 -0.0116
  159SAPE  H10R17792   3.499   2.054   7.403 -0.6577 -1.2439  1.0710
  159SAPE  H10S17793   3.356   2.125   7.339  2.1190  0.8292 -1.2475
  159SAPE  C21117794   3.337   2.085   7.537 -0.0375 -0.2416  1.0117
  159SAPE  H11R17795   3.229   2.075   7.516 -0.2780  0.5304  1.8036
  159SAPE  C21217796   3.366   2.056   7.671  0.5883  0.2061 -0.0209
  159SAPE  H12R17797   3.294   2.029   7.749 -1.6595  0.5132 -1.9286
  159SAPE  C21317798   3.507   2.083   7.720 -0.4802  1.0302 -1.0185
  159SAPE  H13R17799   3.575   2.122   7.640  0.2322 -0.3489 -1.0949
  159SAPE  H13S17800   3.550   1.989   7.760  1.3716  2.1755 -0.2051
  159SAPE  C21417801   3.504   2.198   7.824  0.9730  0.0208 -0.4057
  159SAPE  H14R17802   3.513   2.301   7.785 -0.9902 -0.4006 -2.0999
  159SAPE  C21517803   3.496   2.184   7.956 -0.0774  0.6844 -0.5018
  159SAPE  H15R17804   3.488   2.273   8.020 -0.1605  1.0650 -1.0431
  159SAPE  C21617805   3.489   2.053   8.040  0.0761 -0.7131  0.1493
  159SAPE  H16R17806   3.591   2.026   8.075  0.3530 -0.8375 -0.7265
  159SAPE  H16S17807   3.460   1.966   7.977  2.7090 -1.2242 -0.4406
  159SAPE  C21717808   3.398   2.065   8.159 -0.0869  0.3194  0.5348
  159SAPE  H17R17809   3.300   2.034   8.117  0.4344  1.1113 -1.3261
  159SAPE  H17S17810   3.391   2.171   8.190  0.7695  0.6463 -0.3502
  159SAPE  C21817811   3.430   1.971   8.270 -1.4166  0.3184 -0.6540
  159SAPE  H18R17812   3.534   1.995   8.298 -0.8778 -3.0374  0.4776
  159SAPE  H18S17813   3.432   1.867   8.230  0.8388  0.2940 -0.5430
  159SAPE  C21917814   3.348   1.986   8.396 -0.0481 -0.0734 -0.1957
  159SAPE  H19R17815   3.250   1.938   8.376  1.5317 -2.9541 -1.5268
  159SAPE  H19S17816   3.342   2.095   8.415  0.2932 -0.1170  0.1703
  159SAPE  C22017817   3.401   1.919   8.521  0.1175 -0.4504  0.3315
  159SAPE  H20R17818   3.340   1.936   8.613 -1.6415 -0.0159 -0.8738
  159SAPE  H20S17819   3.505   1.954   8.537  0.6559 -0.8317 -2.0774
  159SAPE  H20T17820   3.404   1.809   8.501 -0.4769 -0.8761  2.4327
  159SAPE   C3317821   3.934   2.371   7.153  0.4687 -0.2620 -0.3958
  159SAPE   H3X17822   3.827   2.355   7.178  0.3790 -0.7903 -1.1000
  159SAPE   H3Y17823   3.925   2.472   7.108  0.9886  0.2754  0.6782
  159SAPE   C3417824   4.029   2.376   7.274 -0.4030 -0.1339 -0.7147
  159SAPE   H4X17825   4.128   2.411   7.237 -0.6748  0.9155 -0.4696
  159SAPE   H4Y17826   4.043   2.277   7.322 -1.0926 -0.1316 -0.5132
  159SAPE   C3517827   3.986   2.483   7.372 -0.2733  0.0252 -0.0523
  159SAPE   H5X17828   4.013   2.585   7.339  3.2840 -1.3691 -1.8077
  159SAPE   H5Y17829   4.044   2.469   7.467 -0.5874  1.5692  0.3732
  159SAPE   C3617830   3.835   2.498   7.399 -0.6040  0.1943 -0.0382
  159SAPE   H6X17831   3.787   2.398   7.411 -0.6432  0.0474 -1.3252
  159SAPE   H6Y17832   3.785   2.537   7.308  2.1900  1.2589 -1.1726
  159SAPE   C3717833   3.795   2.583   7.532 -0.2436  0.0121 -0.1874
  159SAPE   H7X17834   3.809   2.691   7.511 -0.5153  0.4469  1.8553
  159SAPE   H7Y17835   3.864   2.553   7.613 -0.7652  2.6408  1.2545
  159SAPE   C3817836   3.654   2.558   7.577 -0.0453  0.3008  0.0358
  159SAPE   H8X17837   3.646   2.449   7.596  1.4483  0.3167  0.7646
  159SAPE   H8Y17838   3.575   2.583   7.502 -0.8381  2.3817  1.5037
  159SAPE   C3917839   3.620   2.616   7.717 -0.4001  0.3527 -0.1244
  159SAPE   H9X17840   3.669   2.563   7.801  0.8758 -0.3595 -1.2861
  159SAPE   H9Y17841   3.512   2.592   7.720 -0.1525 -0.5340  2.4369
  159SAPE  C31017842   3.647   2.765   7.738 -0.0889 -0.1608 -0.1491
  159SAPE  H10X17843   3.590   2.818   7.659 -1.3345 -1.4741 -0.1359
  159SAPE  H10Y17844   3.756   2.787   7.734  0.6386 -3.5260 -0.5768
  159SAPE  C31117845   3.605   2.820   7.879  0.2943 -0.2158  0.9855
  159SAPE  H11X17846   3.680   2.805   7.960  0.7388  0.0556  0.6245
  159SAPE  H11Y17847   3.520   2.758   7.915 -0.8827  0.0348 -1.2678
  159SAPE  C31217848   3.570   2.963   7.892 -0.5117  0.2421  0.2723
  159SAPE  H12X17849   3.498   2.981   7.809  0.9573  0.5297 -0.9537
  159SAPE  H12Y17850   3.656   3.026   7.863  0.4182 -2.5521 -3.3175
  159SAPE  C31317851   3.501   3.008   8.011 -0.3712  0.4386  0.1434
  159SAPE  H13X17852   3.422   2.934   8.036 -1.7435  1.6312 -0.6097
  159SAPE  H13Y17853   3.445   3.103   8.002  0.0389  0.6874  0.2362
  159SAPE  C31417854   3.591   3.008   8.142 -0.6238 -0.0275  0.3899
  159SAPE  H14X17855   3.606   3.114   8.169 -2.0832  0.0124  1.0975
  159SAPE  H14Y17856   3.694   2.967   8.133 -1.1033 -0.8951 -1.5635
  159SAPE  C31517857   3.529   2.940   8.262  0.2602 -0.2284  0.5767
  159SAPE  H15X17858   3.520   2.829   8.249  1.2314 -0.4715  1.9146
  159SAPE  H15Y17859   3.422   2.969   8.272  0.5314  0.7339  0.6987
  159SAPE  C31617860   3.603   2.971   8.395 -0.9950  0.0648  0.2568
  159SAPE  H16X17861   3.605   3.080   8.414 -1.3004 -0.0952  1.2097
  159SAPE  H16Y17862   3.712   2.951   8.385  0.1036  4.8058  1.5273
  159SAPE  C31717863   3.541   2.897   8.514 -0.0040  0.0755  0.1782
  159SAPE  H17X17864   3.574   2.791   8.511 -0.0715 -0.0142  2.2266
  159SAPE  H17Y17865   3.430   2.899   8.506 -0.0131  1.7971  0.5000
  159SAPE  C31817866   3.586   2.958   8.640  0.4261 -0.0884 -0.5564
  159SAPE  H18X17867   3.534   2.911   8.726  0.4228  0.9909  0.0369
  159SAPE  H18Y17868   3.562   3.067   8.633  2.4991  0.4118 -0.0079
  159SAPE  H18Z17869   3.695   2.940   8.637  0.3540 -0.3401 -2.5093
  160SAPE     N17870   2.400   3.055   6.147  0.1796 -0.3112 -0.0226
  160SAPE   HN117871   2.486   3.011   6.187  0.3945  0.0753 -0.0547
  160SAPE   HN217872   2.319   2.991   6.138  0.7015 -0.7744 -1.4464
  160SAPE   HN317873   2.426   3.099   6.057 -0.4511 -0.1531 -0.1258
  160SAPE   C1217874   2.356   3.154   6.253  0.1392  0.7683 -0.5439
  160SAPE  H12A17875   2.334   3.101   6.347  1.3106 -2.4159 -1.9832
  160SAPE  H12B17876   2.260   3.199   6.220 -2.4269 -4.1153 -0.2791
  160SAPE   C1117877   2.463   3.268   6.268  0.3453 -0.5989 -0.0575
  160SAPE  H11A17878   2.420   3.335   6.346 -2.8700 -0.7489 -1.6286
  160SAPE  H11B17879   2.470   3.332   6.178 -0.6100 -1.9185 -1.0956
  160SAPE     P17880   2.660   3.233   6.432 -0.0572  0.2232 -0.3596
  160SAPE   O1317881   2.695   3.092   6.474 -0.0384  0.2203  0.3047
  160SAPE   O1417882   2.774   3.327   6.423 -0.1338  0.0160  0.2212
  160SAPE   O1217883   2.590   3.216   6.292  0.2451  0.1742 -0.1547
  160SAPE   O1117884   2.543   3.288   6.525 -0.8832 -0.1128 -0.1313
  160SAPE    C117885   2.561   3.417   6.596 -0.0183  0.0383 -0.8608
  160SAPE    HA17886   2.638   3.486   6.555 -0.8547 -0.6367 -3.7197
  160SAPE    HB17887   2.464   3.471   6.601 -2.2358 -3.8885  0.8032
  160SAPE    C217888   2.605   3.384   6.739 -0.2440 -0.4703  0.2858
  160SAPE    HS17889   2.688   3.311   6.729 -0.7709 -1.2163  1.2657
  160SAPE   O2117890   2.494   3.336   6.812 -0.3520  0.0578 -0.4581
  160SAPE   C2117891   2.512   3.259   6.913 -0.2067  0.8604 -0.7676
  160SAPE   O2217892   2.622   3.205   6.934  0.2785  0.6119  0.1498
  160SAPE   C2217893   2.388   3.228   7.001  0.1524  0.1898  0.1662
  160SAPE   H2R17894   2.301   3.280   6.955 -0.5396 -1.0554  0.0420
  160SAPE   H2S17895   2.365   3.119   6.994  0.5668  0.0869  0.4329
  160SAPE    C317896   2.681   3.501   6.817 -0.3510  0.1826 -0.2143
  160SAPE    HX17897   2.616   3.590   6.833 -1.6731 -1.2556  2.8862
  160SAPE    HY17898   2.763   3.533   6.749  1.3010 -2.2871  0.5339
  160SAPE   O3117899   2.747   3.459   6.941  0.0445 -0.5230  0.3280
  160SAPE   C3117900   2.855   3.391   6.932 -0.6626 -0.6648 -0.1483
  160SAPE   O3217901   2.920   3.373   6.829  0.2243  0.3389  0.2490
  160SAPE   C3217902   2.886   3.324   7.066 -0.1435 -0.6184 -0.1556
  160SAPE   H2X17903   2.986   3.368   7.086 -0.1120 -0.2734 -1.0716
  160SAPE   H2Y17904   2.899   3.215   7.047 -3.7219 -0.4401 -4.4776
  160SAPE   C2317905   2.421   3.258   7.153  0.1360 -0.1992 -0.2067
  160SAPE   H3R17906   2.453   3.364   7.151 -2.2687  0.5522 -0.3522
  160SAPE   H3S17907   2.505   3.196   7.189 -0.9896 -1.2651  0.6243
  160SAPE   C2417908   2.310   3.230   7.253 -0.0094 -0.1255  0.6096
  160SAPE   H4R17909   2.342   3.268   7.353 -1.0716  1.7971  0.2336
  160SAPE   H4S17910   2.302   3.119   7.258  1.4662 -0.2704  0.1069
  160SAPE   C2517911   2.174   3.275   7.211 -0.1912  0.4361 -0.8583
  160SAPE   H5R17912   2.152   3.286   7.104 -1.0034  2.0812 -0.5505
  160SAPE   C2617913   2.079   3.314   7.300  0.0253 -0.1282  0.0404
  160SAPE   H6R17914   1.988   3.351   7.250  0.9795  0.8523 -1.0080
  160SAPE   C2717915   2.086   3.316   7.450  1.0633  0.4469  0.4715
  160SAPE   H7R17916   2.011   3.391   7.481  0.1494  0.2371 -1.1819
  160SAPE   H7S17917   2.189   3.352   7.473  1.1123 -0.4652  1.7781
  160SAPE   C2817918   2.060   3.180   7.511 -0.6437 -0.3050 -0.2302
  160SAPE   H8R17919   2.096   3.093   7.454  0.4685 -0.2974  0.4547
  160SAPE   C2917920   1.997   3.159   7.624 -0.1512  0.8281 -0.6846
  160SAPE   H9R17921   1.971   3.056   7.654 -0.2439  1.7036  2.3806
  160SAPE  C21017922   1.944   3.258   7.726  0.5426 -0.2642  0.2214
  160SAPE  H10R17923   1.865   3.212   7.789 -1.7733  1.9649 -0.9991
  160SAPE  H10S17924   1.891   3.339   7.673 -2.2553 -1.6535  0.8105
  160SAPE  C21117925   2.050   3.308   7.828 -0.2380  0.4717  0.0467
  160SAPE  H11R17926   2.105   3.399   7.799  1.6628 -0.3862  0.8608
  160SAPE  C21217927   2.079   3.241   7.945  0.0550  0.0511 -0.2026
  160SAPE  H12R17928   2.136   3.292   8.024  0.1885  0.9563 -0.8775
  160SAPE  C21317929   2.016   3.123   8.003  0.4501  0.1467  0.3761
  160SAPE  H13R17930   2.084   3.076   8.078  0.9071 -1.6375 -1.1110
  160SAPE  H13S17931   1.995   3.060   7.914  1.4985 -0.6557  0.6814
  160SAPE  C21417932   1.882   3.161   8.073 -0.6409 -0.5735  0.0070
  160SAPE  H14R17933   1.834   3.255   8.042  0.9343  0.4043  0.4447
  160SAPE  C21517934   1.826   3.096   8.172  0.5903  0.1154  0.3739
  160SAPE  H15R17935   1.727   3.134   8.204 -0.2348  0.1404 -2.0973
  160SAPE  C21617936   1.874   2.963   8.225 -0.4523 -0.6802 -0.2916
  160SAPE  H16R17937   1.953   2.930   8.154  0.4058  0.8552 -0.0652
  160SAPE  H16S17938   1.789   2.892   8.216 -1.2095  0.4140 -2.1355
  160SAPE  C21717939   1.925   2.963   8.368  0.0639 -0.4932  0.0551
  160SAPE  H17R17940   1.942   2.857   8.397  0.3475 -0.0984  1.4052
  160SAPE  H17S17941   1.862   3.011   8.446  1.0947  3.6015 -1.5033
  160SAPE  C21817942   2.062   3.047   8.381 -0.2456  0.4416 -0.2094
  160SAPE  H18R17943   2.040   3.154   8.364 -0.1153  0.3246 -1.1207
  160SAPE  H18S17944   2.133   3.000   8.310  2.1843  0.6848  1.9904
  160SAPE  C21917945   2.123   3.038   8.516 -0.2919  0.1227 -0.1009
  160SAPE  H19R17946   2.232   3.054   8.503 -0.3031  1.4014  1.3101
  160SAPE  H19S17947   2.106   2.945   8.575 -5.9965  1.4216  0.5680
  160SAPE  C22017948   2.083   3.156   8.610  0.3935 -0.1412  0.2560
  160SAPE  H20R17949   2.092   3.253   8.555  0.6702  0.4554  1.3461
  160SAPE  H20S17950   2.155   3.161   8.694 -2.8364  1.1107  3.0517
  160SAPE  H20T17951   1.978   3.156   8.645 -0.2455  1.5820 -1.5259
  160SAPE   C3317952   2.792   3.368   7.179 -0.0670  0.1333 -0.3888
  160SAPE   H3X17953   2.702   3.302   7.177 -0.1969  0.3447 -2.4419
  160SAPE   H3Y17954   2.759   3.473   7.164 -1.3402 -0.1654  0.2453
  160SAPE   C3417955   2.862   3.356   7.309  0.4050 -0.0212  0.2603
  160SAPE   H4X17956   2.963   3.402   7.308 -0.4328  1.9285  2.1409
  160SAPE   H4Y17957   2.858   3.247   7.328 -1.9526  0.3727  2.2586
  160SAPE   C3517958   2.790   3.419   7.429  0.9807 -0.4032 -0.1805
  160SAPE   H5X17959   2.694   3.363   7.432  0.8901 -0.3231 -1.3443
  160SAPE   H5Y17960   2.784   3.528   7.409 -1.0935 -0.4988 -0.2350
  160SAPE   C3617961   2.858   3.411   7.560 -0.4905 -0.5207  0.0493
  160SAPE   H6X17962   2.950   3.473   7.565 -0.9155 -0.0319  2.5750
  160SAPE   H6Y17963   2.895   3.307   7.569  0.4049 -0.1946  0.2269
  160SAPE   C3717964   2.771   3.449   7.679  0.2587 -0.4159 -0.7306
  160SAPE   H7X17965   2.669   3.411   7.656  1.2777 -3.4588 -0.4085
  160SAPE   H7Y17966   2.767   3.560   7.680 -2.6965 -0.4487  2.1937
  160SAPE   C3817967   2.829   3.400   7.815  0.3967 -0.0720 -0.1806
  160SAPE   H8X17968   2.934   3.436   7.823 -0.3858  2.1456  0.7063
  160SAPE   H8Y17969   2.825   3.289   7.819 -0.8118 -0.0263  0.0710
  160SAPE   C3917970   2.750   3.455   7.932 -0.2041  0.0894  0.2443
  160SAPE   H9X17971   2.645   3.425   7.910 -0.4680  1.1654  0.0319
  160SAPE   H9Y17972   2.746   3.566   7.931  2.0053  0.1960  0.1940
  160SAPE  C31017973   2.792   3.395   8.065  0.5257  0.4849  0.4516
  160SAPE  H10X17974   2.792   3.286   8.047 -3.4557  0.5908 -0.7731
  160SAPE  H10Y17975   2.729   3.412   8.156  0.7552  0.2125  0.6608
  160SAPE  C31117976   2.933   3.445   8.103 -0.1726 -0.0705 -0.5346
  160SAPE  H11X17977   2.944   3.552   8.078  0.3534  0.7231  2.9021
  160SAPE  H11Y17978   3.005   3.387   8.042 -0.5596 -0.2687 -0.8087
  160SAPE  C31217979   2.952   3.426   8.252 -0.0639  0.2914 -0.1116
  160SAPE  H12X17980   2.951   3.318   8.279  1.8486 -0.5707 -3.1995
  160SAPE  H12Y17981   2.869   3.485   8.298  0.8013  3.1137 -1.9991
  160SAPE  C31317982   3.077   3.486   8.315 -0.4239 -0.5031  0.4114
  160SAPE  H13X17983   3.065   3.597   8.313 -0.8842 -0.5357  1.2855
  160SAPE  H13Y17984   3.168   3.458   8.258 -1.1791 -0.7276 -0.7072
  160SAPE  C31417985   3.099   3.453   8.459 -0.2612 -0.6061 -0.0694
  160SAPE  H14X17986   3.127   3.345   8.458  1.9713 -0.1214  2.7252
  160SAPE  H14Y17987   3.011   3.471   8.524 -1.1814  0.0610 -1.4763
  160SAPE  C31517988   3.216   3.518   8.534 -0.0854  0.3210 -0.0073
  160SAPE  H15X17989   3.188   3.620   8.565  0.9114 -0.0922  2.3491
  160SAPE  H15Y17990   3.293   3.515   8.454 -0.1916 -1.2681 -0.0741
  160SAPE  C31617991   3.239   3.441   8.661 -0.8022 -0.4743  0.4821
  160SAPE  H16X17992   3.280   3.342   8.632  1.5208  1.0848 -1.8009
  160SAPE  H16Y17993   3.147   3.430   8.722 -0.4571  4.2483  2.0039
  160SAPE  C31717994   3.346   3.513   8.751 -0.4752  0.3024 -0.7236
  160SAPE  H17X17995   3.321   3.621   8.764 -1.6486  0.0053 -0.3902
  160SAPE  H17Y17996   3.449   3.506   8.712 -0.7020 -1.3378 -1.0469
  160SAPE  C31817997   3.363   3.457   8.895 -0.0277  0.6959  0.0692
  160SAPE  H18X17998   3.465   3.461   8.938  0.8098 -0.2947 -1.7689
  160SAPE  H18Y17999   3.337   3.349   8.887  1.3457  0.3680  0.0060
  160SAPE  H18Z18000   3.295   3.513   8.963 -0.5324 -0.4871  0.5688
  161SAPE     N18001   4.433   2.164   6.329  0.0692  0.2070 -0.3303
  161SAPE   HN118002   4.329   2.162   6.333  0.0889  0.4980  0.3246
  161SAPE   HN218003   4.465   2.261   6.309 -1.3772  0.4329 -1.6608
  161SAPE   HN318004   4.465   2.108   6.248 -0.9081  0.2672 -0.7701
  161SAPE   C1218005   4.519   2.118   6.448 -0.0444  0.1099 -0.3604
  161SAPE  H12A18006   4.454   2.132   6.537 -0.3646  0.4518 -0.6481
  161SAPE  H12B18007   4.603   2.190   6.458  0.2462 -0.3559  0.5705
  161SAPE   C1118008   4.575   1.975   6.440  0.1846 -0.0700 -0.2636
  161SAPE  H11A18009   4.494   1.901   6.420  1.6250 -1.7250 -0.0241
  161SAPE  H11B18010   4.617   1.950   6.539  1.3969 -0.3961 -0.8590
  161SAPE     P18011   4.723   1.844   6.263  0.1669 -0.2630 -0.3925
  161SAPE   O1318012   4.598   1.781   6.213  0.2312  0.3755  0.4802
  161SAPE   O1418013   4.829   1.882   6.170 -0.3966 -1.0691  0.0611
  161SAPE   O1218014   4.676   1.972   6.338 -0.0145  0.4908 -0.3598
  161SAPE   O1118015   4.767   1.759   6.390  0.1265 -0.1023 -0.6525
  161SAPE    C118016   4.879   1.808   6.462 -0.4915  0.1257  0.2995
  161SAPE    HA18017   4.969   1.763   6.415 -0.4607  1.1300 -0.6171
  161SAPE    HB18018   4.894   1.918   6.470 -0.6277  0.1625  0.0317
  161SAPE    C218019   4.866   1.758   6.607  1.5414 -0.6403 -0.5883
  161SAPE    HS18020   4.844   1.649   6.595  0.2903 -0.4896  0.2751
  161SAPE   O2118021   4.753   1.822   6.674  0.5401 -0.0144  0.7715
  161SAPE   C2118022   4.690   1.744   6.760 -0.7032  0.3527 -0.0373
  161SAPE   O2218023   4.721   1.631   6.781 -0.0747 -0.2371 -0.1357
  161SAPE   C2218024   4.565   1.817   6.805 -1.1294  0.3448 -0.1881
  161SAPE   H2R18025   4.584   1.923   6.832 -0.7683 -0.0315  1.0550
  161SAPE   H2S18026   4.486   1.814   6.726 -1.8437 -1.5625  0.5731
  161SAPE    C318027   5.000   1.788   6.680 -0.2062  0.0533 -0.1211
  161SAPE    HX18028   5.007   1.897   6.661 -0.6143  0.2553  0.8664
  161SAPE    HY18029   5.082   1.744   6.619  1.0160 -0.8814  2.1198
  161SAPE   O3118030   4.991   1.763   6.821  0.5008 -0.2178 -0.2736
  161SAPE   C3118031   5.027   1.641   6.855 -0.6583  0.1767 -0.2944
  161SAPE   O3218032   5.051   1.555   6.774 -0.4182  0.5327 -0.6152
  161SAPE   C3218033   5.037   1.620   7.005 -0.0622  0.2731 -0.2081
  161SAPE   H2X18034   4.933   1.632   7.042 -0.6662 -0.8358 -1.5141
  161SAPE   H2Y18035   5.097   1.703   7.049  0.3955 -0.2569  0.1610
  161SAPE   C2318036   4.499   1.754   6.931  0.3264 -0.0624  0.3714
  161SAPE   H3R18037   4.486   1.647   6.902  2.0347 -0.3667  0.6666
  161SAPE   H3S18038   4.404   1.805   6.959  0.5869  0.1940  0.7850
  161SAPE   C2418039   4.584   1.756   7.056  0.4242 -0.0020  0.1560
  161SAPE   H4R18040   4.612   1.860   7.083 -2.0452  0.7962 -0.2253
  161SAPE   H4S18041   4.680   1.704   7.034 -0.1054 -0.3020 -1.5425
  161SAPE   C2518042   4.511   1.698   7.171  0.0835  0.2192  0.8344
  161SAPE   H5R18043   4.408   1.734   7.181  0.5463  1.8854 -0.2650
  161SAPE   C2618044   4.565   1.612   7.257  0.0695 -1.1738 -0.1670
  161SAPE   H6R18045   4.496   1.577   7.335 -2.3712  0.3833 -1.5834
  161SAPE   C2718046   4.704   1.551   7.259  0.9328  0.1245  0.0776
  161SAPE   H7R18047   4.748   1.542   7.157 -0.4547 -0.4511 -0.4745
  161SAPE   H7S18048   4.695   1.444   7.289  0.7349  0.3146  0.6801
  161SAPE   C2818049   4.798   1.627   7.342  0.0644  0.6118  0.6421
  161SAPE   H8R18050   4.831   1.721   7.296  0.4755  0.7495  1.2065
  161SAPE   C2918051   4.844   1.593   7.465 -0.6158 -0.3963  0.4674
  161SAPE   H9R18052   4.912   1.665   7.513 -2.5624  1.0991  1.0490
  161SAPE  C21018053   4.812   1.479   7.555 -0.5498 -0.3633 -0.6376
  161SAPE  H10R18054   4.888   1.486   7.635 -2.5143 -0.0098  1.2409
  161SAPE  H10S18055   4.827   1.381   7.505  2.5197  0.0377 -0.5771
  161SAPE  C21118056   4.669   1.490   7.605  0.0429 -0.0925  0.5604
  161SAPE  H11R18057   4.598   1.434   7.542 -0.5086  0.0846  1.0203
  161SAPE  C21218058   4.629   1.548   7.720 -0.9032  0.0000 -0.4209
  161SAPE  H12R18059   4.521   1.545   7.741 -0.9683  1.6276 -0.4594
  161SAPE  C21318060   4.715   1.631   7.819 -0.2969  1.0376 -0.4049
  161SAPE  H13R18061   4.815   1.648   7.775  1.5332 -4.2565  1.2438
  161SAPE  H13S18062   4.737   1.568   7.908 -2.1189 -1.4030 -1.6064
  161SAPE  C21418063   4.659   1.769   7.853 -0.1148  0.9450 -0.1251
  161SAPE  H14R18064   4.586   1.796   7.775  0.0686  0.8828 -0.3202
  161SAPE  C21518065   4.689   1.852   7.955 -0.3017  0.5002  0.2449
  161SAPE  H15R18066   4.631   1.945   7.970 -0.3317  0.5393 -0.0965
  161SAPE  C21618067   4.794   1.826   8.060  0.6614  0.0547  0.4100
  161SAPE  H16R18068   4.866   1.911   8.056  1.7674 -0.7303  2.8463
  161SAPE  H16S18069   4.848   1.737   8.021 -2.0971 -1.3264 -0.3898
  161SAPE  C21718070   4.738   1.799   8.197 -0.6085 -1.2289  0.1272
  161SAPE  H17R18071   4.815   1.744   8.256  0.6829 -0.0551 -0.4411
  161SAPE  H17S18072   4.656   1.725   8.205  0.0162 -2.0142 -0.5615
  161SAPE  C21818073   4.685   1.917   8.275  0.3970  0.3852 -0.3251
  161SAPE  H18R18074   4.601   1.960   8.216  1.1197 -1.1289 -2.5244
  161SAPE  H18S18075   4.769   1.989   8.285  1.6116 -0.9858 -0.4828
  161SAPE  C21918076   4.623   1.869   8.405  0.1926  0.2425 -0.1780
  161SAPE  H19R18077   4.659   1.770   8.442 -0.9816 -0.8082 -1.7735
  161SAPE  H19S18078   4.517   1.837   8.392 -0.4629  2.0963  0.5070
  161SAPE  C22018079   4.616   1.958   8.532 -0.0198  0.1707  0.3716
  161SAPE  H20R18080   4.561   2.051   8.506  0.2799  0.3192  0.2709
  161SAPE  H20S18081   4.719   1.979   8.569 -0.8564  2.5356  1.4455
  161SAPE  H20T18082   4.562   1.914   8.618  1.4428  1.1436  1.8131
  161SAPE   C3318083   5.088   1.482   7.042  0.4374  0.2360 -1.2999
  161SAPE   H3X18084   5.185   1.466   6.989  1.0297  1.4105 -0.5852
  161SAPE   H3Y18085   5.037   1.395   6.996 -0.2251  0.3731 -0.8374
  161SAPE   C3418086   5.102   1.454   7.193  1.1549 -0.1629  0.5030
  161SAPE   H4X18087   5.147   1.353   7.203  2.8193  0.4445 -0.6202
  161SAPE   H4Y18088   4.998   1.449   7.231  0.4529  1.6720 -1.0735
  161SAPE   C3518089   5.183   1.559   7.265 -0.0111  1.0881  0.5166
  161SAPE   H5X18090   5.122   1.652   7.259 -1.8546 -0.1685 -0.9906
  161SAPE   H5Y18091   5.285   1.579   7.226 -0.2080  0.6012 -0.2473
  161SAPE   C3618092   5.207   1.520   7.412 -0.2181 -0.4950  0.2519
  161SAPE   H6X18093   5.265   1.425   7.415 -0.7987 -0.8537  0.0120
  161SAPE   H6Y18094   5.112   1.499   7.466 -1.7557  1.3886 -1.6762
  161SAPE   C3718095   5.281   1.625   7.492 -0.1197  0.0937  0.4897
  161SAPE   H7X18096   5.228   1.722   7.486  2.3305  1.3988 -1.1293
  161SAPE   H7Y18097   5.384   1.647   7.455 -0.5767  1.1868 -0.1693
  161SAPE   C3818098   5.303   1.592   7.645  0.1124 -0.4663 -0.0932
  161SAPE   H8X18099   5.353   1.675   7.699 -1.1913 -1.1370  2.2160
  161SAPE   H8Y18100   5.367   1.501   7.646  0.5668 -0.2860 -4.0070
  161SAPE   C3918101   5.172   1.567   7.720 -0.1019 -0.4650  0.8385
  161SAPE   H9X18102   5.127   1.476   7.675  0.1934  0.6682 -1.8333
  161SAPE   H9Y18103   5.109   1.657   7.702 -1.3437 -1.1979  1.3897
  161SAPE  C31018104   5.193   1.530   7.870 -0.6980 -0.4529 -0.2785
  161SAPE  H10X18105   5.232   1.620   7.922 -0.5145 -0.7895  0.1678
  161SAPE  H10Y18106   5.265   1.445   7.870  2.4882  2.1093 -1.0221
  161SAPE  C31118107   5.065   1.497   7.937  0.3134 -0.0636 -0.5742
  161SAPE  H11X18108   5.000   1.441   7.867 -2.3282  2.3471 -0.1328
  161SAPE  H11Y18109   5.005   1.590   7.951  0.7571  0.5011 -2.3092
  161SAPE  C31218110   5.078   1.427   8.077  0.4463  0.8595  0.2075
  161SAPE  H12X18111   5.113   1.510   8.143  0.4427  1.0589 -0.0400
  161SAPE  H12Y18112   5.158   1.351   8.068 -1.8051 -1.1826 -4.1221
  161SAPE  C31318113   4.946   1.386   8.143 -0.5057  0.4831  0.1918
  161SAPE  H13X18114   4.883   1.318   8.081 -1.6805 -0.8986  2.7806
  161SAPE  H13Y18115   4.886   1.477   8.164 -2.0433 -0.5060  0.1961
  161SAPE  C31418116   4.980   1.303   8.262  0.0771 -0.1749  0.0178
  161SAPE  H14X18117   5.029   1.366   8.340  1.1066  1.5942 -1.9900
  161SAPE  H14Y18118   5.053   1.228   8.222 -0.5308 -0.7064 -0.1010
  161SAPE  C31518119   4.862   1.238   8.325 -0.5798 -0.0322 -0.2058
  161SAPE  H15X18120   4.794   1.212   8.242 -0.3438  1.6475 -0.9421
  161SAPE  H15Y18121   4.814   1.316   8.389 -0.3482  2.2078 -2.7018
  161SAPE  C31618122   4.882   1.102   8.400 -0.7588  0.1176  0.2163
  161SAPE  H16X18123   4.958   1.121   8.479  0.1233  0.9363 -0.8250
  161SAPE  H16Y18124   4.933   1.025   8.339  0.3259 -0.1818  1.4745
  161SAPE  C31718125   4.753   1.042   8.450 -0.6621  0.0297  0.1799
  161SAPE  H17X18126   4.765   0.936   8.483 -1.2851 -0.3083 -0.6743
  161SAPE  H17Y18127   4.680   1.037   8.366 -2.6378 -0.1245  1.8487
  161SAPE  C31818128   4.690   1.117   8.568  0.2640  0.6733 -0.5126
  161SAPE  H18X18129   4.644   1.217   8.551 -0.3644  0.5600  0.4683
  161SAPE  H18Y18130   4.765   1.116   8.650  0.5041 -2.5794 -0.7093
  161SAPE  H18Z18131   4.606   1.049   8.595  0.9677 -0.0670 -0.1787
  162SAPE     N18132   3.580   4.495   6.151  0.2876  0.2850 -0.2732
  162SAPE   HN118133   3.491   4.442   6.156  0.3577  0.0571 -1.2118
  162SAPE   HN218134   3.626   4.491   6.244 -1.1940  1.9276  0.5659
  162SAPE   HN318135   3.558   4.596   6.136  0.7978  0.8946  2.9006
  162SAPE   C1218136   3.658   4.446   6.034  0.5033  0.7053 -0.3415
  162SAPE  H12A18137   3.584   4.422   5.955 -0.1093  0.8567  0.1850
  162SAPE  H12B18138   3.711   4.353   6.063  0.6524  0.9613  0.2090
  162SAPE   C1118139   3.756   4.554   5.977 -0.3623  0.7642 -0.1115
  162SAPE  H11A18140   3.717   4.658   5.967 -1.1445  0.5730  0.8720
  162SAPE  H11B18141   3.792   4.511   5.882 -1.1071 -1.3065  0.5263
  162SAPE     P18142   3.984   4.662   6.064 -0.0102  0.2125 -0.0144
  162SAPE   O1318143   4.053   4.651   5.930 -0.2215  0.0365 -0.4699
  162SAPE   O1418144   3.920   4.793   6.102 -0.3489  0.4667 -0.2261
  162SAPE   O1218145   3.864   4.553   6.070 -0.6847 -0.6537  0.1569
  162SAPE   O1118146   4.075   4.605   6.185  0.2020 -0.7147  0.0914
  162SAPE    C118147   4.028   4.521   6.284 -0.3029  1.0540  0.1526
  162SAPE    HA18148   3.958   4.441   6.251  0.8445  0.9359 -2.0675
  162SAPE    HB18149   4.111   4.459   6.325 -1.4203 -0.6441 -0.0830
  162SAPE    C218150   3.951   4.605   6.388  0.6498 -0.3703 -0.3137
  162SAPE    HS18151   3.872   4.649   6.323  0.2412  0.7580  0.9349
  162SAPE   O2118152   4.042   4.706   6.442  0.3369 -0.0800  0.0113
  162SAPE   C2118153   3.981   4.823   6.460 -0.1508  0.1419  0.1238
  162SAPE   O2218154   3.868   4.847   6.419 -0.1502  0.3435 -0.3682
  162SAPE   C2218155   4.053   4.902   6.568  0.4219  0.2354 -0.1714
  162SAPE   H2R18156   4.025   4.851   6.663  1.8068 -0.0292  0.0988
  162SAPE   H2S18157   4.161   4.893   6.543  0.6395  0.2454  0.7582
  162SAPE    C318158   3.883   4.512   6.495  0.1285  0.5685 -0.6578
  162SAPE    HX18159   3.971   4.483   6.558  1.0871  0.1629 -2.1467
  162SAPE    HY18160   3.849   4.421   6.442  0.8959  0.0741 -0.3124
  162SAPE   O3118161   3.785   4.577   6.575  0.2022  0.2585 -0.3625
  162SAPE   C3118162   3.664   4.587   6.511 -0.3179  0.1439  0.1477
  162SAPE   O3218163   3.645   4.547   6.400 -0.0659 -0.2718 -0.5030
  162SAPE   C3218164   3.562   4.664   6.603 -0.7258 -0.3095 -0.4452
  162SAPE   H2X18165   3.588   4.772   6.606  2.0945 -0.9701  0.6989
  162SAPE   H2Y18166   3.584   4.637   6.708  1.1729  4.1198  0.4196
  162SAPE   C2318167   4.005   5.050   6.570  0.1339  0.2590  0.7216
  162SAPE   H3R18168   3.971   5.082   6.469  1.9891 -0.5022 -0.1662
  162SAPE   H3S18169   4.096   5.111   6.590  1.6551 -2.1113  1.2893
  162SAPE   C2418170   3.904   5.074   6.686  0.6311 -0.0966 -0.1325
  162SAPE   H4R18171   3.817   5.008   6.665  1.1462 -0.3675 -1.4732
  162SAPE   H4S18172   3.866   5.177   6.671 -0.8465  0.0748  4.2310
  162SAPE   C2518173   3.957   5.055   6.828 -0.1296 -0.3037  0.4886
  162SAPE   H5R18174   4.057   5.093   6.854  0.9086 -1.9697 -0.9562
  162SAPE   C2618175   3.881   4.998   6.925  0.0832 -0.1036 -0.1999
  162SAPE   H6R18176   3.923   4.972   7.024  1.8132  2.1744 -0.3111
  162SAPE   C2718177   3.745   4.936   6.916  0.1039 -0.8050  0.5595
  162SAPE   H7R18178   3.688   4.993   6.839  2.2568  0.1008 -0.4334
  162SAPE   H7S18179   3.693   4.950   7.012 -0.2248 -1.4573  0.4807
  162SAPE   C2818180   3.765   4.788   6.889 -0.4303 -0.1207  0.0569
  162SAPE   H8R18181   3.837   4.769   6.808  0.2049  0.0024  0.5897
  162SAPE   C2918182   3.697   4.686   6.937  0.6858  0.4971  0.0028
  162SAPE   H9R18183   3.726   4.583   6.910 -1.4107 -0.4280  1.1224
  162SAPE  C21018184   3.587   4.690   7.042 -0.2452  0.9809  0.2196
  162SAPE  H10R18185   3.533   4.787   7.050 -0.0753  1.1313 -0.4013
  162SAPE  H10S18186   3.638   4.675   7.139  1.3960 -0.8758 -0.9121
  162SAPE  C21118187   3.465   4.596   7.019  0.3695  0.2796  0.7000
  162SAPE  H11R18188   3.410   4.622   6.928  0.2150 -3.2669 -0.2928
  162SAPE  C21218189   3.409   4.496   7.090  0.8876  0.3206  0.3402
  162SAPE  H12R18190   3.322   4.443   7.049  0.1222  1.9738 -0.2134
  162SAPE  C21318191   3.471   4.449   7.221  0.5199 -0.0081  0.6482
  162SAPE  H13R18192   3.388   4.436   7.294 -0.1170  1.5267  0.2006
  162SAPE  H13S18193   3.530   4.529   7.271 -1.2745  1.7857 -0.0707
  162SAPE  C21418194   3.546   4.312   7.212  0.7524  0.7222  0.9160
  162SAPE  H14R18195   3.640   4.319   7.156  1.8596 -4.2824  1.8718
  162SAPE  C21518196   3.492   4.191   7.250 -0.0669 -0.1944  0.0956
  162SAPE  H15R18197   3.546   4.096   7.241  0.6174  0.4303 -2.8355
  162SAPE  C21618198   3.364   4.159   7.326  0.0461 -0.4352  0.1544
  162SAPE  H16R18199   3.313   4.063   7.306 -0.0548 -0.4260  0.3717
  162SAPE  H16S18200   3.295   4.239   7.292  0.3826 -0.0670  0.3368
  162SAPE  C21718201   3.380   4.177   7.480 -0.5897  0.6171 -0.5931
  162SAPE  H17R18202   3.445   4.267   7.493 -0.5904  0.4669  0.5534
  162SAPE  H17S18203   3.440   4.092   7.518 -1.0445  0.9043  0.8082
  162SAPE  C21818204   3.252   4.175   7.561 -0.1986 -1.1740  0.4554
  162SAPE  H18R18205   3.209   4.073   7.554  1.1023 -1.6295 -0.9886
  162SAPE  H18S18206   3.190   4.254   7.514  1.7969 -0.2281 -0.6391
  162SAPE  C21918207   3.270   4.208   7.706  0.5177  0.1025  0.1294
  162SAPE  H19R18208   3.187   4.273   7.742  1.6928  1.2696  0.7960
  162SAPE  H19S18209   3.348   4.286   7.722  0.2309  0.4002  0.0940
  162SAPE  C22018210   3.285   4.099   7.807  0.6793  0.0449  0.2160
  162SAPE  H20R18211   3.379   4.042   7.787  0.5412 -1.1465  2.7152
  162SAPE  H20S18212   3.199   4.031   7.824  0.5263  0.3065  0.4861
  162SAPE  H20T18213   3.296   4.143   7.908 -0.5574  2.2056 -0.5620
  162SAPE   C3318214   3.413   4.651   6.559 -0.5481  0.4849  0.1668
  162SAPE   H3X18215   3.404   4.656   6.448  1.9505  1.8086 -0.0031
  162SAPE   H3Y18216   3.348   4.734   6.594 -0.2819 -0.3117  2.6334
  162SAPE   C3418217   3.358   4.509   6.589  0.0455 -0.4715  0.5102
  162SAPE   H4X18218   3.450   4.447   6.599  0.3381  0.1270  1.5735
  162SAPE   H4Y18219   3.304   4.475   6.498  0.1885  1.6803 -0.3941
  162SAPE   C3518220   3.286   4.487   6.721 -0.2159 -0.7411  0.4782
  162SAPE   H5X18221   3.252   4.584   6.763 -0.4287  0.8134 -3.1088
  162SAPE   H5Y18222   3.355   4.444   6.796  0.2278 -0.9731 -0.0596
  162SAPE   C3618223   3.159   4.397   6.711 -0.1894  0.4675 -0.0105
  162SAPE   H6X18224   3.176   4.308   6.645 -1.8297 -1.8655  2.5816
  162SAPE   H6Y18225   3.077   4.456   6.664 -1.5465 -0.8723  0.6174
  162SAPE   C3718226   3.100   4.354   6.853 -0.1582 -1.1915 -0.2048
  162SAPE   H7X18227   3.179   4.314   6.921 -1.3379 -0.6300  1.5391
  162SAPE   H7Y18228   3.023   4.276   6.835 -0.3301 -1.1249  0.2176
  162SAPE   C3818229   3.044   4.475   6.927 -0.0071 -0.2558  0.0421
  162SAPE   H8X18230   2.969   4.534   6.871 -0.5489 -1.4801 -0.5385
  162SAPE   H8Y18231   3.117   4.549   6.966 -1.9458  1.6317  0.1439
  162SAPE   C3918232   2.969   4.431   7.053  0.2140  0.5370  0.0523
  162SAPE   H9X18233   2.914   4.342   7.017  1.1094  0.7476 -1.8714
  162SAPE   H9Y18234   2.898   4.512   7.081 -1.3168 -1.8554  3.5680
  162SAPE  C31018235   3.056   4.414   7.174  0.3652 -0.5089  0.6185
  162SAPE  H10X18236   3.125   4.498   7.196  2.4907 -2.3407  1.1714
  162SAPE  H10Y18237   3.119   4.324   7.157  1.6132  0.1431  1.6761
  162SAPE  C31118238   2.969   4.395   7.301  0.2146 -0.3695 -0.3081
  162SAPE  H11X18239   3.004   4.311   7.364 -0.1355 -0.1677  0.1552
  162SAPE  H11Y18240   2.868   4.359   7.275  0.1899 -1.4072  1.2153
  162SAPE  C31218241   2.958   4.522   7.384 -0.0269  0.2405  0.7222
  162SAPE  H12X18242   2.905   4.597   7.322  0.5546 -2.0011 -2.6181
  162SAPE  H12Y18243   3.057   4.555   7.422  0.6382  1.8747 -2.2536
  162SAPE  C31318244   2.885   4.497   7.518  0.6580  0.7762 -0.1399
  162SAPE  H13X18245   2.957   4.467   7.597  0.5030  1.1106  0.1283
  162SAPE  H13Y18246   2.804   4.420   7.524 -1.0568  2.5765  0.5050
  162SAPE  C31418247   2.805   4.610   7.567 -0.0394 -0.3383  0.5779
  162SAPE  H14X18248   2.714   4.628   7.506  1.0219  0.0778 -0.8916
  162SAPE  H14Y18249   2.872   4.697   7.556 -0.0730 -0.5948 -1.8934
  162SAPE  C31518250   2.757   4.593   7.709  0.1544  0.1236  0.0494
  162SAPE  H15X18251   2.838   4.602   7.784 -0.2439  3.0605  0.1872
  162SAPE  H15Y18252   2.695   4.502   7.720 -0.7078  0.6128 -0.6425
  162SAPE  C31618253   2.662   4.707   7.740 -0.0217 -0.7563  0.1205
  162SAPE  H16X18254   2.584   4.696   7.661  1.8900 -0.5423 -1.8480
  162SAPE  H16Y18255   2.733   4.787   7.711 -1.4825  0.7997  0.7782
  162SAPE  C31718256   2.614   4.699   7.888  0.8204  0.0940 -0.1182
  162SAPE  H17X18257   2.686   4.634   7.941  1.0236 -0.1339 -0.6701
  162SAPE  H17Y18258   2.515   4.652   7.902  1.1755 -0.2625  1.2714
  162SAPE  C31818259   2.605   4.842   7.954 -0.3091 -0.5770 -0.3701
  162SAPE  H18X18260   2.711   4.874   7.960 -0.3624 -0.7368  2.1125
  162SAPE  H18Y18261   2.540   4.849   8.044 -0.0922  0.7503 -0.3001
  162SAPE  H18Z18262   2.562   4.914   7.881  0.0886  3.0222  2.8049
  163SAPE     N18263   1.980   2.409   6.454  0.3616 -0.1007  0.1881
  163SAPE   HN118264   1.966   2.462   6.542 -1.3976 -0.2757  0.0173
  163SAPE   HN218265   1.897   2.423   6.394  1.6046  1.6500 -1.1867
  163SAPE   HN318266   1.978   2.305   6.455 -2.7089 -0.0773  0.9860
  163SAPE   C1218267   2.100   2.471   6.380  0.4377  0.1440  0.1958
  163SAPE  H12A18268   2.097   2.442   6.273  2.4523  2.0345 -0.4159
  163SAPE  H12B18269   2.194   2.431   6.423 -0.0837 -3.4362 -1.8082
  163SAPE   C1118270   2.100   2.624   6.384 -0.2480 -0.4995 -0.3058
  163SAPE  H11A18271   2.000   2.662   6.356 -1.6900 -3.4216  0.6492
  163SAPE  H11B18272   2.164   2.665   6.303 -0.9768  1.6642  0.1946
  163SAPE     P18273   2.059   2.729   6.623  0.1642 -0.3358  0.6130
  163SAPE   O1318274   2.130   2.724   6.751  0.3761  0.0482  0.7823
  163SAPE   O1418275   2.009   2.859   6.575  0.2949  0.4930  0.4187
  163SAPE   O1218276   2.159   2.673   6.511  0.0668  0.0653 -0.0880
  163SAPE   O1118277   1.950   2.617   6.626 -0.2018 -0.1488  0.2155
  163SAPE    C118278   1.815   2.626   6.662  0.5138 -0.7398 -0.3990
  163SAPE    HA18279   1.788   2.732   6.679 -0.7341 -1.0205 -0.5721
  163SAPE    HB18280   1.748   2.590   6.581  0.9654 -1.3839 -0.4922
  163SAPE    C218281   1.777   2.540   6.789  0.1289  0.1622  0.0275
  163SAPE    HS18282   1.666   2.548   6.799  0.1469  1.4503 -0.6123
  163SAPE   O2118283   1.847   2.579   6.904 -0.3699 -0.6103  0.0312
  163SAPE   C2118284   1.800   2.672   6.983  0.8464  0.8123 -0.6527
  163SAPE   O2218285   1.686   2.719   6.981  0.8877 -0.1275 -0.2050
  163SAPE   C2218286   1.915   2.709   7.077 -0.2820  0.1332  0.0615
  163SAPE   H2R18287   1.924   2.625   7.149 -1.4484  0.0272  0.0912
  163SAPE   H2S18288   2.006   2.720   7.014  0.3585  1.8543  1.2373
  163SAPE    C318289   1.800   2.387   6.767 -0.1460 -0.1736  0.1747
  163SAPE    HX18290   1.904   2.376   6.730  0.4765 -0.8310  2.0409
  163SAPE    HY18291   1.747   2.345   6.679  2.4698 -2.4543 -0.3473
  163SAPE   O3118292   1.788   2.302   6.883 -0.1886  0.1751  0.2555
  163SAPE   C3118293   1.661   2.295   6.922 -0.0736 -0.2017  0.0857
  163SAPE   O3218294   1.568   2.339   6.862  0.3002  0.2895  0.2497
  163SAPE   C3218295   1.663   2.218   7.047 -0.2321  0.3600  0.3666
  163SAPE   H2X18296   1.727   2.263   7.126  1.2228  0.3104 -0.7821
  163SAPE   H2Y18297   1.719   2.125   7.021  0.9926  0.6087  2.0211
  163SAPE   C2318298   1.887   2.850   7.135 -0.2514 -0.1557  0.3384
  163SAPE   H3R18299   1.782   2.851   7.171  0.4368  2.8709  2.5166
  163SAPE   H3S18300   1.884   2.933   7.062 -0.3725  0.6895  1.2854
  163SAPE   C2418301   1.963   2.878   7.256 -0.6207 -0.7975 -0.3744
  163SAPE   H4R18302   1.956   2.787   7.320  0.9579 -1.1544 -0.6885
  163SAPE   H4S18303   1.931   2.973   7.304  0.5972 -0.6978  0.2706
  163SAPE   C2518304   2.104   2.911   7.218  0.6039  0.2955 -0.3487
  163SAPE   H5R18305   2.110   2.986   7.137 -1.2847 -1.6936 -2.4263
  163SAPE   C2618306   2.214   2.854   7.276  0.4508 -0.0190  0.6084
  163SAPE   H6R18307   2.316   2.881   7.247  0.3808 -0.4306 -0.0306
  163SAPE   C2718308   2.207   2.746   7.378 -0.7759  0.7455  0.2647
  163SAPE   H7R18309   2.291   2.677   7.355  0.8525  3.3375 -2.0538
  163SAPE   H7S18310   2.118   2.683   7.360 -1.3204  1.3328  0.8933
  163SAPE   C2818311   2.211   2.800   7.519 -0.3403  0.1210  0.4427
  163SAPE   H8R18312   2.161   2.894   7.548  0.8178  0.1659  2.4009
  163SAPE   C2918313   2.279   2.739   7.618 -0.2746  0.2704 -0.3561
  163SAPE   H9R18314   2.288   2.798   7.710 -0.9816 -1.2956  0.7441
  163SAPE  C21018315   2.366   2.614   7.603 -0.1801 -0.3177 -0.2416
  163SAPE  H10R18316   2.335   2.548   7.520 -1.5829  0.6368 -0.4976
  163SAPE  H10S18317   2.346   2.549   7.691  0.4730 -0.4224 -0.1739
  163SAPE  C21118318   2.518   2.632   7.598  1.1508  0.7166 -0.0243
  163SAPE  H11R18319   2.563   2.638   7.498  2.4485 -0.7202  0.4454
  163SAPE  C21218320   2.599   2.640   7.702  0.1306 -0.4908 -0.2931
  163SAPE  H12R18321   2.707   2.646   7.683  0.4499  0.5859  1.8127
  163SAPE  C21318322   2.552   2.648   7.843  0.8255 -0.0666  0.0365
  163SAPE  H13R18323   2.470   2.724   7.843 -0.2506 -1.2119 -0.7907
  163SAPE  H13S18324   2.630   2.700   7.903 -0.3159  1.7342  0.0126
  163SAPE  C21418325   2.505   2.525   7.918  0.8140 -0.2218 -0.4230
  163SAPE  H14R18326   2.457   2.456   7.846  2.3557 -0.2089 -1.4836
  163SAPE  C21518327   2.525   2.489   8.047  0.4873 -0.1083  0.3147
  163SAPE  H15R18328   2.480   2.402   8.097  1.6526 -0.4490  0.7887
  163SAPE  C21618329   2.602   2.579   8.140  0.2955 -0.4730  0.2446
  163SAPE  H16R18330   2.563   2.679   8.167 -0.1632 -0.4255 -0.5842
  163SAPE  H16S18331   2.700   2.589   8.088  0.3774  2.5461  0.8812
  163SAPE  C21718332   2.626   2.506   8.275  0.3120 -0.2597  0.4362
  163SAPE  H17R18333   2.682   2.413   8.252  2.1248  0.2413  2.7367
  163SAPE  H17S18334   2.534   2.482   8.332 -0.0692 -0.3281 -0.2039
  163SAPE  C21818335   2.711   2.594   8.373  0.0215  0.6698  0.7134
  163SAPE  H18R18336   2.646   2.678   8.405 -2.3749 -0.8403  0.0071
  163SAPE  H18S18337   2.807   2.621   8.324 -0.0993 -1.0055 -0.4787
  163SAPE  C21918338   2.749   2.517   8.504  0.4352 -0.3527  0.0179
  163SAPE  H19R18339   2.667   2.506   8.577 -0.0121  2.6758  0.0628
  163SAPE  H19S18340   2.817   2.585   8.561  0.7255 -1.2767  0.7740
  163SAPE  C22018341   2.822   2.390   8.483  0.2709 -0.0540  0.1199
  163SAPE  H20R18342   2.903   2.396   8.406 -0.0553 -0.1776 -0.2386
  163SAPE  H20S18343   2.743   2.315   8.458 -1.3000  1.7137 -0.3461
  163SAPE  H20T18344   2.861   2.362   8.583  1.0577  2.4634  0.5410
  163SAPE   C3318345   1.516   2.186   7.086  0.0970 -0.4116  0.0944
  163SAPE   H3X18346   1.461   2.153   6.996 -1.4291 -0.5932  1.0749
  163SAPE   H3Y18347   1.475   2.280   7.128  2.0475  0.0466  1.0662
  163SAPE   C3418348   1.524   2.078   7.196 -0.1443  0.0963  0.3890
  163SAPE   H4X18349   1.620   2.023   7.199 -1.7020 -2.7432  0.2121
  163SAPE   H4Y18350   1.456   1.992   7.176  0.1594  0.2332 -1.2664
  163SAPE   C3518351   1.490   2.139   7.329  0.2060 -0.1334 -1.0007
  163SAPE   H5X18352   1.381   2.142   7.348  0.5133 -2.6305  1.5514
  163SAPE   H5Y18353   1.520   2.246   7.319  0.7118 -0.3566 -1.9708
  163SAPE   C3618354   1.560   2.072   7.445 -0.2328 -0.4965 -0.4163
  163SAPE   H6X18355   1.669   2.057   7.428 -0.0906  1.6036 -1.5538
  163SAPE   H6Y18356   1.510   1.974   7.463  0.6718 -0.7817  0.6153
  163SAPE   C3718357   1.541   2.152   7.574 -0.1636  0.5454  0.2878
  163SAPE   H7X18358   1.434   2.178   7.584 -0.1503  0.3357  1.0100
  163SAPE   H7Y18359   1.590   2.251   7.561  0.1564  0.2771 -0.6054
  163SAPE   C3818360   1.564   2.071   7.705  0.0950 -0.0863  0.3087
  163SAPE   H8X18361   1.666   2.027   7.703  1.7480  3.5350  1.1029
  163SAPE   H8Y18362   1.502   1.979   7.710 -1.0004  0.6738  0.9217
  163SAPE   C3918363   1.538   2.153   7.829 -0.6649 -0.7687 -0.4579
  163SAPE   H9X18364   1.429   2.171   7.839 -0.4355  0.3326  0.0906
  163SAPE   H9Y18365   1.591   2.246   7.801  1.8814 -0.9065  3.4543
  163SAPE  C31018366   1.581   2.086   7.956 -0.2161  0.3141  0.1778
  163SAPE  H10X18367   1.680   2.041   7.933  0.5858  1.4548  1.3473
  163SAPE  H10Y18368   1.528   1.997   7.995  2.6513 -1.7520 -0.4476
  163SAPE  C31118369   1.581   2.177   8.073 -0.1871  0.0407 -1.2657
  163SAPE  H11X18370   1.478   2.183   8.114  1.0223  0.4352  1.9208
  163SAPE  H11Y18371   1.622   2.277   8.047 -0.8157  0.7056  0.2272
  163SAPE  C31218372   1.668   2.109   8.182  0.7052 -0.3199  0.5496
  163SAPE  H12X18373   1.774   2.109   8.152  0.3501 -0.0316 -0.7404
  163SAPE  H12Y18374   1.637   2.003   8.189  1.5818 -0.6026  0.1962
  163SAPE  C31318375   1.649   2.174   8.317 -0.0862  0.1639 -0.0637
  163SAPE  H13X18376   1.547   2.159   8.359  0.2493  0.0195  0.6945
  163SAPE  H13Y18377   1.666   2.283   8.306 -1.0174  0.1725 -1.5970
  163SAPE  C31418378   1.751   2.129   8.422 -0.1669  0.2623 -0.1473
  163SAPE  H14X18379   1.749   2.184   8.519 -1.3855 -3.0703  1.7795
  163SAPE  H14Y18380   1.856   2.146   8.392 -0.1270 -1.5134 -1.0534
  163SAPE  C31518381   1.741   1.979   8.459 -0.3405  0.1648  0.4596
  163SAPE  H15X18382   1.775   1.913   8.376 -0.0726  1.8113 -0.7549
  163SAPE  H15Y18383   1.638   1.953   8.489 -0.5417  1.2247  0.6932
  163SAPE  C31618384   1.843   1.947   8.570  0.5070 -0.2766 -0.0867
  163SAPE  H16X18385   1.819   1.854   8.626  0.6064 -1.1361 -1.4356
  163SAPE  H16Y18386   1.859   2.031   8.641 -0.2022  2.0626 -2.6142
  163SAPE  C31718387   1.986   1.919   8.526 -0.2786 -0.1322 -0.3063
  163SAPE  H17X18388   2.023   2.010   8.474 -2.2966  1.2726  0.6489
  163SAPE  H17Y18389   1.984   1.827   8.463  0.3559  0.8402 -1.7625
  163SAPE  C31818390   2.087   1.901   8.643  0.1581  0.0464 -0.8686
  163SAPE  H18X18391   2.068   1.983   8.716 -0.0080 -0.7657 -0.0060
  163SAPE  H18Y18392   2.191   1.905   8.604  0.7549  1.2745  0.7995
  163SAPE  H18Z18393   2.078   1.809   8.704 -0.1915  0.3509 -0.4595
  164SAPE     N18394   4.465   6.470   5.634 -0.5325 -0.1166  0.1245
  164SAPE   HN118395   4.472   6.497   5.534  3.4890  1.2431  0.6987
  164SAPE   HN218396   4.383   6.409   5.655 -1.4316  0.5650 -1.2935
  164SAPE   HN318397   4.457   6.564   5.678 -0.7517  0.1045 -0.3782
  164SAPE   C1218398   4.594   6.392   5.665 -0.4295  0.6834  0.7369
  164SAPE  H12A18399   4.675   6.456   5.624 -1.0816  0.7678 -0.4535
  164SAPE  H12B18400   4.591   6.296   5.609 -0.9513  1.0971  0.0334
  164SAPE   C1118401   4.619   6.373   5.813 -0.9021  0.9669 -0.1193
  164SAPE  H11A18402   4.641   6.473   5.856 -0.3589  0.4396  0.8285
  164SAPE  H11B18403   4.706   6.309   5.840 -1.9952 -1.0341 -1.2115
  164SAPE     P18404   4.477   6.167   5.896 -0.3751  0.5595 -0.0319
  164SAPE   O1318405   4.336   6.145   5.943  0.3266  0.1119  0.2285
  164SAPE   O1418406   4.500   6.104   5.762 -0.2516  0.1006  0.3465
  164SAPE   O1218407   4.504   6.320   5.882 -0.8770 -0.5747 -0.3143
  164SAPE   O1118408   4.580   6.113   6.007  0.3515 -0.2863 -0.5796
  164SAPE    C118409   4.638   6.199   6.114  0.2846  0.5767 -0.1041
  164SAPE    HA18410   4.739   6.169   6.151  0.2449  1.5816  0.8495
  164SAPE    HB18411   4.661   6.305   6.090  0.7544  1.1995  2.8256
  164SAPE    C218412   4.550   6.197   6.246 -0.4955 -0.2099  0.5940
  164SAPE    HS18413   4.453   6.249   6.232 -1.1216 -1.6173 -0.5374
  164SAPE   O2118414   4.633   6.258   6.358 -0.2461 -0.0495  0.5272
  164SAPE   C2118415   4.633   6.388   6.345  0.5177 -0.1449  0.0499
  164SAPE   O2218416   4.558   6.448   6.266 -0.0470 -0.3143 -0.1390
  164SAPE   C2218417   4.733   6.445   6.447 -0.0725 -0.1398 -0.0778
  164SAPE   H2R18418   4.755   6.361   6.517 -0.9983  0.0411  0.4391
  164SAPE   H2S18419   4.820   6.473   6.385 -0.8822 -0.1517 -1.2507
  164SAPE    C318420   4.524   6.053   6.299  0.1771  0.2078 -0.7948
  164SAPE    HX18421   4.628   6.018   6.320 -0.9395 -2.9391 -0.1987
  164SAPE    HY18422   4.487   5.990   6.215 -1.4212  1.2160 -0.8614
  164SAPE   O3118423   4.440   6.047   6.417  0.0806  0.3368  0.5729
  164SAPE   C3118424   4.484   5.983   6.521 -0.3200  0.1362 -0.4354
  164SAPE   O3218425   4.575   5.895   6.517 -0.2587 -0.5091  0.5849
  164SAPE   C3218426   4.399   6.001   6.638 -0.1534 -0.1862  0.4632
  164SAPE   H2X18427   4.381   5.898   6.676  1.9774 -1.5258 -1.9978
  164SAPE   H2Y18428   4.309   6.057   6.604 -0.8065 -0.8929  1.0276
  164SAPE   C2318429   4.668   6.569   6.509 -0.3801 -0.5179  0.2479
  164SAPE   H3R18430   4.559   6.559   6.522 -0.6686 -0.4848 -2.0546
  164SAPE   H3S18431   4.675   6.655   6.439 -0.9384 -0.4294  0.3044
  164SAPE   C2418432   4.724   6.616   6.638 -0.4962  0.1877  0.3987
  164SAPE   H4R18433   4.730   6.533   6.712  0.4831  0.3274  0.4847
  164SAPE   H4S18434   4.661   6.701   6.671 -0.5245  0.8389 -1.2820
  164SAPE   C2518435   4.863   6.671   6.619 -0.1969 -0.7051  0.0788
  164SAPE   H5R18436   4.859   6.768   6.568  1.2834 -0.1990  0.9006
  164SAPE   C2618437   4.981   6.612   6.654 -0.0874  0.2248 -0.1004
  164SAPE   H6R18438   5.077   6.660   6.630  0.3321 -0.8836 -0.6379
  164SAPE   C2718439   4.989   6.479   6.721  0.0538  0.0097  0.1563
  164SAPE   H7R18440   4.958   6.401   6.648 -2.2767  1.5569 -0.5610
  164SAPE   H7S18441   4.919   6.476   6.807 -0.7476 -0.2820 -0.4955
  164SAPE   C2818442   5.117   6.448   6.793 -0.3977 -0.1222  0.2359
  164SAPE   H8R18443   5.197   6.407   6.729  0.1893  1.5309 -0.1262
  164SAPE   C2918444   5.150   6.460   6.923  0.3287  0.6161 -0.0657
  164SAPE   H9R18445   5.252   6.432   6.955 -0.8728 -3.0819  0.6858
  164SAPE  C21018446   5.055   6.501   7.031  0.1814 -0.2369  0.2202
  164SAPE  H10R18447   4.980   6.572   6.989  1.3214  1.3406  0.7890
  164SAPE  H10S18448   5.124   6.560   7.095  0.7072 -1.8000  1.1246
  164SAPE  C21118449   4.980   6.393   7.106 -0.4017 -0.7491 -0.1211
  164SAPE  H11R18450   4.907   6.342   7.041 -1.2856  0.3896 -0.0356
  164SAPE  C21218451   4.996   6.336   7.227  0.0467 -0.0339  0.0980
  164SAPE  H12R18452   4.932   6.250   7.252 -0.0933 -0.3404 -1.2513
  164SAPE  C21318453   5.098   6.394   7.323 -0.2581  0.3353 -0.0171
  164SAPE  H13R18454   5.151   6.480   7.276  0.2945  0.5055  0.8960
  164SAPE  H13S18455   5.176   6.316   7.340 -0.4022  0.6023  1.8868
  164SAPE  C21418456   5.023   6.434   7.448  0.2467  0.1670  0.2061
  164SAPE  H14R18457   4.975   6.532   7.433 -1.2458 -1.0238 -3.2757
  164SAPE  C21518458   5.007   6.368   7.565 -0.2401  0.0942 -0.3348
  164SAPE  H15R18459   4.971   6.425   7.652  1.5744  4.0462 -2.0853
  164SAPE  C21618460   5.080   6.236   7.604 -0.2026 -0.1133  0.2429
  164SAPE  H16R18461   5.187   6.239   7.573 -0.1951  1.2764  0.3892
  164SAPE  H16S18462   5.032   6.152   7.549 -4.2943  1.7845  0.8016
  164SAPE  C21718463   5.077   6.222   7.757  0.5629  0.4394 -0.6331
  164SAPE  H17R18464   5.139   6.134   7.785 -0.2608  0.1901  0.4926
  164SAPE  H17S18465   4.973   6.202   7.793  0.6887 -2.9115 -1.9437
  164SAPE  C21818466   5.143   6.338   7.827  0.0711 -0.1647  0.5356
  164SAPE  H18R18467   5.093   6.436   7.819  0.7986  0.1851  0.2273
  164SAPE  H18S18468   5.246   6.336   7.785  0.3759  0.7282  1.2235
  164SAPE  C21918469   5.148   6.303   7.973 -0.0145 -1.0814 -0.1648
  164SAPE  H19R18470   5.215   6.217   7.994  3.3552  1.2633 -0.7347
  164SAPE  H19S18471   5.051   6.273   8.018 -0.4932 -0.3809 -0.7068
  164SAPE  C22018472   5.204   6.424   8.047  0.3254  0.0205 -0.8646
  164SAPE  H20R18473   5.136   6.512   8.059 -0.3622 -0.7636  1.3081
  164SAPE  H20S18474   5.304   6.449   8.006  0.3225 -0.8890 -1.4201
  164SAPE  H20T18475   5.221   6.389   8.151  1.1387  1.4699 -0.4797
  164SAPE   C3318476   4.481   6.102   6.730  0.1878 -0.3923 -0.0098
  164SAPE   H3X18477   4.584   6.068   6.753 -0.4122 -2.1587  0.1427
  164SAPE   H3Y18478   4.425   6.097   6.826  0.1427 -1.8471 -0.1139
  164SAPE   C3418479   4.472   6.249   6.686  0.4906  0.5618  0.0125
  164SAPE   H4X18480   4.365   6.274   6.677  0.2644 -1.0167 -2.0384
  164SAPE   H4Y18481   4.514   6.249   6.583 -0.6884 -2.0000 -0.4887
  164SAPE   C3518482   4.542   6.359   6.765  0.1996 -0.1386 -0.0410
  164SAPE   H5X18483   4.508   6.456   6.723 -0.4516 -0.2973  0.1148
  164SAPE   H5Y18484   4.650   6.359   6.742  0.9039  1.0620  2.9604
  164SAPE   C3618485   4.504   6.358   6.919 -0.9231  0.0707 -1.0204
  164SAPE   H6X18486   4.512   6.256   6.963  0.7418  0.7890  0.3748
  164SAPE   H6Y18487   4.399   6.395   6.920 -1.4175 -1.1609  3.4541
  164SAPE   C3718488   4.584   6.470   6.988  0.7252  0.1384  0.8873
  164SAPE   H7X18489   4.564   6.567   6.937 -0.0668 -0.5632 -0.1719
  164SAPE   H7Y18490   4.692   6.450   6.973  0.6980 -0.6591  1.7393
  164SAPE   C3818491   4.571   6.484   7.140  0.0155 -0.3577  0.3574
  164SAPE   H8X18492   4.476   6.536   7.163  0.2229 -0.5721  1.7580
  164SAPE   H8Y18493   4.656   6.551   7.164  0.1450 -0.2193 -0.4629
  164SAPE   C3918494   4.577   6.354   7.213  0.0103  0.2848  0.3025
  164SAPE   H9X18495   4.679   6.311   7.206 -0.6457 -1.7218  2.3511
  164SAPE   H9Y18496   4.520   6.268   7.171 -0.1143  0.3865  0.2673
  164SAPE  C31018497   4.551   6.369   7.369  0.0907 -0.1826  0.8933
  164SAPE  H10X18498   4.444   6.345   7.387  0.2872 -1.5151  0.3277
  164SAPE  H10Y18499   4.572   6.474   7.400  2.6935  0.2367 -2.0777
  164SAPE  C31118500   4.635   6.284   7.461  0.0701 -0.2948  0.1448
  164SAPE  H11X18501   4.742   6.287   7.428 -0.4259  2.8533 -1.3881
  164SAPE  H11Y18502   4.596   6.181   7.457  4.9535 -2.2867 -0.4254
  164SAPE  C31218503   4.620   6.317   7.611 -0.1004 -0.3127  0.0422
  164SAPE  H12X18504   4.510   6.333   7.619 -0.2934 -0.0920 -2.6141
  164SAPE  H12Y18505   4.673   6.410   7.642  2.1810 -0.8962 -1.9890
  164SAPE  C31318506   4.663   6.210   7.705  0.2865 -0.2675 -0.0036
  164SAPE  H13X18507   4.774   6.213   7.710  0.5201 -0.3381 -3.6170
  164SAPE  H13Y18508   4.628   6.114   7.661 -1.0966  0.3873 -0.3502
  164SAPE  C31418509   4.604   6.210   7.851 -0.4216 -0.0197 -0.1889
  164SAPE  H14X18510   4.631   6.114   7.900  0.1584  2.0836  3.7733
  164SAPE  H14Y18511   4.494   6.221   7.843 -0.3427  0.3607 -0.7978
  164SAPE  C31518512   4.656   6.322   7.934  0.2795 -0.9498 -0.1278
  164SAPE  H15X18513   4.605   6.419   7.917  0.7471 -0.2744  2.0888
  164SAPE  H15Y18514   4.765   6.331   7.913  1.0811  0.9020  4.2811
  164SAPE  C31618515   4.637   6.290   8.086 -0.3873  0.3926  0.6442
  164SAPE  H16X18516   4.693   6.364   8.147 -2.7266  0.5862  2.6296
  164SAPE  H16Y18517   4.660   6.186   8.116 -1.8497 -0.2827 -0.5234
  164SAPE  C31718518   4.486   6.292   8.125  0.4315 -0.6607  0.7231
  164SAPE  H17X18519   4.424   6.207   8.088 -1.0253  0.3944  0.6770
  164SAPE  H17Y18520   4.436   6.377   8.073  2.6603 -1.4246 -2.8592
  164SAPE  C31818521   4.473   6.297   8.278 -0.6887  0.1089  0.0502
  164SAPE  H18X18522   4.493   6.198   8.325  0.4250  0.5289  0.4553
  164SAPE  H18Y18523   4.366   6.308   8.305 -1.2843 -4.4557  0.0235
  164SAPE  H18Z18524   4.541   6.371   8.325 -1.2825  0.5427  0.2338
  165SAPE     N18525   4.321   3.287   6.578 -0.0081  0.1526  0.2957
  165SAPE   HN118526   4.280   3.376   6.612 -0.9132  0.1463 -0.7229
  165SAPE   HN218527   4.345   3.229   6.661 -2.3514 -1.7258 -0.2641
  165SAPE   HN318528   4.409   3.317   6.530  0.2634 -1.8404 -0.5206
  165SAPE   C1218529   4.238   3.211   6.484  1.0555 -0.3742 -0.7336
  165SAPE  H12A18530   4.186   3.280   6.415  1.0617 -0.2996 -0.6650
  165SAPE  H12B18531   4.153   3.158   6.531 -0.7981  1.3255 -2.0828
  165SAPE   C1118532   4.322   3.129   6.389  0.3308  0.4319  0.2116
  165SAPE  H11A18533   4.276   3.122   6.288  0.3561  2.1707  0.0524
  165SAPE  H11B18534   4.319   3.022   6.419  3.9121 -0.7563 -3.1761
  165SAPE     P18535   4.553   3.066   6.310 -0.6887 -0.0514  0.1013
  165SAPE   O1318536   4.493   3.012   6.188  0.3681  0.1454 -0.6711
  165SAPE   O1418537   4.672   3.147   6.296  0.4867  0.5389  0.5846
  165SAPE   O1218538   4.463   3.162   6.388 -0.2998 -0.0595 -0.6699
  165SAPE   O1118539   4.573   2.946   6.409  0.6147  0.4861 -0.0508
  165SAPE    C118540   4.601   2.987   6.547  0.2989 -0.0958  0.7050
  165SAPE    HA18541   4.573   3.091   6.573  2.3107  1.0428 -1.4922
  165SAPE    HB18542   4.548   2.920   6.618  1.0752  1.3833  2.7078
  165SAPE    C218543   4.754   2.963   6.565  0.2335 -0.0300 -0.0591
  165SAPE    HS18544   4.807   3.011   6.480 -1.6552  0.9616 -0.7234
  165SAPE   O2118545   4.780   2.821   6.554 -0.0220  0.3545  0.1081
  165SAPE   C2118546   4.908   2.793   6.517  0.5921 -0.1099  0.3355
  165SAPE   O2218547   4.991   2.876   6.481 -0.0477 -0.3232 -0.3612
  165SAPE   C2218548   4.934   2.648   6.540  0.9765  0.0215 -0.1289
  165SAPE   H2R18549   4.844   2.585   6.558 -0.1017  1.3879 -0.6623
  165SAPE   H2S18550   4.964   2.621   6.436 -1.3821  2.3200 -1.4704
  165SAPE    C318551   4.801   3.027   6.700 -0.3215  0.5593  0.3187
  165SAPE    HX18552   4.771   3.133   6.689  0.7498  0.8018 -0.3643
  165SAPE    HY18553   4.912   3.022   6.701 -0.3150  0.8090  0.8188
  165SAPE   O3118554   4.736   2.946   6.806 -0.0402  0.3814  0.7457
  165SAPE   C3118555   4.797   2.982   6.915  0.7882 -0.0147 -0.3503
  165SAPE   O3218556   4.898   3.047   6.924  0.6150 -0.5106 -0.1162
  165SAPE   C3218557   4.723   2.931   7.037 -0.2368  0.6417 -0.1428
  165SAPE   H2X18558   4.792   2.856   7.081 -0.2862 -0.2847 -1.6231
  165SAPE   H2Y18559   4.627   2.882   7.008  0.3781 -1.2433  0.9364
  165SAPE   C2318560   5.037   2.610   6.653 -0.1674  0.3182  0.5847
  165SAPE   H3R18561   5.133   2.661   6.633 -1.0633  1.2145 -1.5484
  165SAPE   H3S18562   5.057   2.503   6.630 -2.4198 -0.1733  0.7201
  165SAPE   C2418563   4.986   2.644   6.793 -0.5868 -0.2786  0.1467
  165SAPE   H4R18564   4.890   2.590   6.809 -0.5361 -0.7884 -1.1837
  165SAPE   H4S18565   4.959   2.751   6.783  1.9818  0.5086  1.2742
  165SAPE   C2518566   5.084   2.631   6.906 -0.1393  0.8868  0.2227
  165SAPE   H5R18567   5.181   2.673   6.877  0.8811 -0.2237  1.9224
  165SAPE   C2618568   5.073   2.568   7.030  0.6408  0.3524 -0.6252
  165SAPE   H6R18569   5.161   2.567   7.096 -0.9080  3.2340  1.6020
  165SAPE   C2718570   4.943   2.502   7.077 -0.0946  0.3696 -0.3431
  165SAPE   H7R18571   4.890   2.452   6.993 -0.5405 -0.5980  0.4950
  165SAPE   H7S18572   4.874   2.578   7.120  1.9598  1.2192  1.5165
  165SAPE   C2818573   4.954   2.395   7.176 -0.2716 -0.4724 -0.7234
  165SAPE   H8R18574   5.002   2.303   7.139 -1.1260 -1.2780  0.1453
  165SAPE   C2918575   4.914   2.398   7.298 -0.2700  0.3379 -0.7725
  165SAPE   H9R18576   4.947   2.313   7.360  2.0042  2.5317  1.0940
  165SAPE  C21018577   4.833   2.510   7.366  0.5670  0.3101  0.1139
  165SAPE  H10R18578   4.775   2.473   7.453 -2.0714  2.7316 -0.5546
  165SAPE  H10S18579   4.749   2.529   7.296 -2.2736 -1.8762  2.8265
  165SAPE  C21118580   4.879   2.646   7.397  0.4241 -0.1425 -0.4851
  165SAPE  H11R18581   4.873   2.711   7.309  0.4927  0.7056  0.1354
  165SAPE  C21218582   4.935   2.687   7.521  0.1118  0.3908  0.2087
  165SAPE  H12R18583   4.983   2.786   7.526 -1.3024  1.0856  0.2581
  165SAPE  C21318584   4.958   2.607   7.643  0.7782 -0.3484  0.3210
  165SAPE  H13R18585   5.013   2.515   7.616 -0.0814 -0.3204 -1.5825
  165SAPE  H13S18586   4.860   2.568   7.679  0.1285 -0.3731 -1.4355
  165SAPE  C21418587   5.038   2.680   7.746 -0.0465  0.0018 -0.5206
  165SAPE  H14R18588   5.099   2.762   7.706 -0.1688  0.8692  1.0326
  165SAPE  C21518589   5.042   2.657   7.878 -0.6240  0.5819 -0.2363
  165SAPE  H15R18590   5.089   2.734   7.942  2.6105  0.1015 -1.8979
  165SAPE  C21618591   4.970   2.551   7.949  0.1096 -0.3149 -0.1069
  165SAPE  H16R18592   5.041   2.479   7.995  2.5350  1.0673 -1.5948
  165SAPE  H16S18593   4.907   2.495   7.877 -2.1245  2.0915 -0.1254
  165SAPE  C21718594   4.876   2.606   8.063 -0.5156 -0.6706  0.9307
  165SAPE  H17R18595   4.823   2.694   8.021  1.3707 -0.2293 -0.6219
  165SAPE  H17S18596   4.941   2.653   8.140 -1.2439  0.7978  0.6733
  165SAPE  C21818597   4.792   2.485   8.113 -0.1743  0.0763  0.6602
  165SAPE  H18R18598   4.747   2.437   8.024  3.7940 -1.8917 -0.3802
  165SAPE  H18S18599   4.708   2.525   8.174 -2.6337 -2.0524 -1.2116
  165SAPE  C21918600   4.864   2.384   8.199 -0.5233  0.6573  0.2413
  165SAPE  H19R18601   4.895   2.428   8.297  0.8449 -1.0910  0.6167
  165SAPE  H19S18602   4.956   2.350   8.148 -0.6145  1.5452 -0.5327
  165SAPE  C22018603   4.772   2.272   8.233  0.2504  0.5373 -0.4317
  165SAPE  H20R18604   4.667   2.304   8.247  0.5656  2.0126 -1.3387
  165SAPE  H20S18605   4.798   2.229   8.332 -2.6438  1.3958  0.7535
  165SAPE  H20T18606   4.775   2.200   8.149 -1.7804 -0.1194  0.0257
  165SAPE   C3318607   4.696   3.036   7.143  0.0189  0.3913 -0.1826
  165SAPE   H3X18608   4.623   3.116   7.117 -3.1279 -0.8307  4.2178
  165SAPE   H3Y18609   4.789   3.086   7.177 -0.8009  1.8654 -0.0496
  165SAPE   C3418610   4.644   2.963   7.263  0.0211 -0.6776  0.1611
  165SAPE   H4X18611   4.725   2.890   7.287  0.1937 -1.5147 -2.7305
  165SAPE   H4Y18612   4.549   2.914   7.233  0.2503 -1.2911  0.4230
  165SAPE   C3518613   4.619   3.057   7.379 -0.4900  0.7072 -0.9220
  165SAPE   H5X18614   4.546   3.000   7.439  0.6916  1.4678  1.2839
  165SAPE   H5Y18615   4.570   3.152   7.349  1.7435  1.7489 -1.3809
  165SAPE   C3618616   4.737   3.095   7.465  0.5439 -0.4451 -0.8117
  165SAPE   H6X18617   4.820   3.138   7.404  1.6036  1.5041  1.9015
  165SAPE   H6Y18618   4.786   3.003   7.503  1.4170  0.9595  1.5474
  165SAPE   C3718619   4.703   3.181   7.588 -0.3006 -0.1177  0.0420
  165SAPE   H7X18620   4.680   3.283   7.552  0.7365  0.2896  0.5082
  165SAPE   H7Y18621   4.796   3.181   7.649  1.1532  2.1309 -2.0747
  165SAPE   C3818622   4.584   3.134   7.677  0.2806 -0.5879  0.1685
  165SAPE   H8X18623   4.493   3.108   7.618  0.7472  1.2868 -1.4005
  165SAPE   H8Y18624   4.559   3.223   7.739  3.9172 -0.5004  1.6228
  165SAPE   C3918625   4.615   3.010   7.766  0.5616  0.3253  0.3098
  165SAPE   H9X18626   4.709   3.042   7.816  0.1560  0.7964  0.7681
  165SAPE   H9Y18627   4.644   2.918   7.710  0.2719  1.1080 -1.1324
  165SAPE  C31018628   4.496   2.976   7.856  0.2816 -0.2070  0.1554
  165SAPE  H10X18629   4.400   3.015   7.814  1.1290  2.0583  0.2627
  165SAPE  H10Y18630   4.512   3.034   7.950 -2.4631 -2.8920  2.3960
  165SAPE  C31118631   4.499   2.824   7.895 -0.3520 -0.2175 -0.3121
  165SAPE  H11X18632   4.607   2.805   7.912  0.1976  2.1705 -0.9194
  165SAPE  H11Y18633   4.474   2.761   7.808 -1.0801 -2.2988  1.3579
  165SAPE  C31218634   4.413   2.795   8.019 -0.9365 -0.0504 -0.5186
  165SAPE  H12X18635   4.304   2.810   8.002 -0.8587 -0.6569 -1.6039
  165SAPE  H12Y18636   4.434   2.876   8.092 -1.4901 -0.2041 -0.1794
  165SAPE  C31318637   4.429   2.659   8.083  0.2277 -0.3750  0.2652
  165SAPE  H13X18638   4.524   2.660   8.141 -0.0414 -0.8982  0.7178
  165SAPE  H13Y18639   4.429   2.591   7.995 -1.7822 -0.4677  0.3127
  165SAPE  C31418640   4.314   2.619   8.176  0.1336 -0.2927 -0.1824
  165SAPE  H14X18641   4.227   2.616   8.107  0.1763  0.3598 -0.2699
  165SAPE  H14Y18642   4.303   2.698   8.253  0.4257 -1.8698  1.5088
  165SAPE  C31518643   4.335   2.481   8.250  0.0793  0.0230 -0.6290
  165SAPE  H15X18644   4.373   2.406   8.176  0.3128 -1.3399  0.8507
  165SAPE  H15Y18645   4.241   2.444   8.296 -1.2338  1.0763 -2.3843
  165SAPE  C31618646   4.438   2.493   8.360 -0.5034 -0.0838  0.1777
  165SAPE  H16X18647   4.447   2.600   8.386 -3.5265  0.0444  0.8508
  165SAPE  H16Y18648   4.542   2.474   8.326  0.3697  0.3372  2.5129
  165SAPE  C31718649   4.406   2.402   8.480 -0.4544  0.1061  0.4828
  165SAPE  H17X18650   4.366   2.303   8.450  1.7697 -0.5028 -0.6343
  165SAPE  H17Y18651   4.334   2.457   8.542  1.2785  2.1689  0.7146
  165SAPE  C31818652   4.530   2.369   8.571  0.3225  0.1391 -0.5480
  165SAPE  H18X18653   4.593   2.285   8.535 -0.1066 -0.2034 -0.5071
  165SAPE  H18Y18654   4.503   2.345   8.676  0.8866 -1.1439 -0.6831
  165SAPE  H18Z18655   4.605   2.451   8.570 -0.2596  0.6760 -0.2851
  166SAPE     N18656   4.133   5.745   5.994 -0.5143  0.7251 -0.2166
  166SAPE   HN118657   4.047   5.732   5.937 -1.5280 -0.6928  1.6051
  166SAPE   HN218658   4.203   5.681   5.951 -0.6784 -0.6495  1.5510
  166SAPE   HN318659   4.112   5.712   6.090 -0.3017 -0.2129 -0.4907
  166SAPE   C1218660   4.180   5.884   5.995  0.4368 -0.0967 -0.1225
  166SAPE  H12A18661   4.237   5.907   5.902 -1.5142  0.7887 -1.1296
  166SAPE  H12B18662   4.253   5.903   6.077  0.4007  0.7806 -0.2847
  166SAPE   C1118663   4.066   5.985   6.011 -0.0787  0.3116 -0.0715
  166SAPE  H11A18664   4.108   6.087   5.995  1.1790 -0.3617 -1.1966
  166SAPE  H11B18665   4.032   5.967   6.116  1.4838 -1.1729  0.1951
  166SAPE     P18666   3.805   5.995   5.955  0.0232  0.0002 -0.1372
  166SAPE   O1318667   3.752   6.123   5.896 -0.1698  0.4220 -0.3415
  166SAPE   O1418668   3.746   5.871   5.909  0.5826  0.6652  0.2136
  166SAPE   O1218669   3.956   5.978   5.919 -0.3611  0.1461 -0.1491
  166SAPE   O1118670   3.805   6.007   6.112  0.2685  0.0399 -0.2160
  166SAPE    C118671   3.681   6.037   6.177 -0.1729  0.5784  0.6715
  166SAPE    HA18672   3.601   6.077   6.111  0.8315 -0.2866 -1.0829
  166SAPE    HB18673   3.644   5.944   6.226 -1.2571  0.5456 -0.1885
  166SAPE    C218674   3.715   6.125   6.303 -0.4924 -0.4517  0.2075
  166SAPE    HS18675   3.741   6.227   6.267 -2.0862 -0.1837 -0.2322
  166SAPE   O2118676   3.821   6.064   6.387  0.4452  0.6788 -0.5438
  166SAPE   C2118677   3.882   6.160   6.454  0.7104 -0.2940  0.1952
  166SAPE   O2218678   3.838   6.275   6.474  0.4692  0.2136  0.5848
  166SAPE   C2218679   4.022   6.111   6.501 -0.0591 -0.4405  0.0848
  166SAPE   H2R18680   4.064   6.037   6.429 -1.8448 -0.3485 -1.1053
  166SAPE   H2S18681   4.087   6.201   6.500  1.2180 -1.3350  0.8544
  166SAPE    C318682   3.585   6.135   6.382 -0.0762  0.6313 -0.7454
  166SAPE    HX18683   3.503   6.174   6.319 -1.3493 -1.3400 -0.3270
  166SAPE    HY18684   3.600   6.222   6.450  0.1572  0.4345 -0.5457
  166SAPE   O3118685   3.551   6.013   6.451 -0.2183 -0.2416 -0.1553
  166SAPE   C3118686   3.577   6.017   6.581 -0.9314  0.1874  0.0245
  166SAPE   O3218687   3.594   6.118   6.645 -0.9316 -0.3510  0.3665
  166SAPE   C3218688   3.588   5.868   6.623  0.1744  0.2726 -0.8939
  166SAPE   H2X18689   3.694   5.835   6.620  0.0472 -0.1000 -1.3725
  166SAPE   H2Y18690   3.529   5.805   6.552 -2.1220  2.5654 -1.0938
  166SAPE   C2318691   4.010   6.066   6.647 -0.0773  0.3904  0.2983
  166SAPE   H3R18692   4.110   6.026   6.672 -0.4852  0.0638  1.4233
  166SAPE   H3S18693   3.937   5.984   6.632 -0.2491  0.9114 -1.9352
  166SAPE   C2418694   3.984   6.163   6.763 -0.2834  0.8263  0.4801
  166SAPE   H4R18695   3.906   6.231   6.721 -1.4268 -0.1588  0.9609
  166SAPE   H4S18696   4.071   6.228   6.786  1.1242 -0.4636 -1.0615
  166SAPE   C2518697   3.918   6.099   6.883  0.0946 -0.2592 -0.5676
  166SAPE   H5R18698   3.815   6.072   6.858  0.9986 -2.5539 -1.8743
  166SAPE   C2618699   3.973   6.082   7.002  0.3997 -0.4070 -0.2384
  166SAPE   H6R18700   3.914   6.023   7.074  1.3709 -2.0445 -0.7592
  166SAPE   C2718701   4.111   6.119   7.037  0.4138  0.7282  0.0774
  166SAPE   H7R18702   4.177   6.141   6.951  2.6580 -0.9878  1.3063
  166SAPE   H7S18703   4.160   6.026   7.073 -0.0113 -0.2996 -1.9239
  166SAPE   C2818704   4.121   6.236   7.127  0.0347 -0.0849  0.3726
  166SAPE   H8R18705   4.110   6.337   7.085 -3.5322 -0.5777 -0.0248
  166SAPE   C2918706   4.169   6.235   7.250  0.1145  0.1476 -0.3351
  166SAPE   H9R18707   4.190   6.333   7.295  0.6160 -0.3625  0.5517
  166SAPE  C21018708   4.208   6.114   7.331 -0.1076 -0.6277 -0.1633
  166SAPE  H10R18709   4.253   6.029   7.276  0.5438 -0.8089  0.6250
  166SAPE  H10S18710   4.111   6.080   7.374 -0.3197  1.3951  1.0319
  166SAPE  C21118711   4.297   6.139   7.451 -0.9763  0.1238 -0.6222
  166SAPE  H11R18712   4.400   6.101   7.441 -0.5602  1.1272 -0.2051
  166SAPE  C21218713   4.255   6.189   7.575 -0.6950 -0.4835 -0.0007
  166SAPE  H12R18714   4.330   6.204   7.654 -1.1550 -1.4480  0.6288
  166SAPE  C21318715   4.115   6.239   7.615  0.2756 -0.3334  1.0425
  166SAPE  H13R18716   4.058   6.257   7.521  0.7738  1.9393  1.1469
  166SAPE  H13S18717   4.120   6.340   7.662 -1.0632  0.3241 -0.1659
  166SAPE  C21418718   4.044   6.147   7.712 -0.3051 -0.1874 -0.7747
  166SAPE  H14R18719   3.977   6.075   7.661  1.7730  0.0163 -3.9447
  166SAPE  C21518720   4.067   6.157   7.842  0.5889 -0.2311  0.3354
  166SAPE  H15R18721   4.007   6.095   7.911  0.1142  0.0861  0.2135
  166SAPE  C21618722   4.145   6.261   7.920 -0.2798  0.6439  0.6033
  166SAPE  H16R18723   4.102   6.363   7.906 -0.9438  0.2255 -0.3872
  166SAPE  H16S18724   4.252   6.264   7.889 -0.4495  1.5326  0.0914
  166SAPE  C21718725   4.134   6.235   8.067 -0.3819 -0.3755  0.3588
  166SAPE  H17R18726   4.208   6.304   8.113 -0.0186 -0.5315  0.0110
  166SAPE  H17S18727   4.186   6.138   8.084  0.8963 -0.1420 -1.9687
  166SAPE  C21818728   3.993   6.244   8.123  0.3411  0.7341  0.4397
  166SAPE  H18R18729   3.929   6.161   8.086  1.1607 -0.2378  1.1829
  166SAPE  H18S18730   3.935   6.338   8.111  0.2318  0.5099 -0.8546
  166SAPE  C21918731   4.008   6.216   8.273  0.1276 -0.0154 -0.0879
  166SAPE  H19R18732   4.077   6.296   8.309 -0.6256 -0.2017  1.8372
  166SAPE  H19S18733   4.054   6.116   8.288  0.9828  0.4470  0.4668
  166SAPE  C22018734   3.876   6.207   8.353 -1.4732  0.0672  0.1602
  166SAPE  H20R18735   3.897   6.196   8.462 -0.2034  2.1383  0.1562
  166SAPE  H20S18736   3.818   6.123   8.311  0.5254 -0.4418 -1.6532
  166SAPE  H20T18737   3.819   6.302   8.343  0.7345  1.1867 -2.4276
  166SAPE   C3318738   3.527   5.847   6.759  0.1595 -0.6839 -0.1678
  166SAPE   H3X18739   3.500   5.739   6.767 -2.4199 -0.0592  0.1508
  166SAPE   H3Y18740   3.429   5.899   6.757  0.2440 -0.5459 -0.7536
  166SAPE   C3418741   3.612   5.890   6.883 -0.5089  0.0943  0.9143
  166SAPE   H4X18742   3.633   5.997   6.862 -3.0520  0.6168  0.8232
  166SAPE   H4Y18743   3.719   5.859   6.885 -0.1088  1.3361 -0.3824
  166SAPE   C3518744   3.543   5.879   7.018  0.6783 -0.7605 -0.3429
  166SAPE   H5X18745   3.524   5.772   7.041 -0.1218 -1.2267 -3.0213
  166SAPE   H5Y18746   3.451   5.941   7.008  1.2274  0.4023  1.5512
  166SAPE   C3618747   3.625   5.929   7.144  0.4550  0.8630  0.3031
  166SAPE   H6X18748   3.671   6.030   7.132 -0.7149  1.2511 -1.0861
  166SAPE   H6Y18749   3.712   5.860   7.153 -0.8037 -0.7474  0.2573
  166SAPE   C3718750   3.543   5.943   7.277 -1.4843 -0.2269 -0.1144
  166SAPE   H7X18751   3.497   5.847   7.309  0.1777  0.1179  3.5072
  166SAPE   H7Y18752   3.466   6.021   7.259 -1.1138  0.0263 -0.6282
  166SAPE   C3818753   3.627   6.010   7.390 -0.2671 -0.3407  0.9469
  166SAPE   H8X18754   3.680   6.086   7.329 -1.2635  1.5781  2.4454
  166SAPE   H8Y18755   3.700   5.941   7.438 -0.3415 -1.0940  0.0001
  166SAPE   C3918756   3.530   6.059   7.496 -1.0865  0.2820  0.6242
  166SAPE   H9X18757   3.492   5.975   7.558 -2.9490  1.4968  1.1811
  166SAPE   H9Y18758   3.447   6.123   7.459  0.0115  0.6750 -1.2126
  166SAPE  C31018759   3.602   6.160   7.595  0.3508 -0.2109 -0.0677
  166SAPE  H10X18760   3.655   6.235   7.532  0.5911 -2.4869 -2.6771
  166SAPE  H10Y18761   3.688   6.113   7.647  1.1866  0.2289 -1.0229
  166SAPE  C31118762   3.497   6.214   7.696 -0.8122  0.0874  0.2684
  166SAPE  H11X18763   3.394   6.203   7.655  1.0713 -1.8352 -4.3318
  166SAPE  H11Y18764   3.523   6.319   7.718 -0.1520 -0.4710  2.2558
  166SAPE  C31218765   3.490   6.131   7.822  0.2302  0.6468 -0.3522
  166SAPE  H12X18766   3.531   6.030   7.803  2.9841  1.4799  0.9627
  166SAPE  H12Y18767   3.387   6.127   7.863 -0.6689 -1.2083 -2.6769
  166SAPE  C31318768   3.577   6.177   7.940  0.8443  0.3303 -0.1222
  166SAPE  H13X18769   3.673   6.226   7.914  0.7447  1.5655  1.7935
  166SAPE  H13Y18770   3.605   6.091   8.006  0.2164 -0.4419 -0.8502
  166SAPE  C31418771   3.495   6.270   8.030 -0.3128 -1.0121 -0.2686
  166SAPE  H14X18772   3.404   6.214   8.060  0.3787 -0.8005  2.3299
  166SAPE  H14Y18773   3.453   6.346   7.960  0.8887  0.4082  0.5185
  166SAPE  C31518774   3.577   6.320   8.150 -0.0165  0.0797  0.2817
  166SAPE  H15X18775   3.644   6.400   8.110  1.8858 -1.4235  0.3500
  166SAPE  H15Y18776   3.625   6.227   8.188 -1.2338 -1.4377 -1.7986
  166SAPE  C31618777   3.481   6.384   8.250  0.0110  0.6900  0.7284
  166SAPE  H16X18778   3.383   6.332   8.253  0.4819 -0.1738  1.5605
  166SAPE  H16Y18779   3.461   6.489   8.221 -0.0407  0.0071 -1.9232
  166SAPE  C31718780   3.528   6.376   8.398  0.5121 -0.0668 -0.2012
  166SAPE  H17X18781   3.607   6.452   8.413 -1.0082  2.2943 -3.6371
  166SAPE  H17Y18782   3.580   6.278   8.397  3.6460  1.5318 -3.2128
  166SAPE  C31818783   3.433   6.388   8.515  0.0614 -0.0956  0.1242
  166SAPE  H18X18784   3.359   6.306   8.528  0.0117 -0.2804 -1.2150
  166SAPE  H18Y18785   3.384   6.487   8.514  0.4812  0.1350  1.1780
  166SAPE  H18Z18786   3.492   6.401   8.609 -0.8002  0.2187  0.6240
  167SAPE     N18787   5.964   5.817   6.421  0.5208 -0.3545 -0.4942
  167SAPE   HN118788   6.060   5.854   6.437  0.0481  1.8391 -2.4600
  167SAPE   HN218789   5.951   5.715   6.440  0.8457 -0.2613  0.2453
  167SAPE   HN318790   5.939   5.832   6.321  1.3308  0.7410 -0.5364
  167SAPE   C1218791   5.861   5.893   6.512 -0.2033 -0.5641 -0.2156
  167SAPE  H12A18792   5.850   6.000   6.485  2.2316 -0.6919 -1.8006
  167SAPE  H12B18793   5.893   5.888   6.618  1.5957 -1.4419 -0.7859
  167SAPE   C1118794   5.731   5.812   6.503  0.3362  0.3332 -0.0236
  167SAPE  H11A18795   5.649   5.852   6.565 -0.4268 -0.2278 -0.6583
  167SAPE  H11B18796   5.745   5.716   6.558 -0.6480  0.1689 -0.0486
  167SAPE     P18797   5.585   5.706   6.304 -0.0669 -0.3162 -0.2526
  167SAPE   O1318798   5.502   5.799   6.227 -0.4713  0.1213 -0.1683
  167SAPE   O1418799   5.650   5.597   6.232 -0.4154  0.3270  0.3435
  167SAPE   O1218800   5.703   5.792   6.365  0.6367  0.4876  0.6621
  167SAPE   O1118801   5.497   5.657   6.428  0.1780 -0.1206  0.4991
  167SAPE    C118802   5.538   5.552   6.514 -0.1915 -0.2485  0.4302
  167SAPE    HA18803   5.636   5.508   6.485 -0.6416 -0.9383 -0.0532
  167SAPE    HB18804   5.559   5.601   6.612 -1.8685  2.6541 -0.6113
  167SAPE    C218805   5.429   5.444   6.526 -0.4574  0.6320 -0.1641
  167SAPE    HS18806   5.389   5.412   6.427  0.1712  1.4179 -0.6741
  167SAPE   O2118807   5.320   5.499   6.603  0.5783  0.0801 -0.7115
  167SAPE   C2118808   5.213   5.423   6.612 -0.2184  0.1514 -0.1940
  167SAPE   O2218809   5.194   5.307   6.573  0.2134 -0.5692  0.1641
  167SAPE   C2218810   5.101   5.508   6.670 -0.2255  0.0718 -0.3154
  167SAPE   H2R18811   5.135   5.547   6.769  0.2010 -1.1438  0.0301
  167SAPE   H2S18812   5.091   5.592   6.598  1.7538 -0.5750 -1.3802
  167SAPE    C318813   5.498   5.318   6.588 -0.2138  0.9704 -0.0017
  167SAPE    HX18814   5.572   5.278   6.515 -1.7371 -1.8796 -0.0650
  167SAPE    HY18815   5.419   5.241   6.604  0.0135  0.2596 -2.0825
  167SAPE   O3118816   5.557   5.347   6.720 -0.1181 -0.2064 -0.3572
  167SAPE   C3118817   5.688   5.362   6.725 -0.5803  0.9544 -0.4587
  167SAPE   O3218818   5.765   5.352   6.629  0.0152  0.1797 -0.1784
  167SAPE   C3218819   5.734   5.393   6.868  0.3320 -0.0126 -0.3943
  167SAPE   H2X18820   5.660   5.339   6.931  2.3704 -1.8896  0.4733
  167SAPE   H2Y18821   5.723   5.503   6.879  0.4454 -0.1292  1.0331
  167SAPE   C2318822   4.962   5.430   6.704 -0.0545 -0.1159 -0.0538
  167SAPE   H3R18823   4.979   5.361   6.789  0.2408 -1.2834 -1.0419
  167SAPE   H3S18824   4.927   5.363   6.623  2.3289 -1.3871 -0.0596
  167SAPE   C2418825   4.846   5.523   6.741 -0.3680  1.0928 -0.3660
  167SAPE   H4R18826   4.748   5.469   6.744 -0.9061  2.1104  0.6302
  167SAPE   H4S18827   4.836   5.601   6.662 -2.1827  1.2497  0.0001
  167SAPE   C2518828   4.875   5.585   6.875 -0.7476  0.5998 -0.3371
  167SAPE   H5R18829   4.922   5.684   6.862  0.0720  0.2863  0.2269
  167SAPE   C2618830   4.818   5.551   6.993 -0.5729  0.4164 -0.1205
  167SAPE   H6R18831   4.843   5.617   7.076 -1.2464  1.3078 -0.6178
  167SAPE   C2718832   4.714   5.441   7.020 -1.5696  0.4784 -0.1759
  167SAPE   H7R18833   4.633   5.425   6.946 -1.4638  0.4359 -0.2815
  167SAPE   H7S18834   4.659   5.472   7.112 -1.4659 -0.8173  0.3390
  167SAPE   C2818835   4.791   5.313   7.027 -0.0882  0.1125  0.2651
  167SAPE   H8R18836   4.851   5.292   6.936 -0.6831  2.4034 -0.6820
  167SAPE   C2918837   4.787   5.221   7.124 -0.3155 -0.1023  0.8914
  167SAPE   H9R18838   4.858   5.141   7.099  0.0645  0.6458 -0.4676
  167SAPE  C21018839   4.704   5.223   7.247 -0.4793  0.2328 -0.2805
  167SAPE  H10R18840   4.651   5.129   7.270  2.3707 -0.9948  1.6301
  167SAPE  H10S18841   4.617   5.291   7.235 -1.0654 -0.9496 -2.9620
  167SAPE  C21118842   4.786   5.254   7.367  0.4566  0.6967 -0.7636
  167SAPE  H11R18843   4.892   5.227   7.355  0.2986 -0.0882 -0.4789
  167SAPE  C21218844   4.744   5.303   7.487 -0.2593  0.0067 -0.0780
  167SAPE  H12R18845   4.813   5.305   7.572  0.1571 -2.8898 -0.3155
  167SAPE  C21318846   4.601   5.338   7.519  0.4887  0.2750 -0.4245
  167SAPE  H13R18847   4.554   5.249   7.564  0.4972  0.8329  0.6895
  167SAPE  H13S18848   4.547   5.359   7.424 -1.6529  0.5343  0.8300
  167SAPE  C21418849   4.598   5.459   7.609 -0.0273 -0.0767  0.1759
  167SAPE  H14R18850   4.629   5.551   7.558 -0.7474 -0.0309 -0.1975
  167SAPE  C21518851   4.580   5.454   7.741  0.5572 -0.1658 -0.1994
  167SAPE  H15R18852   4.561   5.550   7.791  1.5664 -0.1332  0.1237
  167SAPE  C21618853   4.558   5.324   7.821 -0.4096  0.1531  0.6849
  167SAPE  H16R18854   4.620   5.240   7.784 -0.2628  0.0170  1.2284
  167SAPE  H16S18855   4.454   5.287   7.811  0.7875 -2.6427 -2.0384
  167SAPE  C21718856   4.586   5.351   7.972  0.1197  0.0276 -0.0212
  167SAPE  H17R18857   4.515   5.427   8.013 -1.7354 -0.9118 -1.4235
  167SAPE  H17S18858   4.686   5.397   7.985 -0.5222  1.2614  0.6412
  167SAPE  C21818859   4.564   5.225   8.052  0.1639  1.0988  0.4539
  167SAPE  H18R18860   4.662   5.173   8.044  0.0061  0.0745  4.0271
  167SAPE  H18S18861   4.475   5.161   8.039 -0.0341  1.2386  1.0701
  167SAPE  C21918862   4.552   5.268   8.201 -0.0114  0.1458 -0.2505
  167SAPE  H19R18863   4.451   5.308   8.226  0.9202  1.8719  0.8012
  167SAPE  H19S18864   4.622   5.354   8.204  1.4874 -0.9915 -1.5003
  167SAPE  C22018865   4.601   5.177   8.309 -0.3594 -0.0610  0.3113
  167SAPE  H20R18866   4.546   5.084   8.330 -2.8741  1.2798 -0.1256
  167SAPE  H20S18867   4.595   5.225   8.409 -2.1241 -1.8170  1.0637
  167SAPE  H20T18868   4.706   5.144   8.288 -1.2194 -2.9219  0.3332
  167SAPE   C3318869   5.879   5.357   6.900 -0.4736 -0.3056 -0.3709
  167SAPE   H3X18870   5.947   5.418   6.837 -2.3678  0.8333 -1.3258
  167SAPE   H3Y18871   5.900   5.249   6.881  0.3524 -0.0117 -1.1703
  167SAPE   C3418872   5.917   5.391   7.041 -0.3305  0.6495 -0.1557
  167SAPE   H4X18873   5.865   5.324   7.113  0.1111  0.6919  0.2046
  167SAPE   H4Y18874   5.874   5.491   7.063 -2.0522  0.0656 -0.7882
  167SAPE   C3518875   6.071   5.394   7.069  0.5253 -0.4526 -0.3208
  167SAPE   H5X18876   6.102   5.437   6.972  2.1621  0.1826  0.4645
  167SAPE   H5Y18877   6.112   5.290   7.067  1.9719  0.1170 -0.8699
  167SAPE   C3618878   6.115   5.476   7.191  0.0077 -0.3401 -0.4073
  167SAPE   H6X18879   6.054   5.567   7.173  0.3539  0.3565  1.8010
  167SAPE   H6Y18880   6.217   5.520   7.192  1.0235 -2.6332  0.9375
  167SAPE   C3718881   6.090   5.408   7.326  0.2152  0.4364  0.8700
  167SAPE   H7X18882   6.145   5.312   7.330 -0.7619 -0.1556  0.3094
  167SAPE   H7Y18883   5.983   5.379   7.326  0.3534 -0.0882  2.0102
  167SAPE   C3818884   6.104   5.490   7.462  0.1682  0.0872 -0.1193
  167SAPE   H8X18885   6.014   5.551   7.482 -0.0332 -1.2897  3.5875
  167SAPE   H8Y18886   6.196   5.552   7.468  1.6112 -1.9986 -0.1299
  167SAPE   C3918887   6.095   5.395   7.579 -0.9049 -0.0743 -0.4992
  167SAPE   H9X18888   6.190   5.340   7.594 -0.7050 -0.2035 -2.1037
  167SAPE   H9Y18889   6.015   5.331   7.535  2.4978 -4.6081 -0.3345
  167SAPE  C31018890   6.050   5.472   7.710 -0.3110 -0.1037  0.0400
  167SAPE  H10X18891   5.962   5.527   7.670 -0.0161 -0.2333 -0.8150
  167SAPE  H10Y18892   6.121   5.554   7.736 -1.2921  0.5697  0.5917
  167SAPE  C31118893   6.015   5.388   7.836  0.0689  0.3722  0.0742
  167SAPE  H11X18894   6.014   5.459   7.921  2.0710 -0.8198  1.1396
  167SAPE  H11Y18895   6.102   5.321   7.852 -0.7187 -0.1436  2.2737
  167SAPE  C31218896   5.889   5.312   7.835 -0.5123  0.0614  0.4605
  167SAPE  H12X18897   5.860   5.255   7.744 -0.0632 -1.4517  1.2466
  167SAPE  H12Y18898   5.799   5.375   7.852 -1.3384 -0.9831 -0.0232
  167SAPE  C31318899   5.876   5.209   7.953  0.8948 -0.4408 -0.4233
  167SAPE  H13X18900   5.969   5.149   7.953  1.0450 -0.2040  0.0066
  167SAPE  H13Y18901   5.788   5.148   7.923 -0.1675  0.7211  0.2528
  167SAPE  C31418902   5.848   5.268   8.094 -0.3529 -0.2212 -0.1923
  167SAPE  H14X18903   5.896   5.367   8.109 -1.5257  0.2524  0.4823
  167SAPE  H14Y18904   5.907   5.203   8.162 -0.7330 -2.0058 -1.5436
  167SAPE  C31518905   5.700   5.256   8.145 -0.5568 -0.2366 -0.0364
  167SAPE  H15X18906   5.679   5.147   8.138  0.8987 -0.5161 -0.2912
  167SAPE  H15Y18907   5.631   5.306   8.074  0.5964 -1.0949 -1.7952
  167SAPE  C31618908   5.661   5.327   8.275 -0.1653 -0.3712 -0.3844
  167SAPE  H16X18909   5.714   5.424   8.286 -0.5019 -0.1822 -0.4191
  167SAPE  H16Y18910   5.704   5.261   8.354  1.0489 -1.0781 -1.6022
  167SAPE  C31718911   5.516   5.359   8.300  0.0996 -0.0406 -0.4196
  167SAPE  H17X18912   5.462   5.310   8.216 -1.3079  0.9603 -0.1222
  167SAPE  H17Y18913   5.501   5.469   8.301 -0.1199 -0.0743  0.2226
  167SAPE  C31818914   5.478   5.316   8.444 -0.2335  0.3548 -0.0107
  167SAPE  H18X18915   5.368   5.328   8.452 -0.8693 -5.5223  2.9383
  167SAPE  H18Y18916   5.519   5.372   8.531  1.4555 -0.2688 -0.3885
  167SAPE  H18Z18917   5.498   5.208   8.458  0.4964  0.6096  0.9985
  168SAPE     N18918   1.255   0.547   6.361  0.4277 -0.0046  0.1809
  168SAPE   HN118919   1.263   0.445   6.339 -3.6480 -0.9914  2.7909
  168SAPE   HN218920   1.187   0.581   6.290 -1.1581 -0.6587  1.3530
  168SAPE   HN318921   1.349   0.583   6.336  0.6126 -0.6351 -0.0572
  168SAPE   C1218922   1.215   0.579   6.499  0.5949  0.0932 -0.3649
  168SAPE  H12A18923   1.229   0.689   6.512 -2.4837  0.5845 -0.8301
  168SAPE  H12B18924   1.281   0.518   6.564 -0.8333 -1.3831 -0.2691
  168SAPE   C1118925   1.065   0.547   6.536  0.3597  0.3794 -0.2150
  168SAPE  H11A18926   1.005   0.624   6.483  1.3165  0.8339 -0.6498
  168SAPE  H11B18927   1.058   0.573   6.644  3.0681 -2.0017  0.6014
  168SAPE     P18928   0.876   0.366   6.509  0.0488  0.4594  0.1989
  168SAPE   O1318929   0.796   0.490   6.526  0.1428 -0.2970  0.5935
  168SAPE   O1418930   0.847   0.269   6.403  0.5914 -0.1817  0.0704
  168SAPE   O1218931   1.029   0.409   6.505  0.0469 -0.5814 -0.0572
  168SAPE   O1118932   0.867   0.290   6.644  0.3860 -0.2234 -0.3395
  168SAPE    C118933   0.936   0.166   6.676 -0.2662 -0.1605  0.5592
  168SAPE    HA18934   0.856   0.095   6.704 -0.0099 -0.8918 -0.5261
  168SAPE    HB18935   0.994   0.115   6.595 -3.0139 -2.2569 -0.1329
  168SAPE    C218936   1.043   0.175   6.794  0.9867 -0.2871  0.4745
  168SAPE    HS18937   1.107   0.084   6.796  1.4533  0.0327  0.2209
  168SAPE   O2118938   0.979   0.190   6.924 -0.5920 -0.1192  0.3402
  168SAPE   C2118939   0.911   0.093   6.968  0.3598  0.4590  0.2021
  168SAPE   O2218940   0.917  -0.019   6.919  0.0651 -0.3372  0.7432
  168SAPE   C2218941   0.822   0.128   7.092 -0.1405 -0.3667 -0.4528
  168SAPE   H2R18942   0.895   0.163   7.169  0.5401 -0.8471 -0.8819
  168SAPE   H2S18943   0.760   0.214   7.058  0.3272 -1.0536 -3.1383
  168SAPE    C318944   1.147   0.291   6.764 -0.1264  0.2012  0.7279
  168SAPE    HX18945   1.082   0.380   6.774  0.5647  0.7610  0.2761
  168SAPE    HY18946   1.190   0.273   6.663  0.5094 -0.8602  1.1809
  168SAPE   O3118947   1.250   0.275   6.868 -0.5217 -0.1194  0.1683
  168SAPE   C3118948   1.301   0.391   6.895 -0.0940 -0.2088  0.9442
  168SAPE   O3218949   1.285   0.495   6.828 -0.4176  0.0535 -0.2794
  168SAPE   C3218950   1.386   0.386   7.025  0.1371 -0.0292 -0.6964
  168SAPE   H2X18951   1.458   0.301   7.018 -1.7950 -1.6881 -0.8334
  168SAPE   H2Y18952   1.311   0.376   7.106  1.2708  3.0954  0.8063
  168SAPE   C2318953   0.744   0.001   7.150  0.1821 -0.3855 -0.6440
  168SAPE   H3R18954   0.825  -0.072   7.168  0.0003 -0.9143 -1.9184
  168SAPE   H3S18955   0.685  -0.041   7.066  1.8715 -2.2151 -0.9515
  168SAPE   C2418956   0.670   0.036   7.276 -0.1045 -0.4500 -0.2343
  168SAPE   H4R18957   0.633  -0.045   7.342 -0.8241  0.0644  0.0047
  168SAPE   H4S18958   0.575   0.075   7.234  1.1253  2.2963 -0.5948
  168SAPE   C2518959   0.735   0.143   7.364 -0.0703  0.2867 -0.4994
  168SAPE   H5R18960   0.722   0.245   7.326 -0.6520 -0.1437 -1.4757
  168SAPE   C2618961   0.788   0.126   7.487 -0.4473  0.2219  0.2437
  168SAPE   H6R18962   0.843   0.208   7.535  0.1830  1.1503 -1.9773
  168SAPE   C2718963   0.791  -0.006   7.564  0.5913 -0.0732 -0.0565
  168SAPE   H7R18964   0.749  -0.089   7.504  2.1496 -0.3819 -0.7341
  168SAPE   H7S18965   0.720   0.023   7.644  0.4399 -1.9356  0.4922
  168SAPE   C2818966   0.923  -0.028   7.637 -0.6664 -0.1326 -0.4738
  168SAPE   H8R18967   1.015  -0.027   7.577 -1.2518 -0.3843 -1.3798
  168SAPE   C2918968   0.946  -0.069   7.765  0.3083 -0.9871  0.4771
  168SAPE   H9R18969   1.047  -0.066   7.808  1.1766  0.2221 -1.5981
  168SAPE  C21018970   0.832  -0.091   7.860  0.6316  0.2779  0.3298
  168SAPE  H10R18971   0.842  -0.194   7.899 -1.8754 -0.5732 -1.1626
  168SAPE  H10S18972   0.735  -0.088   7.805 -0.1961  0.0707  1.7493
  168SAPE  C21118973   0.818  -0.007   7.989 -0.8171 -0.2906 -0.3066
  168SAPE  H11R18974   0.831  -0.074   8.076 -2.0948 -1.0668 -0.6985
  168SAPE  C21218975   0.813   0.130   8.005  0.1582 -0.6031 -0.2071
  168SAPE  H12R18976   0.810   0.163   8.110 -0.5681  1.2165 -0.7779
  168SAPE  C21318977   0.813   0.232   7.892 -0.4209 -0.2528 -0.0106
  168SAPE  H13R18978   0.883   0.201   7.812 -0.5786 -0.1940 -0.1711
  168SAPE  H13S18979   0.853   0.323   7.942 -1.3530  0.7902 -1.1238
  168SAPE  C21418980   0.674   0.260   7.837 -0.4871 -0.7846  0.4959
  168SAPE  H14R18981   0.645   0.221   7.739 -2.2802  3.1154 -0.6223
  168SAPE  C21518982   0.574   0.326   7.911 -0.0538  0.5922  0.1411
  168SAPE  H15R18983   0.481   0.355   7.860  1.3037 -0.7089 -3.2898
  168SAPE  C21618984   0.598   0.387   8.045 -1.0961 -0.0753  0.4759
  168SAPE  H16R18985   0.568   0.494   8.048 -0.8305  0.0501 -1.3098
  168SAPE  H16S18986   0.702   0.370   8.081 -1.0995  0.3509  0.6903
  168SAPE  C21718987   0.505   0.306   8.142  0.0060 -0.2359  0.2740
  168SAPE  H17R18988   0.531   0.199   8.157 -1.0408 -0.0495  3.8337
  168SAPE  H17S18989   0.402   0.310   8.101  0.6277  1.8570 -1.1743
  168SAPE  C21818990   0.492   0.371   8.279  0.3760  0.1145  0.4061
  168SAPE  H18R18991   0.400   0.343   8.335  1.1310 -0.6351  1.2962
  168SAPE  H18S18992   0.475   0.477   8.250 -1.8989 -0.2373  0.3842
  168SAPE  C21918993   0.614   0.359   8.373 -0.0901  0.1024  0.6733
  168SAPE  H19R18994   0.580   0.395   8.473 -1.9223  0.0155  0.0909
  168SAPE  H19S18995   0.688   0.430   8.330 -0.0521 -0.6233 -0.4923
  168SAPE  C22018996   0.679   0.221   8.407 -1.0917  0.1146  0.4610
  168SAPE  H20R18997   0.737   0.167   8.329 -3.2608 -0.5943 -0.6953
  168SAPE  H20S18998   0.597   0.153   8.438 -1.5379  0.3572 -0.1966
  168SAPE  H20T18999   0.750   0.226   8.493  1.3899 -3.2929 -1.2486
  168SAPE   C3319000   1.454   0.520   7.057 -0.6578  0.2495  0.2395
  168SAPE   H3X19001   1.383   0.605   7.055 -1.5651 -0.5328 -1.3046
  168SAPE   H3Y19002   1.537   0.535   6.984  0.9149 -1.1424  1.6774
  168SAPE   C3419003   1.512   0.511   7.200 -0.1103 -0.3257  0.6459
  168SAPE   H4X19004   1.603   0.448   7.190 -0.5757 -1.1929  1.8444
  168SAPE   H4Y19005   1.430   0.466   7.259 -1.2936 -0.3591 -0.9746
  168SAPE   C3519006   1.531   0.647   7.267  0.7618  0.4094 -0.7090
  168SAPE   H5X19007   1.436   0.704   7.256  0.2604  0.1672  2.0256
  168SAPE   H5Y19008   1.617   0.694   7.215  1.2877  1.1242  0.7866
  168SAPE   C3619009   1.566   0.623   7.413 -1.0758  0.5563 -0.1537
  168SAPE   H6X19010   1.662   0.567   7.410 -1.6226 -0.3565 -1.2821
  168SAPE   H6Y19011   1.478   0.573   7.459 -0.5348 -0.6752 -0.4184
  168SAPE   C3719012   1.569   0.748   7.499  0.3351  0.0955  0.2082
  168SAPE   H7X19013   1.491   0.822   7.471  2.0084  1.4805 -0.8803
  168SAPE   H7Y19014   1.672   0.789   7.486  0.6065 -0.7930 -0.5696
  168SAPE   C3819015   1.541   0.731   7.650 -0.5604  0.5531  0.1648
  168SAPE   H8X19016   1.437   0.699   7.670 -0.1323  0.4197  2.2560
  168SAPE   H8Y19017   1.560   0.833   7.690  1.3720  0.6743 -0.9933
  168SAPE   C3919018   1.636   0.617   7.706 -0.2258 -0.0542 -0.1503
  168SAPE   H9X19019   1.740   0.651   7.688 -0.6032  0.6446 -1.0884
  168SAPE   H9Y19020   1.607   0.522   7.656  1.7710 -0.9054  0.2820
  168SAPE  C31019021   1.625   0.602   7.859 -0.2331 -0.3974  0.2167
  168SAPE  H10X19022   1.638   0.707   7.894  2.8080 -0.4450 -0.6605
  168SAPE  H10Y19023   1.716   0.544   7.885  0.2149  0.6090  0.9197
  168SAPE  C31119024   1.492   0.541   7.908 -0.3742 -0.0009 -0.3343
  168SAPE  H11X19025   1.471   0.458   7.837 -1.0823  1.4844 -1.9041
  168SAPE  H11Y19026   1.410   0.615   7.896 -1.5002 -1.2604 -0.5489
  168SAPE  C31219027   1.485   0.513   8.057  0.1653 -0.6045 -0.4823
  168SAPE  H12X19028   1.394   0.561   8.098  1.3681 -1.7214  3.7212
  168SAPE  H12Y19029   1.574   0.561   8.103  0.7619 -1.1993 -0.9959
  168SAPE  C31319030   1.482   0.365   8.091 -0.6166  0.3116  0.6745
  168SAPE  H13X19031   1.549   0.317   8.017 -0.6216 -1.4571  1.7802
  168SAPE  H13Y19032   1.381   0.332   8.058 -1.3599  0.5897  2.5718
  168SAPE  C31419033   1.519   0.341   8.240  0.5721  0.4616  1.2224
  168SAPE  H14X19034   1.500   0.233   8.260 -0.8974  0.2118 -1.2548
  168SAPE  H14Y19035   1.445   0.408   8.288 -0.8734  1.5342 -2.3540
  168SAPE  C31519036   1.660   0.375   8.282  0.2827  0.4689 -0.4418
  168SAPE  H15X19037   1.699   0.478   8.266  0.4021  0.2512 -1.6097
  168SAPE  H15Y19038   1.720   0.316   8.210 -0.2172 -0.0936 -0.3946
  168SAPE  C31619039   1.691   0.349   8.433  0.1886  0.1043 -0.5170
  168SAPE  H16X19040   1.683   0.240   8.454 -0.8323  0.6579  2.1074
  168SAPE  H16Y19041   1.614   0.385   8.504  1.7209  1.7301  0.3632
  168SAPE  C31719042   1.829   0.408   8.464  0.2930 -0.3779  0.3465
  168SAPE  H17X19043   1.825   0.518   8.452  2.0644 -0.3799 -0.3133
  168SAPE  H17Y19044   1.888   0.369   8.379 -0.0298  2.6080 -1.3049
  168SAPE  C31819045   1.901   0.371   8.593  0.3299  0.4238 -0.1152
  168SAPE  H18X19046   1.846   0.427   8.672  1.4622 -0.3713  1.2571
  168SAPE  H18Y19047   2.008   0.398   8.580  0.4208  0.7319  1.2432
  168SAPE  H18Z19048   1.887   0.262   8.607 -0.6819  0.3992 -1.2116
  169SAPE     N19049   6.463   2.329   6.053  0.1385  0.0954 -0.2421
  169SAPE   HN119050   6.485   2.234   6.016 -0.2090 -0.5777  1.2333
  169SAPE   HN219051   6.360   2.339   6.057  0.0530 -0.9717  0.2608
  169SAPE   HN319052   6.501   2.407   5.995  2.0677 -1.6002 -1.3671
  169SAPE   C1219053   6.527   2.333   6.188 -0.2794 -0.2766  0.8209
  169SAPE  H12A19054   6.638   2.323   6.180 -0.3027  0.5378 -0.7550
  169SAPE  H12B19055   6.487   2.266   6.266 -0.7886  1.5188  2.1370
  169SAPE   C1119056   6.506   2.470   6.250  0.0567  0.1017  0.6103
  169SAPE  H11A19057   6.566   2.544   6.193  0.6771 -0.5537  0.4155
  169SAPE  H11B19058   6.547   2.465   6.353 -0.4296  2.9207  0.9849
  169SAPE     P19059   6.336   2.660   6.331  0.0079 -0.1082  0.1479
  169SAPE   O1319060   6.465   2.720   6.367 -0.2429  0.2099  0.0017
  169SAPE   O1419061   6.246   2.744   6.240  0.3752  0.3734  0.1911
  169SAPE   O1219062   6.372   2.526   6.262  0.1695  0.0873  0.3996
  169SAPE   O1119063   6.255   2.632   6.467  0.2765 -0.1589  0.6326
  169SAPE    C119064   6.260   2.495   6.518  0.4087 -0.0531  0.1086
  169SAPE    HA19065   6.346   2.436   6.481  0.2262 -0.5758  0.5145
  169SAPE    HB19066   6.270   2.506   6.629 -2.0527 -1.5895  0.5352
  169SAPE    C219067   6.118   2.435   6.507 -0.0290  0.4520  0.0311
  169SAPE    HS19068   6.075   2.444   6.404 -1.8155 -1.3150  0.5901
  169SAPE   O2119069   6.036   2.510   6.603 -0.1006  0.5005 -0.2150
  169SAPE   C2119070   5.914   2.465   6.620  0.8759 -0.3076 -0.1766
  169SAPE   O2219071   5.855   2.386   6.543 -0.3600 -0.2271 -0.4380
  169SAPE   C2219072   5.846   2.513   6.753 -0.0985  0.1229 -0.3554
  169SAPE   H2R19073   5.885   2.617   6.755 -2.3531  1.1103 -3.4189
  169SAPE   H2S19074   5.738   2.505   6.726 -0.6015 -0.4803  1.8061
  169SAPE    C319075   6.131   2.278   6.534  0.1602 -0.1507  0.2334
  169SAPE    HX19076   6.197   2.239   6.453  0.1417 -3.1114  1.5550
  169SAPE    HY19077   6.032   2.232   6.514  0.7217 -1.2453 -0.1004
  169SAPE   O3119078   6.200   2.244   6.657 -0.2810 -0.4813  0.2328
  169SAPE   C3119079   6.135   2.150   6.735 -0.1491  0.1221  0.8050
  169SAPE   O3219080   6.016   2.121   6.731  0.4839  0.2186  0.3746
  169SAPE   C3219081   6.239   2.080   6.825  0.3835 -0.5249 -0.4489
  169SAPE   H2X19082   6.317   2.144   6.870  1.8983 -2.0542 -0.8714
  169SAPE   H2Y19083   6.299   2.013   6.759 -0.3135 -1.5142 -0.0993
  169SAPE   C2319084   5.890   2.426   6.872  0.1189 -0.2091  0.0906
  169SAPE   H3R19085   5.912   2.321   6.845  1.7448  0.5870 -1.8074
  169SAPE   H3S19086   5.799   2.412   6.935  1.4297 -0.0915  2.0455
  169SAPE   C2419087   6.010   2.476   6.951  0.0181  0.0808  0.0338
  169SAPE   H4R19088   6.079   2.521   6.877 -0.5741  1.1037  0.0963
  169SAPE   H4S19089   6.061   2.391   7.000  0.8792  0.7464  0.2999
  169SAPE   C2519090   5.977   2.586   7.047 -0.5768  0.4751  1.0105
  169SAPE   H5R19091   5.998   2.684   7.002  1.1536  0.2188  1.2251
  169SAPE   C2619092   5.931   2.573   7.172 -0.1800 -0.4477  0.3945
  169SAPE   H6R19093   5.910   2.669   7.221 -1.5116 -1.4363  1.7987
  169SAPE   C2719094   5.893   2.442   7.233  0.9820  0.3388 -0.3240
  169SAPE   H7R19095   5.986   2.391   7.268  0.2984 -1.2664 -0.7940
  169SAPE   H7S19096   5.850   2.380   7.152  1.6085 -1.2778  0.5447
  169SAPE   C2819097   5.782   2.457   7.339 -0.3528 -0.3107 -0.0756
  169SAPE   H8R19098   5.686   2.478   7.290 -0.2846 -1.7657 -0.8445
  169SAPE   C2919099   5.800   2.442   7.474  0.1371  0.0458 -0.4281
  169SAPE   H9R19100   5.713   2.444   7.540  0.4960 -3.0665  0.2000
  169SAPE  C21019101   5.925   2.423   7.554  0.1512  0.0593  0.0838
  169SAPE  H10R19102   6.001   2.374   7.490 -0.0464  3.0126 -2.5284
  169SAPE  H10S19103   5.913   2.353   7.640 -0.5417  1.6855  1.3538
  169SAPE  C21119104   5.967   2.563   7.596  0.1764 -0.0104 -0.7584
  169SAPE  H11R19105   5.951   2.646   7.526  1.0419  2.3202  1.7398
  169SAPE  C21219106   6.003   2.596   7.725 -0.8697 -0.3919  0.4513
  169SAPE  H12R19107   6.027   2.703   7.732 -0.5824 -0.3419 -1.1234
  169SAPE  C21319108   6.018   2.503   7.848 -0.0710  0.1986 -0.0655
  169SAPE  H13R19109   6.108   2.537   7.903 -1.3358  1.7885  1.0937
  169SAPE  H13S19110   6.044   2.398   7.822  1.6509  0.4067  0.7625
  169SAPE  C21419111   5.889   2.503   7.928  0.4995 -0.0261  0.1174
  169SAPE  H14R19112   5.808   2.435   7.899  0.9680 -1.3882  1.8812
  169SAPE  C21519113   5.875   2.560   8.051  0.9760 -0.1285 -0.1541
  169SAPE  H15R19114   5.774   2.554   8.093  0.7765 -0.5490 -0.7077
  169SAPE  C21619115   5.973   2.647   8.123 -0.0727 -0.1514 -0.0927
  169SAPE  H16R19116   6.072   2.646   8.072 -0.7126  0.5383 -1.3575
  169SAPE  H16S19117   5.975   2.611   8.228  0.3583  0.1642  0.0096
  169SAPE  C21719118   5.930   2.794   8.123 -0.2436 -0.0231  0.5643
  169SAPE  H17R19119   5.895   2.836   8.026 -0.8155  1.5657  1.4377
  169SAPE  H17S19120   6.017   2.859   8.147 -0.7628  0.1502  1.9949
  169SAPE  C21819121   5.822   2.837   8.225  0.4898 -0.0411 -0.1797
  169SAPE  H18R19122   5.722   2.794   8.202  0.4957  0.8780 -2.0138
  169SAPE  H18S19123   5.793   2.944   8.211  3.0635  0.6811 -0.2861
  169SAPE  C21919124   5.844   2.810   8.377  0.0885  0.5118  0.1111
  169SAPE  H19R19125   5.953   2.804   8.398  0.2022  2.4031  0.1316
  169SAPE  H19S19126   5.790   2.718   8.407  0.7776 -0.0159 -0.2569
  169SAPE  C22019127   5.798   2.923   8.468 -0.2798 -0.4126  0.6598
  169SAPE  H20R19128   5.831   2.914   8.574  1.3705 -2.1152  0.0075
  169SAPE  H20S19129   5.688   2.944   8.471  0.2715  2.6086  1.9957
  169SAPE  H20T19130   5.857   3.013   8.440 -0.8254 -0.3277 -0.2255
  169SAPE   C3319131   6.169   1.999   6.933 -0.6157  0.1679 -0.1477
  169SAPE   H3X19132   6.240   1.934   6.987  1.0668  2.7526  0.8348
  169SAPE   H3Y19133   6.086   1.936   6.894 -1.3649  1.4875 -0.7322
  169SAPE   C3419134   6.092   2.091   7.024  1.1641 -0.6663 -0.8224
  169SAPE   H4X19135   6.001   2.141   6.985  0.3627 -0.4775  1.2043
  169SAPE   H4Y19136   6.158   2.164   7.077 -0.8272  0.1823  0.5370
  169SAPE   C3519137   6.030   2.014   7.144 -0.0462 -0.6511  0.0029
  169SAPE   H5X19138   6.039   1.905   7.123 -0.5054 -0.5994 -0.4751
  169SAPE   H5Y19139   5.922   2.039   7.131 -0.1851 -1.6812 -0.9334
  169SAPE   C3619140   6.069   2.057   7.279  0.0864 -0.2230 -0.1315
  169SAPE   H6X19141   6.074   2.168   7.277 -0.9312 -0.2037 -2.0956
  169SAPE   H6Y19142   6.173   2.022   7.300 -0.3359 -0.7807  1.0982
  169SAPE   C3719143   5.982   2.005   7.398 -0.6942 -0.3007 -0.5869
  169SAPE   H7X19144   5.992   1.894   7.397  3.0395 -0.0349 -2.4224
  169SAPE   H7Y19145   5.877   2.036   7.376 -1.3893 -2.1532 -0.0330
  169SAPE   C3819146   6.039   2.051   7.529 -0.1826  0.0513 -0.1832
  169SAPE   H8X19147   6.076   2.155   7.512 -3.4972  0.9042 -2.7170
  169SAPE   H8Y19148   6.127   1.987   7.552 -0.6624 -0.4161  0.3603
  169SAPE   C3919149   5.949   2.049   7.655 -0.8072  0.1403 -0.7342
  169SAPE   H9X19150   5.915   1.944   7.667  0.9960 -0.6198 -2.0243
  169SAPE   H9Y19151   5.855   2.108   7.641 -2.3946 -1.7882  1.4159
  169SAPE  C31019152   6.012   2.097   7.792 -0.6742  0.4956 -0.0082
  169SAPE  H10X19153   6.057   2.198   7.787 -1.9972  1.0730 -0.7054
  169SAPE  H10Y19154   6.072   2.008   7.818 -1.4606  0.8105  3.0297
  169SAPE  C31119155   5.904   2.104   7.897  0.8740 -0.2599 -0.1399
  169SAPE  H11X19156   5.849   2.007   7.895 -1.4023  0.9343  2.2204
  169SAPE  H11Y19157   5.838   2.187   7.863  0.6424  0.3265  1.6942
  169SAPE  C31219158   5.941   2.132   8.039 -0.0724 -0.7930 -0.8475
  169SAPE  H12X19159   6.016   2.214   8.033 -0.2067 -0.7323 -1.8436
  169SAPE  H12Y19160   5.996   2.043   8.076  1.3407 -0.0941 -1.2122
  169SAPE  C31319161   5.826   2.183   8.124  1.1501  0.6487 -0.9801
  169SAPE  H13X19162   5.749   2.105   8.137  0.5782  1.2357 -0.7926
  169SAPE  H13Y19163   5.776   2.259   8.059 -1.3821  0.8487  1.1410
  169SAPE  C31419164   5.866   2.241   8.262 -0.4043 -1.1183  0.0815
  169SAPE  H14X19165   5.781   2.302   8.300  1.5017  2.1982 -0.8264
  169SAPE  H14Y19166   5.946   2.315   8.242 -2.1264  0.8028  0.2412
  169SAPE  C31519167   5.916   2.136   8.358  0.2769 -0.2916  0.6187
  169SAPE  H15X19168   6.011   2.091   8.320  1.4290  1.7221  1.0109
  169SAPE  H15Y19169   5.845   2.051   8.364 -1.5874  1.2498  0.5554
  169SAPE  C31619170   5.944   2.198   8.502 -0.4724  0.3115 -0.0441
  169SAPE  H16X19171   5.839   2.198   8.539 -0.8538 -2.2173 -1.0187
  169SAPE  H16Y19172   5.967   2.306   8.490 -2.1143  0.8323  1.3047
  169SAPE  C31719173   6.026   2.112   8.601  0.3584 -0.0212  0.0956
  169SAPE  H17X19174   5.979   2.011   8.595 -0.1692  0.0092  2.7758
  169SAPE  H17Y19175   6.009   2.153   8.703 -0.9595  0.3253 -0.2557
  169SAPE  C31819176   6.173   2.116   8.560  0.4807  0.0765 -0.2208
  169SAPE  H18X19177   6.229   2.066   8.642 -1.2363 -0.8885  0.3878
  169SAPE  H18Y19178   6.211   2.219   8.538 -1.2827  0.9924  0.9171
  169SAPE  H18Z19179   6.180   2.058   8.466 -0.9209  1.2050 -1.0500
  170SAPE     N19180   0.058   0.009   6.371 -0.0397  0.3188 -0.7045
  170SAPE   HN119181   0.113   0.026   6.458  0.5596  0.6805 -1.1483
  170SAPE   HN219182   0.127  -0.004   6.295 -1.0579  2.1774 -1.9834
  170SAPE   HN319183   0.011   0.100   6.353  0.6132  0.8120  0.0217
  170SAPE   C1219184  -0.027  -0.112   6.382  0.0164  0.3408 -0.0071
  170SAPE  H12A19185  -0.085  -0.118   6.287 -0.1661 -0.9298  0.1691
  170SAPE  H12B19186  -0.094  -0.098   6.470  0.6840  1.5072  0.3262
  170SAPE   C1119187   0.063  -0.234   6.402  0.0746  0.2627  0.4242
  170SAPE  H11A19188  -0.005  -0.320   6.419  0.1847 -0.5557 -3.0194
  170SAPE  H11B19189   0.112  -0.226   6.502 -2.6999  0.6537  1.7862
  170SAPE     P19190   0.231  -0.368   6.267  0.0485 -0.0731 -0.1517
  170SAPE   O1319191   0.132  -0.481   6.259  0.4545 -0.5359  0.3801
  170SAPE   O1419192   0.315  -0.338   6.153  0.4071 -0.2144  0.0485
  170SAPE   O1219193   0.155  -0.240   6.300 -0.5334 -0.0429 -0.0539
  170SAPE   O1119194   0.311  -0.382   6.402  0.0742 -0.0717  0.2032
  170SAPE    C119195   0.358  -0.502   6.457 -0.2303 -0.5743 -0.1251
  170SAPE    HA19196   0.379  -0.569   6.370 -1.1692  0.0926 -0.8861
  170SAPE    HB19197   0.458  -0.485   6.502  0.2307 -1.4568 -0.7878
  170SAPE    C219198   0.258  -0.551   6.572  0.0329 -0.5097  0.0741
  170SAPE    HS19199   0.164  -0.585   6.524  0.2955 -1.5742  0.2882
  170SAPE   O2119200   0.247  -0.439   6.663 -0.1811  0.0894  0.1073
  170SAPE   C2119201   0.123  -0.432   6.711  0.1079  0.3345  0.2083
  170SAPE   O2219202   0.031  -0.510   6.694 -0.5640  0.0431 -0.0209
  170SAPE   C2219203   0.103  -0.316   6.813  0.0085  0.3624 -0.2000
  170SAPE   H2R19204   0.192  -0.252   6.792 -1.1354  1.2030 -2.6148
  170SAPE   H2S19205   0.006  -0.275   6.776  0.7024  0.7577 -1.6136
  170SAPE    C319206   0.313  -0.679   6.648  0.6197 -0.0499 -0.6737
  170SAPE    HX19207   0.421  -0.659   6.666  0.0162  2.6206  0.1569
  170SAPE    HY19208   0.309  -0.760   6.571  2.1409 -0.5960 -0.2049
  170SAPE   O3119209   0.245  -0.701   6.776  0.1822 -0.1554 -0.0956
  170SAPE   C3119210   0.134  -0.779   6.784 -0.2318 -0.1251 -0.5256
  170SAPE   O3219211   0.084  -0.845   6.695 -0.0204  0.2101  0.2048
  170SAPE   C3219212   0.081  -0.761   6.926  0.2856 -0.0574 -0.2467
  170SAPE   H2X19213  -0.021  -0.719   6.910  0.6451  0.4494 -1.2445
  170SAPE   H2Y19214   0.143  -0.680   6.970 -0.7161 -0.2706  1.5891
  170SAPE   C2319215   0.097  -0.356   6.964  0.3782 -0.8162 -0.1758
  170SAPE   H3R19216   0.032  -0.446   6.967  1.4077 -1.5356  0.6901
  170SAPE   H3S19217   0.058  -0.274   7.028  2.6073  1.3695 -1.5380
  170SAPE   C2419218   0.238  -0.399   7.008 -0.4311  0.3573  0.4205
  170SAPE   H4R19219   0.283  -0.453   6.922  0.2314  0.5909  0.6225
  170SAPE   H4S19220   0.229  -0.463   7.098  2.2606  0.1655  0.5941
  170SAPE   C2519221   0.341  -0.288   7.038 -0.8880  0.1251  0.0694
  170SAPE   H5R19222   0.368  -0.236   6.944 -2.0237  0.1197 -0.2718
  170SAPE   C2619223   0.400  -0.263   7.155  0.4787  0.0730  0.2071
  170SAPE   H6R19224   0.473  -0.182   7.162  1.3197 -0.6614 -0.0109
  170SAPE   C2719225   0.369  -0.327   7.294  0.2149  0.4293 -0.6651
  170SAPE   H7R19226   0.290  -0.404   7.283  1.7424 -1.1599 -0.7773
  170SAPE   H7S19227   0.318  -0.253   7.359  0.0020  0.3836 -0.7822
  170SAPE   C2819228   0.487  -0.385   7.361 -0.2271 -0.3689  0.6770
  170SAPE   H8R19229   0.544  -0.463   7.307  1.1620  1.7607 -1.0389
  170SAPE   C2919230   0.542  -0.340   7.472  0.2916 -0.3284  0.5181
  170SAPE   H9R19231   0.629  -0.399   7.507 -0.9071 -0.8616  2.6682
  170SAPE  C21019232   0.490  -0.222   7.556  0.2926 -0.1755  0.1568
  170SAPE  H10R19233   0.457  -0.135   7.494 -0.5193  0.7168  1.7967
  170SAPE  H10S19234   0.573  -0.173   7.611  0.9152 -0.6585 -0.3531
  170SAPE  C21119235   0.377  -0.256   7.654  0.3223 -0.1434 -0.0750
  170SAPE  H11R19236   0.319  -0.346   7.629 -0.9772  0.4385  0.7807
  170SAPE  C21219237   0.352  -0.184   7.757 -0.2021 -0.2019 -0.2357
  170SAPE  H12R19238   0.271  -0.218   7.824  0.7411 -1.3969  0.3158
  170SAPE  C21319239   0.421  -0.057   7.813  0.5720  0.8646  0.3827
  170SAPE  H13R19240   0.442   0.019   7.736  2.6400  1.4434  1.4928
  170SAPE  H13S19241   0.522  -0.085   7.851  0.0160  2.0173  2.7981
  170SAPE  C21419242   0.337   0.019   7.913 -0.2319 -0.3887 -0.0109
  170SAPE  H14R19243   0.262   0.086   7.870 -0.3004 -0.9037 -0.6945
  170SAPE  C21519244   0.345   0.006   8.048  0.3067  0.0147 -0.6498
  170SAPE  H15R19245   0.275   0.068   8.107  0.2758 -0.2513 -0.4035
  170SAPE  C21619246   0.437  -0.083   8.134  0.4950  0.5619 -0.2725
  170SAPE  H16R19247   0.536  -0.043   8.164  0.4006  1.0734 -0.6483
  170SAPE  H16S19248   0.470  -0.164   8.066 -2.1061  0.6001 -1.6291
  170SAPE  C21719249   0.359  -0.142   8.250  0.7054  0.1913 -0.0824
  170SAPE  H17R19250   0.269  -0.203   8.227  1.0737  0.2635 -1.7948
  170SAPE  H17S19251   0.319  -0.057   8.310 -0.1630 -0.6173  0.4841
  170SAPE  C21819252   0.451  -0.226   8.338  0.2675 -0.1012 -0.5383
  170SAPE  H18R19253   0.399  -0.245   8.434  1.2348  0.4269  0.0984
  170SAPE  H18S19254   0.546  -0.176   8.367 -0.0510 -0.5383  1.3244
  170SAPE  C21919255   0.478  -0.364   8.281 -0.1852 -0.3163 -0.4281
  170SAPE  H19R19256   0.540  -0.343   8.191  1.6793  1.0040  1.1231
  170SAPE  H19S19257   0.381  -0.408   8.251 -0.8407  0.9479 -0.1785
  170SAPE  C22019258   0.558  -0.454   8.373 -0.7974  0.1737 -0.7062
  170SAPE  H20R19259   0.604  -0.533   8.309  0.4551  0.7697 -0.5411
  170SAPE  H20S19260   0.507  -0.491   8.464  3.0230 -2.4831  0.4679
  170SAPE  H20T19261   0.639  -0.395   8.419 -2.6811  3.5179 -1.4897
  170SAPE   C3319262   0.073  -0.886   7.020  0.1537  0.3238  0.1145
  170SAPE   H3X19263   0.165  -0.948   7.018  0.0456  0.1661  0.0620
  170SAPE   H3Y19264  -0.008  -0.946   6.974  0.5454  0.3771 -0.6428
  170SAPE   C3419265   0.035  -0.862   7.167  0.3907 -0.5684 -0.2851
  170SAPE   H4X19266  -0.015  -0.960   7.185  0.9385 -0.9641 -0.9190
  170SAPE   H4Y19267  -0.045  -0.785   7.178 -0.3666 -1.3290 -0.3677
  170SAPE   C3519268   0.150  -0.861   7.269 -0.0248 -0.4873 -0.8744
  170SAPE   H5X19269   0.227  -0.789   7.234 -0.0307  0.0528  0.2204
  170SAPE   H5Y19270   0.210  -0.954   7.263  1.0511  0.0939  0.5848
  170SAPE   C3619271   0.104  -0.814   7.414  0.8568  0.0440 -0.3682
  170SAPE   H6X19272   0.036  -0.889   7.461 -0.4273  1.1273 -0.4829
  170SAPE   H6Y19273   0.043  -0.722   7.406 -1.3978 -1.2128  1.8999
  170SAPE   C3719274   0.231  -0.775   7.503  1.1028  0.4358 -0.6902
  170SAPE   H7X19275   0.278  -0.690   7.448  0.2720  1.5283  0.2639
  170SAPE   H7Y19276   0.309  -0.853   7.490 -1.1043 -1.9094 -0.2664
  170SAPE   C3819277   0.214  -0.727   7.655 -0.0192  0.1113 -0.0990
  170SAPE   H8X19278   0.188  -0.815   7.718  1.8257  0.4008  1.1055
  170SAPE   H8Y19279   0.136  -0.648   7.655 -2.8637 -2.6143 -1.2893
  170SAPE   C3919280   0.341  -0.655   7.694  0.5866 -0.1654 -0.1721
  170SAPE   H9X19281   0.369  -0.581   7.615  1.1830  1.2432  1.3190
  170SAPE   H9Y19282   0.422  -0.730   7.700 -1.0394 -1.9487 -0.0891
  170SAPE  C31019283   0.312  -0.580   7.821 -0.1624 -0.0147  0.1975
  170SAPE  H10X19284   0.240  -0.499   7.796  3.0244  2.0859 -2.6228
  170SAPE  H10Y19285   0.405  -0.533   7.859  0.0704 -0.0795 -0.2840
  170SAPE  C31119286   0.240  -0.656   7.937 -0.8374  0.2678  0.0022
  170SAPE  H11X19287   0.307  -0.734   7.978 -1.0810  0.4662  0.7905
  170SAPE  H11Y19288   0.146  -0.706   7.904 -1.2707 -0.1701  1.8378
  170SAPE  C31219289   0.208  -0.545   8.036 -0.4222  0.2835 -0.2495
  170SAPE  H12X19290   0.156  -0.465   7.980  0.6979  0.4378 -1.0691
  170SAPE  H12Y19291   0.299  -0.508   8.088 -1.0819  0.8265  0.5360
  170SAPE  C31319292   0.113  -0.587   8.150 -0.2976  0.3738 -0.2661
  170SAPE  H13X19293   0.097  -0.485   8.191 -0.2049 -0.1926  1.2055
  170SAPE  H13Y19294   0.165  -0.653   8.223 -2.2077 -0.7195  0.1417
  170SAPE  C31419295  -0.024  -0.632   8.093  0.6259 -0.1609 -0.3813
  170SAPE  H14X19296  -0.009  -0.689   7.999  0.7865 -1.1527  0.2344
  170SAPE  H14Y19297  -0.089  -0.548   8.061  1.2775 -0.1480 -1.7212
  170SAPE  C31519298  -0.098  -0.725   8.186  0.3177 -0.2965 -0.1458
  170SAPE  H15X19299  -0.139  -0.663   8.269 -2.8059 -2.1035 -0.2417
  170SAPE  H15Y19300  -0.041  -0.809   8.231  0.4740  0.4052  0.9900
  170SAPE  C31619301  -0.220  -0.794   8.115  0.4135  0.8540  0.2825
  170SAPE  H16X19302  -0.267  -0.727   8.040 -1.4741 -1.7483 -0.9560
  170SAPE  H16Y19303  -0.300  -0.815   8.190  1.2457 -0.3552  0.8556
  170SAPE  C31719304  -0.193  -0.932   8.050  0.1381 -0.1730 -0.4957
  170SAPE  H17X19305  -0.265  -0.952   7.967  0.0475 -0.8322 -0.2609
  170SAPE  H17Y19306  -0.212  -1.010   8.127 -0.1035 -0.0838 -0.4643
  170SAPE  C31819307  -0.050  -0.946   7.985  0.6133  0.4499 -0.1409
  170SAPE  H18X19308  -0.037  -0.868   7.907  0.4166  1.3674  0.7178
  170SAPE  H18Y19309  -0.028  -1.045   7.941  3.5089  1.4407 -1.0386
  170SAPE  H18Z19310   0.030  -0.925   8.059  0.5144  1.2947 -0.2657
  171SAPE     N19311   2.296   6.573   6.417  0.2538  0.2707 -0.1421
  171SAPE   HN119312   2.246   6.652   6.462  0.4578 -0.5737  1.6029
  171SAPE   HN219313   2.395   6.604   6.417  0.3663 -0.0854  0.1336
  171SAPE   HN319314   2.258   6.555   6.322 -0.6942  1.1571  0.0558
  171SAPE   C1219315   2.276   6.456   6.505  0.4431 -0.8874  0.5880
  171SAPE  H12A19316   2.319   6.473   6.606  1.9072 -1.1775  0.0268
  171SAPE  H12B19317   2.328   6.366   6.465  0.6280 -1.3359  1.7951
  171SAPE   C1119318   2.126   6.418   6.521  0.4028 -0.5890 -0.2626
  171SAPE  H11A19319   2.067   6.504   6.559 -3.4664 -0.8266 -5.2532
  171SAPE  H11B19320   2.122   6.339   6.599  2.4239  1.2277  1.7757
  171SAPE     P19321   2.012   6.242   6.363 -0.2199 -0.2827 -0.0832
  171SAPE   O1319322   1.911   6.257   6.251 -0.0735  0.0795  0.1700
  171SAPE   O1419323   2.128   6.158   6.330  0.3610 -0.1642  0.1797
  171SAPE   O1219324   2.062   6.391   6.392  0.0360 -0.0657  0.0904
  171SAPE   O1119325   1.948   6.187   6.489  0.1676  0.0252  0.4817
  171SAPE    C119326   1.938   6.047   6.520  0.1327 -0.0348  0.3469
  171SAPE    HA19327   1.838   6.004   6.502 -0.2414  0.7588  0.4989
  171SAPE    HB19328   2.005   5.986   6.455  2.6005  1.7005  1.1795
  171SAPE    C219329   1.968   6.019   6.671  0.4830 -0.1461  0.9668
  171SAPE    HS19330   1.917   5.925   6.700  0.3522 -0.1037  0.8768
  171SAPE   O2119331   1.910   6.126   6.751 -0.3466  0.3234 -0.0323
  171SAPE   C2119332   1.779   6.133   6.748  0.1530  0.9016  0.6166
  171SAPE   O2219333   1.700   6.058   6.684  0.4836  0.1551  0.0798
  171SAPE   C2219334   1.742   6.263   6.815  0.7544 -0.2877 -0.4916
  171SAPE   H2R19335   1.799   6.353   6.787 -1.2597  2.2332  3.0537
  171SAPE   H2S19336   1.636   6.289   6.794  0.0751 -2.0784  0.5441
  171SAPE    C319337   2.123   6.024   6.683 -0.2369  0.7265 -0.9662
  171SAPE    HX19338   2.151   6.113   6.623  1.6454  2.0193  1.7720
  171SAPE    HY19339   2.171   5.941   6.627  2.8720  1.4271  0.5933
  171SAPE   O3119340   2.171   6.043   6.811 -0.5602  0.2094 -0.9747
  171SAPE   C3119341   2.189   5.934   6.889 -0.1465 -0.3111  0.5010
  171SAPE   O3219342   2.172   5.820   6.847  0.1090 -0.2436 -0.0605
  171SAPE   C3219343   2.239   5.960   7.032 -0.0635  0.7934  0.0395
  171SAPE   H2X19344   2.178   6.047   7.064 -0.4279  0.1444  1.1693
  171SAPE   H2Y19345   2.348   5.984   7.024 -0.0064  0.7842  0.6987
  171SAPE   C2319346   1.746   6.260   6.970  0.0443  0.0472  0.7516
  171SAPE   H3R19347   1.754   6.364   7.007  2.9039  0.9466 -2.1322
  171SAPE   H3S19348   1.848   6.220   6.990  0.3039 -0.9567 -2.3595
  171SAPE   C2419349   1.637   6.177   7.041 -0.0464  0.3758 -0.7794
  171SAPE   H4R19350   1.540   6.194   6.989  0.0409  1.8490 -0.4844
  171SAPE   H4S19351   1.633   6.218   7.144  0.9937  0.9697 -0.9627
  171SAPE   C2519352   1.664   6.030   7.038 -0.7429  0.3873 -0.0731
  171SAPE   H5R19353   1.645   5.981   6.941  2.3488 -0.8538 -0.0864
  171SAPE   C2619354   1.706   5.946   7.132 -0.4686  0.0329  0.1377
  171SAPE   H6R19355   1.727   5.845   7.094 -2.2421 -0.9813  1.7321
  171SAPE   C2719356   1.736   5.975   7.279  0.3162 -0.1069 -0.1943
  171SAPE   H7R19357   1.676   5.912   7.348 -1.6826  2.9762  0.9751
  171SAPE   H7S19358   1.709   6.079   7.308 -0.6683 -0.2543 -0.5532
  171SAPE   C2819359   1.884   5.953   7.314  0.2408  0.5770  0.6136
  171SAPE   H8R19360   1.946   5.958   7.223 -1.2260  0.9446 -0.3898
  171SAPE   C2919361   1.929   5.937   7.438 -0.7342  0.6159 -0.4213
  171SAPE   H9R19362   2.036   5.916   7.450 -1.0225 -0.7649 -0.1377
  171SAPE  C21019363   1.852   5.931   7.571 -0.4216  0.4618 -1.0833
  171SAPE  H10R19364   1.892   5.855   7.641  1.4209  1.8036 -0.6476
  171SAPE  H10S19365   1.748   5.894   7.561 -0.4822  0.0596  0.8293
  171SAPE  C21119366   1.856   6.070   7.627 -0.4022 -0.1517  0.6260
  171SAPE  H11R19367   1.881   6.146   7.552 -4.4699  0.2674 -0.4004
  171SAPE  C21219368   1.832   6.111   7.756  0.0075 -0.7831  0.1135
  171SAPE  H12R19369   1.832   6.219   7.775 -1.6755 -1.0464  1.7983
  171SAPE  C21319370   1.800   6.020   7.869  0.3241 -0.1547  0.7433
  171SAPE  H13R19371   1.740   5.936   7.829  1.0537 -1.2181  1.8469
  171SAPE  H13S19372   1.739   6.073   7.945  1.8567  0.6951  1.4021
  171SAPE  C21419373   1.932   5.968   7.930 -1.1261  0.6170  0.2830
  171SAPE  H14R19374   1.987   5.898   7.865  2.5116  1.3844  2.3948
  171SAPE  C21519375   1.987   6.007   8.046 -0.1908 -0.5618  0.4071
  171SAPE  H15R19376   2.080   5.957   8.076 -0.7775 -0.9513  1.6216
  171SAPE  C21619377   1.930   6.105   8.148 -0.1485 -0.4943 -0.4957
  171SAPE  H16R19378   1.957   6.068   8.249  0.4690  0.8016 -0.1758
  171SAPE  H16S19379   1.820   6.095   8.158 -0.2258  0.9082  0.1777
  171SAPE  C21719380   1.967   6.248   8.111  0.6223 -0.3270 -0.0823
  171SAPE  H17R19381   1.930   6.279   8.010 -0.5451  1.7153  0.9444
  171SAPE  H17S19382   2.077   6.264   8.102  0.5096  0.4848 -0.0917
  171SAPE  C21819383   1.903   6.351   8.210 -0.9176 -0.0684 -0.2554
  171SAPE  H18R19384   1.958   6.360   8.306  0.4242 -1.2881 -0.8868
  171SAPE  H18S19385   1.794   6.333   8.218 -0.7181 -1.3980 -0.4757
  171SAPE  C21919386   1.924   6.497   8.155  0.1971  0.5637  0.2986
  171SAPE  H19R19387   1.931   6.508   8.044  0.1029 -2.7887 -0.0874
  171SAPE  H19S19388   2.026   6.526   8.186  1.6904  0.2736 -3.9838
  171SAPE  C22019389   1.820   6.602   8.197 -0.2647 -0.0957 -0.0136
  171SAPE  H20R19390   1.852   6.700   8.155 -1.2270  0.2095 -0.0390
  171SAPE  H20S19391   1.802   6.598   8.307 -0.2009 -2.9341 -0.0637
  171SAPE  H20T19392   1.724   6.574   8.149  0.1547 -0.6545 -0.5313
  171SAPE   C3319393   2.228   5.834   7.115 -0.1136 -0.2851  0.4764
  171SAPE   H3X19394   2.294   5.761   7.064 -0.2047 -0.0817  0.0598
  171SAPE   H3Y19395   2.127   5.789   7.111 -1.4220  2.5477 -0.1147
  171SAPE   C3419396   2.272   5.856   7.260 -0.8872  0.6989  0.2172
  171SAPE   H4X19397   2.281   5.759   7.313  0.4918  1.1934  0.9090
  171SAPE   H4Y19398   2.189   5.910   7.312 -2.6891 -2.6597  0.9501
  171SAPE   C3519399   2.421   5.907   7.264  0.6462  0.2011  0.5444
  171SAPE   H5X19400   2.428   6.017   7.253 -2.4347  0.7480  3.2268
  171SAPE   H5Y19401   2.477   5.846   7.190 -0.5794 -0.3425  0.0517
  171SAPE   C3619402   2.474   5.865   7.403  0.3378  0.1168 -0.4829
  171SAPE   H6X19403   2.583   5.886   7.403  0.7374 -1.8338  1.9018
  171SAPE   H6Y19404   2.457   5.758   7.425  0.2590  0.1199 -0.5263
  171SAPE   C3719405   2.422   5.944   7.523  0.0882 -0.0883  0.2176
  171SAPE   H7X19406   2.480   5.912   7.612  2.8579 -0.0711 -1.5195
  171SAPE   H7Y19407   2.327   5.893   7.548  0.9213 -0.5701  2.5421
  171SAPE   C3819408   2.435   6.096   7.521  0.4646 -0.1677  0.0581
  171SAPE   H8X19409   2.368   6.134   7.441 -1.4711 -2.0099  0.7716
  171SAPE   H8Y19410   2.542   6.115   7.495 -0.0353 -0.0889 -2.0644
  171SAPE   C3919411   2.403   6.171   7.647 -0.0208  0.3619  0.2204
  171SAPE   H9X19412   2.302   6.136   7.676  0.1581 -1.0447 -0.7979
  171SAPE   H9Y19413   2.399   6.280   7.625  0.9052  0.2231 -0.6543
  171SAPE  C31019414   2.509   6.146   7.756 -0.4435  0.0519 -0.2658
  171SAPE  H10X19415   2.607   6.177   7.712  0.3969 -0.1228  1.4446
  171SAPE  H10Y19416   2.495   6.044   7.798 -0.2516  0.6420  1.2380
  171SAPE  C31119417   2.493   6.235   7.879  0.3164 -0.6818 -0.0539
  171SAPE  H11X19418   2.389   6.228   7.916 -0.0698  0.3819 -0.8961
  171SAPE  H11Y19419   2.504   6.339   7.842 -1.3581  0.4636  2.5925
  171SAPE  C31219420   2.589   6.201   8.000 -0.6083 -0.2080  0.2449
  171SAPE  H12X19421   2.693   6.238   7.983 -0.8417  0.0652 -0.6494
  171SAPE  H12Y19422   2.605   6.091   8.000 -0.1224 -0.1387  0.9029
  171SAPE  C31319423   2.533   6.259   8.127 -0.2419  0.1587  0.3241
  171SAPE  H13X19424   2.423   6.248   8.134 -0.2025 -1.2080 -1.0117
  171SAPE  H13Y19425   2.567   6.365   8.129 -0.4664  0.2753 -1.6802
  171SAPE  C31419426   2.602   6.195   8.252 -0.2659 -0.2979 -0.5018
  171SAPE  H14X19427   2.561   6.093   8.268 -0.6624 -0.0326  0.1792
  171SAPE  H14Y19428   2.572   6.257   8.339  0.2907 -0.9069  0.1186
  171SAPE  C31519429   2.751   6.172   8.239 -0.2229  0.5199 -0.1557
  171SAPE  H15X19430   2.775   6.111   8.150  0.6215 -0.1898  0.5471
  171SAPE  H15Y19431   2.786   6.117   8.329 -0.5725  0.0153 -0.3277
  171SAPE  C31619432   2.842   6.297   8.233 -0.0539 -1.2406  0.1267
  171SAPE  H16X19433   2.833   6.353   8.329  0.7866 -0.0032 -0.4997
  171SAPE  H16Y19434   2.811   6.362   8.149  0.6590  0.0668  0.8480
  171SAPE  C31719435   2.991   6.270   8.209 -0.4001 -0.1968  0.9707
  171SAPE  H17X19436   3.004   6.213   8.114 -1.3531  0.7835  0.2491
  171SAPE  H17Y19437   3.018   6.198   8.290 -2.1392 -1.6744  0.2696
  171SAPE  C31819438   3.077   6.394   8.201 -0.3731  0.3310  0.3678
  171SAPE  H18X19439   3.024   6.475   8.146 -1.8921 -1.1098 -0.3160
  171SAPE  H18Y19440   3.175   6.363   8.158 -0.5622 -2.8483  2.0982
  171SAPE  H18Z19441   3.095   6.441   8.300 -0.2380  0.7319  0.1584
  172SAPE     N19442   0.759   4.763   6.494  0.1129  0.1596 -0.1782
  172SAPE   HN119443   0.745   4.682   6.430  2.6587  1.0757 -1.9759
  172SAPE   HN219444   0.762   4.742   6.596  0.1515 -0.2203 -0.2575
  172SAPE   HN319445   0.669   4.811   6.471 -1.4131 -1.3825  2.3421
  172SAPE   C1219446   0.872   4.853   6.458  0.8842  0.5160 -0.3729
  172SAPE  H12A19447   0.888   4.919   6.546 -1.2427 -1.1070  1.2884
  172SAPE  H12B19448   0.857   4.899   6.358  2.4461 -0.0358 -0.8779
  172SAPE   C1119449   1.001   4.777   6.447  0.1572 -0.4009  0.6143
  172SAPE  H11A19450   0.981   4.680   6.396 -2.9007  0.3674  0.2900
  172SAPE  H11B19451   1.031   4.757   6.552 -1.6146  1.8998  1.6005
  172SAPE     P19452   1.213   4.940   6.454 -0.2364 -0.5973 -0.5836
  172SAPE   O1319453   1.318   4.845   6.489  0.2302 -0.4872 -0.0483
  172SAPE   O1419454   1.250   5.050   6.367 -0.1908  0.6676 -1.0477
  172SAPE   O1219455   1.102   4.855   6.379  0.2065  0.3642 -0.4997
  172SAPE   O1119456   1.150   4.993   6.587 -0.5936  0.6705  0.6073
  172SAPE    C119457   1.202   5.114   6.648 -0.1322  0.6176  0.6060
  172SAPE    HA19458   1.310   5.129   6.630 -0.3450 -0.2002 -1.4500
  172SAPE    HB19459   1.142   5.202   6.616  0.6391  0.4228 -1.4213
  172SAPE    C219460   1.175   5.102   6.803  0.0332  0.4079  0.2647
  172SAPE    HS19461   1.202   5.195   6.857 -1.0537  0.7684  0.1928
  172SAPE   O2119462   1.229   4.983   6.861 -0.2280  0.0505 -0.2041
  172SAPE   C2119463   1.361   4.978   6.862  1.0353  0.2599 -1.2363
  172SAPE   O2219464   1.436   5.067   6.841 -0.1276 -0.0178 -0.0447
  172SAPE   C2219465   1.381   4.831   6.902 -0.4013  0.3918  0.0235
  172SAPE   H2R19466   1.294   4.797   6.963 -0.7955 -2.4357 -2.0016
  172SAPE   H2S19467   1.382   4.770   6.809 -0.7172  0.7452 -0.2146
  172SAPE    C319468   1.027   5.083   6.818  0.1335  0.1088 -0.3647
  172SAPE    HX19469   1.013   4.975   6.797  0.4978 -0.0332  0.1280
  172SAPE    HY19470   0.968   5.136   6.740  0.0420 -0.4479 -0.6772
  172SAPE   O3119471   0.982   5.132   6.950  0.5046 -0.0464 -0.0021
  172SAPE   C3119472   0.853   5.115   6.977  0.5004 -0.1707 -0.2788
  172SAPE   O3219473   0.774   5.067   6.903  0.4017  0.1012  0.5300
  172SAPE   C3219474   0.816   5.189   7.109  0.4298 -0.0014  0.6153
  172SAPE   H2X19475   0.908   5.239   7.146  1.5508 -1.9379  0.4842
  172SAPE   H2Y19476   0.787   5.110   7.181  2.7928 -1.8155 -0.3538
  172SAPE   C2319477   1.516   4.803   6.980  0.4799 -0.6258 -0.5951
  172SAPE   H3R19478   1.517   4.890   7.050 -0.8673 -0.7048 -0.4571
  172SAPE   H3S19479   1.599   4.799   6.907 -0.0834 -1.4149 -1.2123
  172SAPE   C2419480   1.508   4.673   7.064  0.5025 -0.4611 -0.2948
  172SAPE   H4R19481   1.504   4.590   6.990 -0.7649  0.0774 -0.8563
  172SAPE   H4S19482   1.411   4.657   7.115  1.3404 -0.2204  1.3774
  172SAPE   C2519483   1.628   4.673   7.159 -0.1756  0.0307  0.3946
  172SAPE   H5R19484   1.722   4.645   7.109 -0.3923  0.4313 -0.2410
  172SAPE   C2619485   1.628   4.695   7.292 -0.7722  0.8091 -0.2303
  172SAPE   H6R19486   1.719   4.712   7.350 -0.9020 -0.5659  0.3889
  172SAPE   C2719487   1.513   4.738   7.373 -0.0130  0.4427  0.0192
  172SAPE   H7R19488   1.435   4.802   7.327 -1.7653 -1.1386  0.7200
  172SAPE   H7S19489   1.542   4.806   7.456  0.6651  0.8981 -0.5835
  172SAPE   C2819490   1.441   4.623   7.442  0.8416  0.0549  0.3001
  172SAPE   H8R19491   1.444   4.536   7.374  1.1915  0.4009 -0.1319
  172SAPE   C2919492   1.379   4.609   7.560 -0.0191 -0.8780 -0.4958
  172SAPE   H9R19493   1.350   4.511   7.602 -1.5987 -0.0907  0.3108
  172SAPE  C21019494   1.370   4.712   7.677  0.4494  0.0091 -0.4860
  172SAPE  H10R19495   1.456   4.781   7.690 -0.6124  1.5109 -1.2154
  172SAPE  H10S19496   1.362   4.662   7.776 -0.6490  1.5064  0.2137
  172SAPE  C21119497   1.239   4.794   7.675  0.1906 -0.2145  0.6187
  172SAPE  H11R19498   1.223   4.837   7.575 -2.7550 -1.1805  0.6293
  172SAPE  C21219499   1.156   4.834   7.774  0.0252  0.1233  0.0544
  172SAPE  H12R19500   1.063   4.889   7.753  0.6230  1.6039  1.1616
  172SAPE  C21319501   1.176   4.803   7.925 -0.2640 -0.4068 -0.0020
  172SAPE  H13R19502   1.162   4.693   7.931 -2.3923 -0.0968  1.3591
  172SAPE  H13S19503   1.090   4.844   7.982  0.9086  2.1816 -0.0268
  172SAPE  C21419504   1.302   4.868   7.976 -0.1954  0.6823  0.2199
  172SAPE  H14R19505   1.394   4.830   7.928  0.7244  1.0447  1.6777
  172SAPE  C21519506   1.316   4.951   8.083  0.5703  0.3456 -0.3028
  172SAPE  H15R19507   1.416   4.993   8.102  0.5200  0.9850 -1.4455
  172SAPE  C21619508   1.205   5.003   8.173 -0.3928 -0.0951 -0.4197
  172SAPE  H16R19509   1.130   4.922   8.165 -0.5810 -0.2245  2.0625
  172SAPE  H16S19510   1.164   5.103   8.150  3.3267  1.4667 -0.6126
  172SAPE  C21719511   1.254   4.993   8.320  0.3518 -0.1526  0.2003
  172SAPE  H17R19512   1.175   5.035   8.385  0.8353  2.2723 -0.7373
  172SAPE  H17S19513   1.347   5.052   8.336 -1.0501  1.7829  1.4010
  172SAPE  C21819514   1.295   4.851   8.370  0.6679  0.2714 -0.0803
  172SAPE  H18R19515   1.382   4.816   8.311  0.9565  0.8374 -0.0003
  172SAPE  H18S19516   1.220   4.770   8.359  1.8538 -0.9055  0.3121
  172SAPE  C21919517   1.325   4.849   8.523 -0.3900  0.7416  0.4563
  172SAPE  H19R19518   1.237   4.877   8.585 -1.3624 -0.0444 -0.5449
  172SAPE  H19S19519   1.404   4.923   8.546  1.1339 -0.2151 -1.5351
  172SAPE  C22019520   1.374   4.710   8.576  0.6418 -0.2313  0.4669
  172SAPE  H20R19521   1.454   4.682   8.503  0.0569 -1.2715  0.2027
  172SAPE  H20S19522   1.294   4.633   8.584 -0.2963  0.6732 -0.0804
  172SAPE  H20T19523   1.424   4.715   8.675  1.6171 -0.1129 -0.0301
  172SAPE   C3319524   0.708   5.294   7.096 -0.4972  0.6011  0.9039
  172SAPE   H3X19525   0.628   5.249   7.033  0.6090 -0.8915  0.5364
  172SAPE   H3Y19526   0.740   5.384   7.038 -0.8344  1.5234  2.1362
  172SAPE   C3419527   0.654   5.344   7.232 -0.6803  0.3426  0.5841
  172SAPE   H4X19528   0.643   5.256   7.299  1.4692 -0.5047 -0.1425
  172SAPE   H4Y19529   0.553   5.384   7.210 -1.4571 -1.7625  0.1394
  172SAPE   C3519530   0.749   5.434   7.308 -0.4057  0.0580  0.1891
  172SAPE   H5X19531   0.750   5.530   7.251 -2.3464 -1.4673 -2.5441
  172SAPE   H5Y19532   0.848   5.384   7.316 -0.4241  0.4589  3.5566
  172SAPE   C3619533   0.706   5.470   7.451 -0.0661 -0.0083 -0.4391
  172SAPE   H6X19534   0.656   5.380   7.493  1.0011 -0.6575 -0.5514
  172SAPE   H6Y19535   0.628   5.548   7.437 -0.1195 -0.0235 -0.2238
  172SAPE   C3719536   0.819   5.523   7.540  0.1706 -0.7141 -0.2915
  172SAPE   H7X19537   0.869   5.606   7.485 -1.6566  2.0154  2.0327
  172SAPE   H7Y19538   0.892   5.441   7.555 -0.7170 -2.2954 -4.0628
  172SAPE   C3819539   0.779   5.588   7.673  0.3046  0.1368 -0.5185
  172SAPE   H8X19540   0.726   5.504   7.722 -0.7808  0.7048 -0.6934
  172SAPE   H8Y19541   0.714   5.672   7.640  1.8392  1.1843 -0.8857
  172SAPE   C3919542   0.897   5.648   7.750 -1.0312  0.4220  0.7669
  172SAPE   H9X19543   0.946   5.719   7.680 -1.1845  1.6131  1.8576
  172SAPE   H9Y19544   0.964   5.561   7.770 -0.4385  0.4934 -0.8060
  172SAPE  C31019545   0.855   5.727   7.867  0.2837  0.3643  0.3695
  172SAPE  H10X19546   0.770   5.675   7.917  0.0473  2.2525  1.9590
  172SAPE  H10Y19547   0.812   5.825   7.836  0.3699 -0.2253 -1.7484
  172SAPE  C31119548   0.967   5.713   7.973 -0.1364 -0.7225 -0.1949
  172SAPE  H11X19549   1.059   5.762   7.934 -0.8026  0.5074 -0.2583
  172SAPE  H11Y19550   0.986   5.607   7.998  0.1474 -0.1643  2.1015
  172SAPE  C31219551   0.936   5.782   8.112 -0.0554  0.2063 -0.2612
  172SAPE  H12X19552   0.830   5.767   8.142  0.6504 -0.8101  1.8442
  172SAPE  H12Y19553   0.951   5.889   8.088 -1.6614  0.2778 -1.0305
  172SAPE  C31319554   1.035   5.750   8.228 -0.3475  0.0046 -1.0971
  172SAPE  H13X19555   1.133   5.763   8.178  0.3647 -1.3917 -0.0842
  172SAPE  H13Y19556   1.024   5.641   8.249 -3.2488  0.8417  2.1895
  172SAPE  C31419557   1.016   5.829   8.354  0.2824 -0.1318 -0.3892
  172SAPE  H14X19558   1.070   5.778   8.436 -2.3724 -1.5111  0.5549
  172SAPE  H14Y19559   0.911   5.830   8.388  0.7343  2.4937  1.1077
  172SAPE  C31519560   1.047   5.980   8.344 -0.4205 -0.7450 -0.1393
  172SAPE  H15X19561   0.947   6.025   8.322 -1.8578 -3.7499 -0.0387
  172SAPE  H15Y19562   1.121   5.998   8.263 -1.8360 -1.1978 -1.5583
  172SAPE  C31619563   1.099   6.045   8.475 -1.0728 -0.0509 -0.4606
  172SAPE  H16X19564   1.192   5.989   8.495  0.0291  1.2337 -1.9211
  172SAPE  H16Y19565   1.022   6.013   8.549  0.5733  0.3412  1.4450
  172SAPE  C31719566   1.134   6.195   8.479  0.1714 -0.4951  0.3989
  172SAPE  H17X19567   1.050   6.249   8.430  0.0096  0.8928  2.1567
  172SAPE  H17Y19568   1.221   6.214   8.413  1.3957 -0.0572  2.1137
  172SAPE  C31819569   1.184   6.252   8.609  0.3061 -0.3240 -0.2112
  172SAPE  H18X19570   1.097   6.282   8.672 -2.1943 -1.3474 -3.0624
  172SAPE  H18Y19571   1.240   6.348   8.598 -2.7139  1.7013  1.3652
  172SAPE  H18Z19572   1.247   6.179   8.664 -0.2854  1.7078  3.3757
  173SOPE     N19573   0.895   2.745  10.833  0.0315  0.4961 -0.5150
  173SOPE   HN119574   0.917   2.845  10.812  0.9703  0.6196  0.9205
  173SOPE   HN219575   0.821   2.723  10.764 -0.2809  0.8005 -0.2798
  173SOPE   HN319576   0.862   2.725  10.930 -0.5401  2.6684 -0.2273
  173SOPE   C1219577   1.022   2.659  10.810  0.1380  0.1187  0.4233
  173SOPE  H12A19578   1.048   2.665  10.702  0.3600  1.3649  0.5411
  173SOPE  H12B19579   0.997   2.553  10.835  0.0795  0.2833  1.0795
  173SOPE   C1119580   1.142   2.714  10.892 -0.6015  0.2669 -0.6934
  173SOPE  H11A19581   1.230   2.668  10.843 -1.3533 -0.7744 -1.0813
  173SOPE  H11B19582   1.125   2.672  10.994 -0.3689  1.2456 -0.2442
  173SOPE     P19583   1.300   2.922  10.912  0.1705  0.3096  0.4585
  173SOPE   O1319584   1.384   2.844  11.004  0.6450 -0.0096 -0.3680
  173SOPE   O1419585   1.297   3.070  10.935  0.0263  0.2319 -0.6134
  173SOPE   O1219586   1.148   2.862  10.902  0.3758 -0.2876 -0.5927
  173SOPE   O1119587   1.361   2.879  10.770 -0.3230 -0.0238 -0.3987
  173SOPE    C119588   1.315   2.937  10.648  0.5235 -0.6560  0.3017
  173SOPE    HA19589   1.323   3.048  10.640 -0.1406 -0.6058  0.2750
  173SOPE    HB19590   1.206   2.916  10.635  0.3414  0.7261 -0.5375
  173SOPE    C219591   1.377   2.883  10.512  0.3285  0.4656 -0.1939
  173SOPE    HS19592   1.302   2.881  10.430 -0.6958  2.9600  0.6484
  173SOPE   O2119593   1.431   2.755  10.533  0.0889  0.3043 -0.1876
  173SOPE   C2119594   1.349   2.653  10.549  0.6415 -0.0589  0.5551
  173SOPE   O2219595   1.228   2.664  10.529  0.1284 -0.3491  0.2277
  173SOPE   C2219596   1.438   2.527  10.587  0.0308 -0.6422 -0.2438
  173SOPE   H2R19597   1.378   2.440  10.555  1.1288 -1.5315  0.0881
  173SOPE   H2S19598   1.464   2.533  10.695  2.4495  1.4393 -0.9064
  173SOPE    C319599   1.491   2.974  10.474  0.0896 -0.1197 -0.3376
  173SOPE    HX19600   1.574   2.966  10.548  2.4856  1.7984 -2.7047
  173SOPE    HY19601   1.441   3.073  10.472  1.4601  0.5777 -1.3620
  173SOPE   O3119602   1.525   2.960  10.337 -0.0689  0.3749 -0.2597
  173SOPE   C3119603   1.641   2.896  10.312 -0.1980 -0.4754 -0.4987
  173SOPE   O3219604   1.715   2.846  10.394 -0.0056  0.7008  0.6053
  173SOPE   C3219605   1.656   2.882  10.163 -0.0543 -0.1070  1.2175
  173SOPE   H2X19606   1.748   2.832  10.127 -0.9939 -2.2546  1.7289
  173SOPE   H2Y19607   1.660   2.985  10.120 -3.9308  0.0348  1.0390
  173SOPE   C2319608   1.575   2.526  10.515  0.3744  0.6677 -0.3742
  173SOPE   H3R19609   1.641   2.445  10.553 -0.5893  0.5212  0.9972
  173SOPE   H3S19610   1.625   2.621  10.542  2.8181 -0.9046  0.8048
  173SOPE   C2419611   1.567   2.512  10.365  0.5879 -0.6806  0.6452
  173SOPE   H4R19612   1.511   2.419  10.342 -0.4413  0.2541 -0.7997
  173SOPE   H4S19613   1.498   2.592  10.330 -1.9489 -2.3389  1.7193
  173SOPE   C2519614   1.702   2.514  10.298 -0.4507  0.2384 -0.2367
  173SOPE   H5R19615   1.682   2.491  10.191  4.4511  0.0484 -1.2354
  173SOPE   H5S19616   1.736   2.620  10.308 -0.6865  0.1838  1.2259
  173SOPE   C2619617   1.805   2.412  10.347 -0.5956  0.3964  0.0732
  173SOPE   H6R19618   1.896   2.425  10.284 -1.8407  2.4924 -1.3939
  173SOPE   H6S19619   1.826   2.422  10.455 -0.2109 -2.0334  0.2422
  173SOPE   C2719620   1.756   2.267  10.332 -0.5043 -0.2240  0.4704
  173SOPE   H7R19621   1.827   2.195  10.379  0.5173  2.1363  2.6545
  173SOPE   H7S19622   1.663   2.253  10.390 -0.4057 -0.1108  0.6558
  173SOPE   C2819623   1.749   2.230  10.177 -0.3591 -0.0157  1.0198
  173SOPE   H8R19624   1.692   2.135  10.174 -1.3068  0.5993 -2.0627
  173SOPE   H8S19625   1.670   2.293  10.132 -1.1529 -0.2804  2.0267
  173SOPE   C2919626   1.878   2.222  10.092  0.2827 -0.1631  0.1070
  173SOPE   H9119627   1.959   2.169  10.144  0.7577 -0.0841 -0.5541
  173SOPE  C21019628   1.889   2.281   9.970  0.2020  0.0548 -0.4464
  173SOPE  H10119629   1.983   2.283   9.913  1.3884  0.4924  1.4867
  173SOPE  C21119630   1.781   2.359   9.900  0.7102  0.3726  0.6009
  173SOPE  H11R19631   1.804   2.466   9.886 -0.4192  0.2862 -2.3905
  173SOPE  H11S19632   1.684   2.343   9.952  0.7326  0.6860  0.7394
  173SOPE  C21219633   1.778   2.304   9.757 -0.0647  0.1568 -0.5608
  173SOPE  H12R19634   1.687   2.347   9.708  0.7469  2.2588 -0.2610
  173SOPE  H12S19635   1.747   2.197   9.759  2.2743 -0.5154  0.5567
  173SOPE  C21319636   1.895   2.341   9.668 -0.1478  0.4387 -0.2344
  173SOPE  H13R19637   1.978   2.272   9.693 -0.2512  0.4771  0.2135
  173SOPE  H13S19638   1.934   2.445   9.681 -2.1284  0.9961  1.5417
  173SOPE  C21419639   1.860   2.354   9.514  0.7138 -0.1573 -0.2335
  173SOPE  H14R19640   1.769   2.416   9.500 -0.7475 -2.2959 -0.4484
  173SOPE  H14S19641   1.836   2.252   9.477 -1.5139 -0.7227  2.6179
  173SOPE  C21519642   1.973   2.427   9.427 -0.4227  0.5297  1.1233
  173SOPE  H15R19643   2.070   2.374   9.442  0.0537  1.0604 -0.0738
  173SOPE  H15S19644   1.976   2.531   9.465  1.5268  0.8583  0.1302
  173SOPE  C21619645   1.936   2.437   9.280  0.1270 -0.3995 -0.6089
  173SOPE  H16R19646   1.838   2.483   9.256  0.2455 -0.9604 -2.2438
  173SOPE  H16S19647   1.931   2.331   9.248 -1.8410 -0.1522 -1.1764
  173SOPE  C21719648   2.041   2.507   9.180 -0.4392  0.0735 -0.3389
  173SOPE  H17R19649   2.143   2.507   9.224 -0.1099 -1.8715 -1.0376
  173SOPE  H17S19650   2.011   2.611   9.156 -1.1975 -0.1135 -0.2333
  173SOPE  C21819651   2.048   2.418   9.056 -0.7026 -0.2092 -0.1858
  173SOPE  H18R19652   2.101   2.474   8.976 -1.2580  0.1840 -0.2861
  173SOPE  H18S19653   1.944   2.400   9.022 -1.2385 -1.1301  1.8606
  173SOPE  H18T19654   2.090   2.317   9.073  0.4275  0.4976  1.3363
  173SOPE   C3319655   1.538   2.815  10.093  0.1600 -0.7863  0.2388
  173SOPE   H3X19656   1.442   2.867  10.114  1.6667  2.4896 -0.5974
  173SOPE   H3Y19657   1.521   2.709  10.123  0.5403 -0.1918  2.6421
  173SOPE   C3419658   1.545   2.827   9.940  0.5624 -0.1265 -0.3636
  173SOPE   H4X19659   1.608   2.913   9.910 -1.7524  2.1295  1.0243
  173SOPE   H4Y19660   1.446   2.833   9.891 -0.6756  0.4751  2.1490
  173SOPE   C3519661   1.619   2.705   9.879 -0.0483  0.2107  0.0119
  173SOPE   H5X19662   1.552   2.617   9.891 -3.0714  2.5363  0.6948
  173SOPE   H5Y19663   1.716   2.690   9.933 -0.9813 -0.8345  1.4346
  173SOPE   C3619664   1.645   2.721   9.733 -0.2788 -0.2175  0.2060
  173SOPE   H6X19665   1.723   2.647   9.707 -1.2697 -1.7243  1.5020
  173SOPE   H6Y19666   1.688   2.819   9.703  0.6965 -0.3353  1.2114
  173SOPE   C3719667   1.528   2.677   9.647 -0.0402  0.0965  0.3690
  173SOPE   H7X19668   1.437   2.741   9.651 -0.9988 -1.1344 -0.8573
  173SOPE   H7Y19669   1.498   2.574   9.676 -0.6976  0.6615  1.7472
  173SOPE   C3819670   1.567   2.660   9.499  0.9825 -0.4288 -0.5252
  173SOPE   H8X19671   1.665   2.611   9.483  1.3520 -0.9487  2.9807
  173SOPE   H8Y19672   1.583   2.766   9.471  2.5036 -0.7372 -0.8391
  173SOPE   C3919673   1.460   2.585   9.412  0.4261 -0.1745 -0.1785
  173SOPE   H9X19674   1.374   2.655   9.408  1.4734  1.2247  1.4446
  173SOPE   H9Y19675   1.428   2.496   9.470  1.3718 -0.4711 -0.1000
  173SOPE  C31019676   1.493   2.534   9.273 -0.6888  0.0117 -0.2995
  173SOPE  H10X19677   1.396   2.496   9.235 -0.0736  0.2685 -2.1926
  173SOPE  H10Y19678   1.558   2.444   9.283  0.2830  0.5365 -1.6883
  173SOPE  C31119679   1.533   2.642   9.173 -1.1966  0.7731 -0.5777
  173SOPE  H11X19680   1.620   2.692   9.222  1.1230 -0.4380 -3.3552
  173SOPE  H11Y19681   1.453   2.718   9.171  0.4256  2.4933 -2.6533
  173SOPE  C31219682   1.578   2.592   9.036 -0.4361 -0.5725 -0.6540
  173SOPE  H12X19683   1.684   2.558   9.035 -0.9884 -2.3712  0.3887
  173SOPE  H12Y19684   1.587   2.663   8.951  0.8031  0.0831  0.0154
  173SOPE  C31319685   1.479   2.485   8.993 -0.1156  0.3434  0.0153
  173SOPE  H13X19686   1.377   2.527   9.009  0.0175 -0.2449  2.5887
  173SOPE  H13Y19687   1.471   2.392   9.053  0.8283  0.0766 -0.2571
  173SOPE  C31419688   1.480   2.451   8.845 -0.5678 -0.2328  0.5527
  173SOPE  H14X19689   1.584   2.438   8.807 -0.7252  2.5649 -0.9990
  173SOPE  H14Y19690   1.440   2.543   8.797  1.8952  0.2279 -0.7289
  173SOPE  C31519691   1.390   2.331   8.807 -0.7316  0.0630 -0.0348
  173SOPE  H15X19692   1.294   2.333   8.864 -1.3815 -1.6147 -1.0532
  173SOPE  H15Y19693   1.436   2.235   8.837  1.0433  1.1252  0.6935
  173SOPE  C31619694   1.352   2.331   8.657 -0.2069  0.2563 -0.3823
  173SOPE  H16X19695   1.316   2.229   8.630  1.1754 -0.3483  0.0314
  173SOPE  H16Y19696   1.452   2.349   8.612 -0.4025  0.1478 -0.8694
  173SOPE  C31719697   1.254   2.435   8.605  0.4287  0.3427  0.3353
  173SOPE  H17X19698   1.247   2.428   8.494 -2.5323  0.0402  0.4983
  173SOPE  H17Y19699   1.293   2.537   8.628  2.2595 -0.6881  1.8995
  173SOPE  C31819700   1.113   2.412   8.656  0.0180  0.0096  0.6204
  173SOPE  H18X19701   1.085   2.470   8.747  1.3006  1.8173 -0.1155
  173SOPE  H18Y19702   1.089   2.303   8.656 -3.2899  0.6410 -2.1594
  173SOPE  H18Z19703   1.057   2.462   8.574 -1.7005 -2.4985  0.1754
  174SOPE     N19704   0.576   1.681  10.618  0.7464  0.0363  0.4091
  174SOPE   HN119705   0.662   1.658  10.672  2.3194  1.5682 -1.3832
  174SOPE   HN219706   0.499   1.709  10.683 -0.6199  0.7669 -1.4889
  174SOPE   HN319707   0.547   1.600  10.559  1.2309 -1.0053  1.5821
  174SOPE   C1219708   0.624   1.789  10.530  0.5086 -0.4167 -0.1362
  174SOPE  H12A19709   0.552   1.807  10.448  1.0899  1.6678 -0.2322
  174SOPE  H12B19710   0.718   1.739  10.496  1.2369 -0.5116  1.9020
  174SOPE   C1119711   0.634   1.919  10.611 -0.5023 -0.0147  0.4794
  174SOPE  H11A19712   0.538   1.971  10.594 -0.9143 -0.4745  1.3732
  174SOPE  H11B19713   0.714   1.988  10.576 -0.3174 -0.3553  0.2279
  174SOPE     P19714   0.683   2.016  10.847 -0.1482  0.0948 -0.5645
  174SOPE   O1319715   0.670   1.967  10.990  0.2301 -0.1640 -0.0700
  174SOPE   O1419716   0.612   2.140  10.814  0.3711 -0.1261  0.0144
  174SOPE   O1219717   0.651   1.894  10.752 -0.0969  0.0440  0.1951
  174SOPE   O1119718   0.832   2.051  10.814 -0.5917  0.4379 -0.0457
  174SOPE    C119719   0.924   1.941  10.790 -0.0110 -0.5606  0.1377
  174SOPE    HA19720   0.896   1.888  10.697 -0.8126 -0.9696  0.6066
  174SOPE    HB19721   0.936   1.872  10.876  0.8443  1.1921  1.4634
  174SOPE    C219722   1.068   1.995  10.766  0.2062  0.3432  0.6068
  174SOPE    HS19723   1.104   2.053  10.853 -0.0739  1.3618  0.0420
  174SOPE   O2119724   1.053   2.069  10.644  0.1107  0.3646  0.4614
  174SOPE   C2119725   1.051   2.200  10.652  0.1826 -0.0907  0.3973
  174SOPE   O2219726   1.087   2.264  10.748  0.1255  0.4925 -0.2994
  174SOPE   C2219727   0.975   2.270  10.548  0.7378  0.2581  0.4023
  174SOPE   H2R19728   0.892   2.327  10.594  0.9969  0.2880  0.8336
  174SOPE   H2S19729   0.920   2.199  10.482 -0.1374  0.9839  0.3539
  174SOPE    C319730   1.179   1.889  10.751  0.1954  0.3574  0.2044
  174SOPE    HX19731   1.148   1.808  10.682  1.7310 -0.2955  0.2431
  174SOPE    HY19732   1.193   1.844  10.852  3.2460 -1.2054 -0.8453
  174SOPE   O3119733   1.306   1.942  10.688  0.1869 -0.4436 -0.3208
  174SOPE   C3119734   1.415   1.965  10.769 -0.2627  0.1833  0.1062
  174SOPE   O3219735   1.421   1.943  10.887  0.1880  0.2816  0.0562
  174SOPE   C3219736   1.525   2.012  10.674 -0.2304  1.1361  0.2850
  174SOPE   H2X19737   1.546   1.922  10.613 -0.7538  1.0176  0.2768
  174SOPE   H2Y19738   1.614   2.023  10.738 -0.7450 -0.5275  1.3178
  174SOPE   C2319739   1.065   2.363  10.461 -0.0803  0.4092  0.1717
  174SOPE   H3R19740   1.162   2.395  10.504 -0.9590  0.2087  2.3690
  174SOPE   H3S19741   1.012   2.459  10.443  2.0033  0.7228 -5.4443
  174SOPE   C2419742   1.092   2.305  10.320  0.0338 -0.0933 -0.8022
  174SOPE   H4R19743   1.148   2.210  10.333 -0.1614  0.0091  0.8798
  174SOPE   H4S19744   0.992   2.289  10.274  0.0125  1.0988 -1.1843
  174SOPE   C2519745   1.189   2.385  10.233 -0.5716  0.1707 -0.5352
  174SOPE   H5R19746   1.149   2.489  10.238  1.7932  1.0411  0.6256
  174SOPE   H5S19747   1.283   2.371  10.289  0.1389  0.8781 -1.5273
  174SOPE   C2619748   1.212   2.341  10.090  1.1959  0.3101 -0.4334
  174SOPE   H6R19749   1.233   2.232  10.083  0.0774 -0.2826  4.0129
  174SOPE   H6S19750   1.123   2.364  10.027  1.5065  0.0432 -0.9681
  174SOPE   C2719751   1.332   2.418  10.027 -0.2374 -0.1835 -0.3491
  174SOPE   H7R19752   1.315   2.525  10.051  0.7286 -0.3182  0.9989
  174SOPE   H7S19753   1.419   2.385  10.088 -1.5807 -1.0061  1.1683
  174SOPE   C2819754   1.359   2.378   9.884  0.6391  0.4065 -0.3376
  174SOPE   H8R19755   1.467   2.387   9.858  0.6707 -2.9583 -1.6051
  174SOPE   H8S19756   1.347   2.267   9.887 -3.0474  0.7076 -1.5193
  174SOPE   C2919757   1.276   2.436   9.771  0.0206  0.4482  0.1465
  174SOPE   H9119758   1.292   2.543   9.752 -2.0391  1.1010  1.8592
  174SOPE  C21019759   1.183   2.375   9.696 -0.3661  0.1503  0.1422
  174SOPE  H10119760   1.143   2.438   9.615 -1.0746 -3.1431 -2.1304
  174SOPE  C21119761   1.127   2.236   9.708 -0.3306  0.2139 -0.2761
  174SOPE  H11R19762   1.163   2.176   9.794  1.8757 -0.5204 -1.6647
  174SOPE  H11S19763   1.156   2.181   9.616  1.6611 -1.4954  1.3069
  174SOPE  C21219764   0.975   2.223   9.721 -0.3422  0.0565  0.4100
  174SOPE  H12R19765   0.948   2.115   9.728  1.5857 -0.3198  2.5883
  174SOPE  H12S19766   0.922   2.265   9.633  0.7225 -1.5423 -1.0335
  174SOPE  C21319767   0.919   2.292   9.842  0.1108  0.1477  0.2224
  174SOPE  H13R19768   0.935   2.402   9.848  0.4281 -0.0105  2.7729
  174SOPE  H13S19769   0.972   2.254   9.931 -0.5476 -0.5137  0.3384
  174SOPE  C21419770   0.773   2.261   9.863 -0.3081 -0.8021  0.2961
  174SOPE  H14R19771   0.744   2.164   9.818 -3.2162  0.2827 -0.3357
  174SOPE  H14S19772   0.711   2.341   9.816  0.3232 -0.5693 -0.1475
  174SOPE  C21519773   0.739   2.240  10.012  0.4915 -0.2302 -0.3249
  174SOPE  H15R19774   0.736   2.337  10.067  0.5681 -0.6796  0.4738
  174SOPE  H15S19775   0.813   2.175  10.062  0.5104 -0.3147 -0.4629
  174SOPE  C21619776   0.602   2.169  10.022 -0.3097  0.1293  0.4056
  174SOPE  H16R19777   0.602   2.065   9.982  0.4451  0.4396 -0.4035
  174SOPE  H16S19778   0.520   2.217   9.965  0.2359 -2.1547 -2.3651
  174SOPE  C21719779   0.557   2.161  10.168  0.0008  0.5102 -0.3637
  174SOPE  H17R19780   0.536   2.264  10.206  0.7870  0.5931 -0.1392
  174SOPE  H17S19781   0.636   2.139  10.242 -1.2109 -0.8676  0.5406
  174SOPE  C21819782   0.442   2.059  10.192 -0.2879 -0.4684 -0.4185
  174SOPE  H18R19783   0.471   1.952  10.178  2.4351  0.1975 -0.1678
  174SOPE  H18S19784   0.365   2.058  10.112  2.2395 -0.3827 -2.9364
  174SOPE  H18T19785   0.396   2.072  10.292 -0.5707  0.8539 -0.7114
  174SOPE   C3319786   1.478   2.134  10.595  0.2547 -0.2506  0.2526
  174SOPE   H3X19787   1.570   2.189  10.564 -1.3275  1.1876 -2.0693
  174SOPE   H3Y19788   1.427   2.209  10.659  2.4978  2.0917 -0.5820
  174SOPE   C3419789   1.401   2.125  10.465 -0.3179 -0.3446  1.1074
  174SOPE   H4X19790   1.381   2.223  10.416 -0.0806 -0.5117  0.6788
  174SOPE   H4Y19791   1.304   2.077  10.491  0.1816 -0.8753  2.0459
  174SOPE   C3519792   1.462   2.025  10.371 -0.8258 -0.5049 -0.2540
  174SOPE   H5X19793   1.443   1.921  10.403 -0.9332 -0.8515 -1.4214
  174SOPE   H5Y19794   1.572   2.035  10.383 -1.0632 -0.4917  2.1828
  174SOPE   C3619795   1.411   2.039  10.225  0.3507  0.8845 -0.6707
  174SOPE   H6X19796   1.433   2.142  10.191  1.4657  1.7870  2.5846
  174SOPE   H6Y19797   1.301   2.026  10.223  0.4546 -0.8130  2.2666
  174SOPE   C3719798   1.477   1.932  10.137  0.0226 -0.0218 -0.3481
  174SOPE   H7X19799   1.428   1.839  10.172 -0.2931  0.7813  1.4180
  174SOPE   H7Y19800   1.588   1.933  10.143  0.0091  1.4318 -0.1280
  174SOPE   C3819801   1.445   1.946   9.987  0.1540  0.1392  0.1205
  174SOPE   H8X19802   1.511   1.874   9.933 -2.3769 -1.8639 -0.4017
  174SOPE   H8Y19803   1.471   2.051   9.961 -1.1330  0.1217 -1.3252
  174SOPE   C3919804   1.300   1.925   9.944 -0.2222 -0.4406 -0.5788
  174SOPE   H9X19805   1.247   2.019   9.971 -1.3195 -1.8714  2.5262
  174SOPE   H9Y19806   1.252   1.849  10.010 -0.2496  0.7214  0.7695
  174SOPE  C31019807   1.302   1.893   9.796  0.0716 -0.1831  0.0396
  174SOPE  H10X19808   1.375   1.810   9.781 -0.0957 -0.3611  0.1992
  174SOPE  H10Y19809   1.340   1.982   9.741 -1.3816 -0.4039 -1.3609
  174SOPE  C31119810   1.173   1.855   9.717  0.2803  0.2366 -1.0977
  174SOPE  H11X19811   1.112   1.948   9.717  0.2996  0.2509 -1.6553
  174SOPE  H11Y19812   1.122   1.767   9.762  0.5872  0.1304 -0.9582
  174SOPE  C31219813   1.202   1.829   9.571 -0.4215 -0.9446 -0.0389
  174SOPE  H12X19814   1.278   1.747   9.570 -0.0938 -0.6385 -0.9249
  174SOPE  H12Y19815   1.257   1.917   9.530 -1.3303 -0.1208  0.4909
  174SOPE  C31319816   1.080   1.795   9.485 -0.4928 -0.3149 -0.4560
  174SOPE  H13X19817   1.025   1.708   9.525  0.0529 -0.8512 -0.8563
  174SOPE  H13Y19818   1.117   1.752   9.389  1.8633  0.5394  0.0332
  174SOPE  C31419819   0.980   1.914   9.462 -0.8589  0.3429  0.9433
  174SOPE  H14X19820   1.039   2.008   9.453  0.2690 -0.2592  2.0024
  174SOPE  H14Y19821   0.921   1.930   9.556 -0.7663  2.5985  0.6550
  174SOPE  C31519822   0.893   1.893   9.338  0.0923 -0.0712 -0.5220
  174SOPE  H15X19823   0.865   1.786   9.330  2.3130 -0.8787  1.7557
  174SOPE  H15Y19824   0.955   1.912   9.249  2.9988 -0.6192  1.3321
  174SOPE  C31619825   0.764   1.979   9.342  1.0325 -0.7057  0.9859
  174SOPE  H16X19826   0.780   2.084   9.373 -0.3317 -0.8312  2.1640
  174SOPE  H16Y19827   0.693   1.928   9.412  0.2195 -1.5710 -0.4459
  174SOPE  C31719828   0.704   1.984   9.202 -0.4240  0.3357 -0.2066
  174SOPE  H17X19829   0.700   1.883   9.156  0.2531  1.4301 -2.7863
  174SOPE  H17Y19830   0.777   2.043   9.143  0.0138  0.1098  0.0998
  174SOPE  C31819831   0.564   2.046   9.209 -0.0592  0.6818  0.2019
  174SOPE  H18X19832   0.573   2.156   9.223  1.1909  0.3161  2.4931
  174SOPE  H18Y19833   0.504   1.996   9.289 -1.1460  1.8806  0.1545
  174SOPE  H18Z19834   0.513   2.049   9.110  1.0316 -1.3361 -0.4446
  175SOPE     N19835   3.176   3.305  10.546 -0.2030 -0.1134  0.3803
  175SOPE   HN119836   3.204   3.367  10.625  0.8676  0.6085 -0.5583
  175SOPE   HN219837   3.089   3.260  10.582 -0.7546  1.0065  0.4676
  175SOPE   HN319838   3.246   3.229  10.534  0.4295  0.2706  1.5331
  175SOPE   C1219839   3.150   3.389  10.419  0.1339  0.1359 -0.3234
  175SOPE  H12A19840   3.081   3.470  10.451 -1.4762 -1.1820 -0.4114
  175SOPE  H12B19841   3.112   3.314  10.346  2.1419 -2.9068  1.6486
  175SOPE   C1119842   3.281   3.450  10.375  0.1646 -0.0000  0.1486
  175SOPE  H11A19843   3.248   3.513  10.290  1.0290  0.4594  0.1432
  175SOPE  H11B19844   3.352   3.376  10.332  1.3013  0.5259  1.1015
  175SOPE     P19845   3.310   3.674  10.532 -0.1413 -0.2582 -0.3751
  175SOPE   O1319846   3.421   3.725  10.621  0.0365 -0.4303 -0.6518
  175SOPE   O1419847   3.173   3.676  10.585  0.2603  0.3587  0.1759
  175SOPE   O1219848   3.347   3.533  10.475  0.0436  0.8504 -0.0963
  175SOPE   O1119849   3.312   3.760  10.406  0.1485  0.4799 -0.7720
  175SOPE    C119850   3.438   3.779  10.337 -0.3247  0.6956  0.2713
  175SOPE    HA19851   3.492   3.683  10.321 -2.0401 -0.1699 -0.5222
  175SOPE    HB19852   3.500   3.862  10.378 -2.3467  1.6734  1.4701
  175SOPE    C219853   3.411   3.823  10.191  0.0352 -0.2660 -0.1362
  175SOPE    HS19854   3.351   3.916  10.199  0.2026 -0.1975  0.3224
  175SOPE   O2119855   3.361   3.713  10.117 -0.6867  0.6457  0.1612
  175SOPE   C2119856   3.254   3.750  10.045 -0.3009 -0.6521  0.4941
  175SOPE   O2219857   3.202   3.865  10.045  0.5148 -0.7355 -0.1094
  175SOPE   C2219858   3.209   3.634   9.957 -0.2210 -0.0738 -0.2129
  175SOPE   H2R19859   3.145   3.564  10.014 -2.8532  0.5541 -2.2901
  175SOPE   H2S19860   3.300   3.573   9.940 -1.0133 -1.7141  1.2911
  175SOPE    C319861   3.552   3.869  10.125 -0.2597 -0.1724 -0.7740
  175SOPE    HX19862   3.624   3.787  10.148 -0.0966  0.0742 -0.3950
  175SOPE    HY19863   3.603   3.951  10.180 -0.0150 -0.0985 -1.1119
  175SOPE   O3119864   3.540   3.886   9.987 -0.2573  0.2549  0.3170
  175SOPE   C3119865   3.514   4.011   9.954 -0.0706 -0.0117  0.1270
  175SOPE   O3219866   3.501   4.103  10.037  0.5815  0.0267 -0.0173
  175SOPE   C3219867   3.516   4.013   9.801 -0.1416 -0.1027 -0.0148
  175SOPE   H2X19868   3.589   3.933   9.776 -0.8192 -0.8577  0.4384
  175SOPE   H2Y19869   3.552   4.115   9.774  0.6852 -0.3636  0.0730
  175SOPE   C2319870   3.152   3.679   9.818 -0.3577 -0.9789 -0.3933
  175SOPE   H3R19871   3.214   3.747   9.756  0.0586  0.8822  1.9730
  175SOPE   H3S19872   3.060   3.738   9.837 -1.0541 -1.7761 -1.2602
  175SOPE   C2419873   3.126   3.558   9.730  0.4308 -0.7381 -0.4135
  175SOPE   H4R19874   3.220   3.498   9.722  0.5055 -0.5046 -1.3217
  175SOPE   H4S19875   3.053   3.493   9.783  0.3776 -0.7359 -0.4839
  175SOPE   C2519876   3.078   3.595   9.584 -0.1504  0.3301  0.0424
  175SOPE   H5R19877   2.979   3.545   9.575 -1.5826  2.8507  1.3040
  175SOPE   H5S19878   3.048   3.701   9.568 -2.2066 -0.4869 -1.8303
  175SOPE   C2619879   3.177   3.551   9.470 -0.2179 -0.2848  0.2350
  175SOPE   H6R19880   3.271   3.609   9.465  0.1709 -0.9973 -0.7166
  175SOPE   H6S19881   3.212   3.454   9.512 -2.4299 -1.1387  0.1788
  175SOPE   C2719882   3.111   3.533   9.335 -0.8622  0.0374  0.1183
  175SOPE   H7R19883   3.185   3.480   9.273  0.5795 -0.7441  2.4552
  175SOPE   H7S19884   3.019   3.472   9.342 -2.5322  1.9796 -3.3196
  175SOPE   C2819885   3.088   3.667   9.272  0.5466 -0.8563 -0.2740
  175SOPE   H8R19886   3.010   3.722   9.328 -1.5745 -2.5239 -1.4647
  175SOPE   H8S19887   3.184   3.722   9.273 -2.5518  4.9730 -1.0563
  175SOPE   C2919888   3.050   3.631   9.128 -0.5242  0.5232 -1.1707
  175SOPE   H9119889   2.978   3.548   9.121  1.5176 -1.5093  1.0126
  175SOPE  C21019890   3.094   3.691   9.015  1.0960 -0.0098  0.7700
  175SOPE  H10119891   3.061   3.642   8.923 -1.5240 -0.5703  1.9666
  175SOPE  C21119892   3.184   3.814   9.013  0.5869 -0.1591  0.5174
  175SOPE  H11R19893   3.281   3.774   8.977 -0.5128 -3.9501  1.4919
  175SOPE  H11S19894   3.195   3.864   9.112  1.7033 -1.9028  1.3119
  175SOPE  C21219895   3.135   3.912   8.907 -0.0002  0.1002  0.3049
  175SOPE  H12R19896   3.204   3.999   8.902 -1.1930  1.0485  0.0824
  175SOPE  H12S19897   3.031   3.945   8.930 -0.9671 -2.5504 -0.0857
  175SOPE  C21319898   3.139   3.861   8.767 -0.1596 -0.0750  0.0567
  175SOPE  H13R19899   3.105   3.755   8.762 -0.1944 -0.0181 -1.0997
  175SOPE  H13S19900   3.244   3.853   8.732 -0.0070  1.3240  0.1756
  175SOPE  C21419901   3.064   3.948   8.661 -0.4929 -0.1118 -0.3932
  175SOPE  H14R19902   2.958   3.966   8.689 -0.6391 -0.3753 -0.7716
  175SOPE  H14S19903   3.066   3.884   8.570  0.9207  0.5085 -0.8010
  175SOPE  C21519904   3.120   4.082   8.614  0.1885  0.3095 -0.1169
  175SOPE  H15R19905   3.228   4.080   8.589  0.2453  2.9205 -0.1677
  175SOPE  H15S19906   3.123   4.155   8.698 -0.0014  0.0271  0.1391
  175SOPE  C21619907   3.047   4.147   8.499 -0.1864 -0.3023 -0.1850
  175SOPE  H16R19908   2.944   4.182   8.524  0.0867 -0.5987  1.3779
  175SOPE  H16S19909   3.043   4.068   8.421 -0.9593  1.6621 -2.2417
  175SOPE  C21719910   3.120   4.258   8.431  0.4674 -0.4468  0.2987
  175SOPE  H17R19911   3.225   4.232   8.406  0.6793 -2.7471  3.2477
  175SOPE  H17S19912   3.131   4.337   8.508  1.1540 -1.7529  1.5732
  175SOPE  C21819913   3.055   4.311   8.302  0.2825  0.0302  0.5195
  175SOPE  H18R19914   3.102   4.396   8.249 -2.0908  0.3619 -1.1563
  175SOPE  H18S19915   2.951   4.341   8.329 -0.4499 -1.9094 -0.0849
  175SOPE  H18T19916   3.058   4.229   8.227 -1.9865  1.6844 -1.4399
  175SOPE   C3319917   3.377   3.994   9.737  0.2553  0.0481  0.1932
  175SOPE   H3X19918   3.321   4.086   9.763 -0.3633  0.0819 -1.1566
  175SOPE   H3Y19919   3.308   3.914   9.772 -2.2883  1.3089 -1.7830
  175SOPE   C3419920   3.387   3.993   9.585  0.2744  0.0589  0.0591
  175SOPE   H4X19921   3.447   3.902   9.559 -0.6805 -1.4359  2.9410
  175SOPE   H4Y19922   3.434   4.086   9.546  0.9110 -0.3019 -0.0480
  175SOPE   C3519923   3.253   3.981   9.500 -0.1982 -0.0802  0.1731
  175SOPE   H5X19924   3.188   4.069   9.516 -0.5948 -0.1227 -1.1331
  175SOPE   H5Y19925   3.199   3.890   9.534  1.4765 -1.6140 -1.1635
  175SOPE   C3619926   3.274   3.958   9.354 -0.7914 -0.5459  0.3464
  175SOPE   H6X19927   3.184   3.981   9.294  0.5055 -0.0563 -1.4435
  175SOPE   H6Y19928   3.323   3.861   9.331 -2.0112 -1.1199  0.1406
  175SOPE   C3719929   3.371   4.062   9.298  0.2485 -0.6274  0.2807
  175SOPE   H7X19930   3.479   4.043   9.315  0.8349  0.6045 -1.8395
  175SOPE   H7Y19931   3.341   4.155   9.350  1.4154 -1.4477  2.4793
  175SOPE   C3819932   3.369   4.080   9.147  0.1878 -0.3161 -0.1958
  175SOPE   H8X19933   3.262   4.089   9.119 -0.6687  2.9714  3.7800
  175SOPE   H8Y19934   3.407   3.988   9.096  1.9176  0.2274  0.0776
  175SOPE   C3919935   3.443   4.202   9.083  0.1052 -0.5322 -0.4318
  175SOPE   H9X19936   3.533   4.232   9.141 -1.0648  0.6603  0.8119
  175SOPE   H9Y19937   3.385   4.297   9.085  1.5740  0.4429 -1.9400
  175SOPE  C31019938   3.471   4.182   8.931  0.1791 -0.0880 -0.3062
  175SOPE  H10X19939   3.375   4.153   8.883 -1.2338  0.5271  2.0733
  175SOPE  H10Y19940   3.555   4.110   8.915  0.3839  0.3996 -1.4719
  175SOPE  C31119941   3.529   4.315   8.862  0.4342  0.1942 -0.4060
  175SOPE  H11X19942   3.629   4.329   8.907 -0.5433 -1.2880  2.3789
  175SOPE  H11Y19943   3.467   4.396   8.907 -1.3744  0.0084 -2.5023
  175SOPE  C31219944   3.530   4.304   8.706  0.0172 -0.0784 -0.6031
  175SOPE  H12X19945   3.425   4.320   8.676 -0.5210 -0.4612  1.0183
  175SOPE  H12Y19946   3.554   4.200   8.672  1.4403  0.8984 -2.7151
  175SOPE  C31319947   3.623   4.398   8.636 -0.2218 -0.0398 -0.6828
  175SOPE  H13X19948   3.703   4.399   8.713 -1.1651 -2.2658  0.3563
  175SOPE  H13Y19949   3.586   4.503   8.631 -0.5346 -0.2558 -3.3572
  175SOPE  C31419950   3.690   4.364   8.505 -0.2365 -0.2159  0.7169
  175SOPE  H14X19951   3.739   4.265   8.507 -0.7487 -0.5050 -0.4177
  175SOPE  H14Y19952   3.765   4.446   8.502  1.1780 -1.5274 -0.1580
  175SOPE  C31519953   3.604   4.374   8.377 -0.8040  0.1198 -0.7445
  175SOPE  H15X19954   3.546   4.279   8.369 -0.9675  0.1526  0.0381
  175SOPE  H15Y19955   3.672   4.385   8.290  1.1217  0.5513  0.7709
  175SOPE  C31619956   3.507   4.493   8.374 -0.0201  0.4574  0.0078
  175SOPE  H16X19957   3.571   4.583   8.384 -0.3133  0.6695 -0.0100
  175SOPE  H16Y19958   3.439   4.473   8.459 -1.6056 -3.0786 -1.9477
  175SOPE  C31719959   3.416   4.477   8.245 -0.3398 -0.2201 -0.5930
  175SOPE  H17X19960   3.369   4.376   8.252 -0.8266 -0.2524 -3.7424
  175SOPE  H17Y19961   3.478   4.478   8.153  0.1407 -0.2832 -0.2693
  175SOPE  C31819962   3.302   4.581   8.237  0.5144  0.2154 -0.2020
  175SOPE  H18X19963   3.345   4.682   8.221  0.3203  0.7409  2.3078
  175SOPE  H18Y19964   3.255   4.581   8.338  2.7188 -1.8278  0.8910
  175SOPE  H18Z19965   3.239   4.555   8.150  1.4639 -1.4754 -0.4098
  176SOPE     N19966   2.203   3.239  10.783  0.4272  0.2341 -0.3393
  176SOPE   HN119967   2.107   3.219  10.747 -1.1160  3.0942  2.0336
  176SOPE   HN219968   2.242   3.159  10.837 -0.8197  0.8340  1.5083
  176SOPE   HN319969   2.176   3.326  10.832 -0.2898 -0.9398  1.4053
  176SOPE   C1219970   2.301   3.267  10.664  0.1690 -0.7365  0.6310
  176SOPE  H12A19971   2.369   3.347  10.702 -0.8119 -0.7834  2.5311
  176SOPE  H12B19972   2.235   3.304  10.583  1.2584 -1.0245 -0.4063
  176SOPE   C1119973   2.373   3.134  10.627  0.7246 -0.8250 -0.8799
  176SOPE  H11A19974   2.415   3.141  10.525  1.0749  1.9998 -0.5903
  176SOPE  H11B19975   2.292   3.059  10.613  2.5767 -2.8254 -1.1708
  176SOPE     P19976   2.624   3.139  10.671 -1.0322 -0.5655 -0.3305
  176SOPE   O1319977   2.728   3.123  10.777 -0.3301  0.2522 -0.1614
  176SOPE   O1419978   2.624   3.277  10.622  0.1548 -0.1711 -0.0031
  176SOPE   O1219979   2.475   3.109  10.723  0.5461  0.3812  0.5117
  176SOPE   O1119980   2.643   3.043  10.547  0.3898  0.2652 -0.3971
  176SOPE    C119981   2.664   2.900  10.578  0.4875  0.3170  0.4293
  176SOPE    HA19982   2.598   2.868  10.662  1.4408  1.7760  1.7559
  176SOPE    HB19983   2.767   2.876  10.612  0.1929 -2.0294 -0.2483
  176SOPE    C219984   2.619   2.803  10.456  0.0078 -0.8536 -0.4112
  176SOPE    HS19985   2.644   2.704  10.501  0.3378 -0.9195 -0.7430
  176SOPE   O2119986   2.685   2.821  10.326 -0.4339 -0.5622  0.2732
  176SOPE   C2119987   2.816   2.819  10.331  0.5734  0.4605  0.4365
  176SOPE   O2219988   2.881   2.766  10.421  0.4531 -0.2386  0.1217
  176SOPE   C2219989   2.871   2.868  10.198 -1.2683 -0.4097 -0.4906
  176SOPE   H2R19990   2.798   2.938  10.151  0.3328 -0.4726 -3.2012
  176SOPE   H2S19991   2.885   2.786  10.125 -1.2645 -0.6153 -0.2576
  176SOPE    C319992   2.465   2.806  10.436  0.0827 -0.9782  0.3383
  176SOPE    HX19993   2.433   2.901  10.389 -1.7273 -0.6454  2.1474
  176SOPE    HY19994   2.400   2.794  10.525 -0.8454 -1.0702 -0.3456
  176SOPE   O3119995   2.430   2.693  10.358  0.3853 -0.1480 -0.2619
  176SOPE   C3119996   2.422   2.573  10.408 -0.2259  0.4117 -0.1581
  176SOPE   O3219997   2.448   2.546  10.522 -0.2039  0.5200 -1.0839
  176SOPE   C3219998   2.373   2.486  10.294  0.4699  0.1143 -0.2412
  176SOPE   H2X19999   2.456   2.433  10.244  1.6748 -1.7156  3.4774
  176SOPE   H2Y20000   2.318   2.545  10.218 -0.1627  0.6380  0.6174
  176SOPE   C2320001   2.999   2.944  10.217  0.3555 -0.1627  0.5714
  176SOPE   H3R20002   3.088   2.908  10.272  1.8312  2.4681 -0.0206
  176SOPE   H3S20003   2.978   3.039  10.269  1.7925  0.4502  0.0428
  176SOPE   C2420004   3.046   2.981  10.073 -0.6267  0.4891 -0.5208
  176SOPE   H4R20005   3.057   2.889  10.011 -1.3097 -0.7308  1.1156
  176SOPE   H4S20006   2.980   3.049  10.015 -1.3954 -0.6759 -1.0390
  176SOPE   C2520007   3.182   3.056  10.073  0.2507 -0.3183  0.5963
  176SOPE   H5R20008   3.189   3.138  10.148  0.9919  0.6820 -0.5424
  176SOPE   H5S20009   3.264   2.984  10.094 -0.5357 -1.0169  1.2954
  176SOPE   C2620010   3.209   3.126   9.938 -0.0165  0.2745 -0.3091
  176SOPE   H6R20011   3.117   3.167   9.891 -1.5370 -1.9277  0.6647
  176SOPE   H6S20012   3.276   3.213   9.957  0.4328  0.2042 -1.5444
  176SOPE   C2720013   3.272   3.039   9.830 -0.2913 -0.3390 -0.4981
  176SOPE   H7R20014   3.336   2.971   9.889  1.4320  0.3262 -1.5493
  176SOPE   H7S20015   3.200   2.978   9.772  0.1169 -1.2067 -0.0963
  176SOPE   C2820016   3.363   3.114   9.731 -0.0877  0.2599  0.0983
  176SOPE   H8R20017   3.413   3.194   9.789 -0.9719  2.3953 -2.0281
  176SOPE   H8S20018   3.436   3.044   9.685  0.5880  1.1425 -0.1889
  176SOPE   C2920019   3.291   3.190   9.623  0.6913 -0.0377 -0.9032
  176SOPE   H9120020   3.242   3.283   9.655  0.8256 -0.6547  1.1897
  176SOPE  C21020021   3.288   3.153   9.491 -0.3662 -0.7081 -0.2278
  176SOPE  H10120022   3.235   3.217   9.418  0.1799 -0.3182 -0.2823
  176SOPE  C21120023   3.344   3.028   9.427  0.3594 -0.3771  0.2607
  176SOPE  H11R20024   3.270   2.973   9.366  0.5521  0.0811 -0.3839
  176SOPE  H11S20025   3.363   2.954   9.508 -1.4311 -2.6721 -1.3431
  176SOPE  C21220026   3.477   3.043   9.351 -0.5378  0.2499 -0.0826
  176SOPE  H12R20027   3.520   2.944   9.330  1.5173  0.8125  1.3002
  176SOPE  H12S20028   3.556   3.100   9.406  0.2537  1.1324 -2.1079
  176SOPE  C21320029   3.458   3.115   9.219 -0.5176 -0.5942 -0.0625
  176SOPE  H13R20030   3.432   3.219   9.248 -1.5565 -1.5306  2.5589
  176SOPE  H13S20031   3.384   3.063   9.153  1.7890 -1.5910 -1.9170
  176SOPE  C21420032   3.589   3.114   9.141 -0.3387  0.0265 -0.6209
  176SOPE  H14R20033   3.613   3.011   9.105 -1.9072  0.1805 -2.1526
  176SOPE  H14S20034   3.675   3.141   9.205 -0.5214  3.1026 -1.5851
  176SOPE  C21520035   3.593   3.206   9.018  0.9910  0.0633 -0.1099
  176SOPE  H15R20036   3.555   3.303   9.056  2.9583  1.3131 -1.2299
  176SOPE  H15S20037   3.519   3.167   8.946 -0.4568 -0.7883  1.8194
  176SOPE  C21620038   3.731   3.215   8.955  0.3832  0.6078 -0.3367
  176SOPE  H16R20039   3.775   3.114   8.947 -2.3923 -0.6822 -0.1021
  176SOPE  H16S20040   3.798   3.272   9.023 -0.5033  1.1622  0.0922
  176SOPE  C21720041   3.734   3.286   8.818  0.5405  0.9679 -0.2341
  176SOPE  H17R20042   3.702   3.391   8.833 -2.5001  0.0348  0.2836
  176SOPE  H17S20043   3.651   3.233   8.767  0.0456  1.0966  0.4271
  176SOPE  C21820044   3.866   3.284   8.744  0.6268  0.2057  0.6921
  176SOPE  H18R20045   3.849   3.341   8.650 -1.1271  0.7704  1.3389
  176SOPE  H18S20046   3.898   3.181   8.715 -0.2293  0.4002 -1.0108
  176SOPE  H18T20047   3.947   3.338   8.798  2.6519 -2.3750  0.3793
  176SOPE   C3320048   2.271   2.368  10.340 -0.7027 -0.4096 -0.3459
  176SOPE   H3X20049   2.180   2.414  10.385  0.6697  1.5994  0.4424
  176SOPE   H3Y20050   2.319   2.306  10.419 -0.7439 -0.8317 -0.6558
  176SOPE   C3420051   2.222   2.286  10.227 -0.3462 -0.2712 -0.6444
  176SOPE   H4X20052   2.184   2.362  10.155 -0.2859  0.5241  0.1555
  176SOPE   H4Y20053   2.132   2.229  10.259 -0.7738  0.3780 -0.6592
  176SOPE   C3520054   2.318   2.189  10.157  0.4521 -0.3554 -0.4429
  176SOPE   H5X20055   2.339   2.102  10.223  1.1735 -0.1985 -0.4628
  176SOPE   H5Y20056   2.418   2.234  10.143 -0.5719  1.6327 -1.6632
  176SOPE   C3620057   2.273   2.139  10.021 -0.6627 -0.6827  0.9889
  176SOPE   H6X20058   2.163   2.134  10.009 -0.5390 -0.5857 -0.2909
  176SOPE   H6Y20059   2.316   2.037  10.024 -0.4822 -0.5920  1.6319
  176SOPE   C3720060   2.326   2.224   9.905  0.6337 -0.7840 -0.2273
  176SOPE   H7X20061   2.428   2.182   9.894  0.5501 -0.6462 -1.7491
  176SOPE   H7Y20062   2.313   2.333   9.922 -0.6442 -0.6374 -1.9854
  176SOPE   C3820063   2.250   2.187   9.776 -1.0828 -0.0426  1.2607
  176SOPE   H8X20064   2.153   2.239   9.783 -0.0055  1.9313  1.9866
  176SOPE   H8Y20065   2.232   2.078   9.784  1.6918 -0.7661 -1.3801
  176SOPE   C3920066   2.336   2.221   9.651  0.0506 -0.1859 -0.0119
  176SOPE   H9X20067   2.436   2.185   9.681 -0.2018  1.5565  3.2210
  176SOPE   H9Y20068   2.344   2.331   9.634  1.3935 -0.4802 -1.3004
  176SOPE  C31020069   2.291   2.153   9.524  0.3470 -0.4675 -0.6075
  176SOPE  H10X20070   2.195   2.207   9.510  0.0928 -0.0690  2.3425
  176SOPE  H10Y20071   2.278   2.043   9.537 -1.2686 -0.4884 -2.2841
  176SOPE  C31120072   2.372   2.198   9.406 -0.1038 -0.4813 -0.4058
  176SOPE  H11X20073   2.472   2.150   9.411  0.0829  0.1825  3.3952
  176SOPE  H11Y20074   2.385   2.309   9.402 -1.8220 -0.3056 -1.8750
  176SOPE  C31220075   2.310   2.163   9.269 -0.8955 -0.4362  0.3321
  176SOPE  H12X20076   2.218   2.224   9.259 -0.4306  0.3661  0.8728
  176SOPE  H12Y20077   2.285   2.055   9.261  2.8685 -1.2243 -2.0291
  176SOPE  C31320078   2.409   2.205   9.161 -0.4374 -0.2097 -0.4428
  176SOPE  H13X20079   2.507   2.159   9.187 -0.7619 -0.4964  0.2814
  176SOPE  H13Y20080   2.418   2.315   9.167 -0.2024 -0.0809 -2.6974
  176SOPE  C31420081   2.373   2.154   9.022 -0.1702  0.3590  0.1428
  176SOPE  H14X20082   2.267   2.180   9.001 -1.2025 -1.2431  3.0940
  176SOPE  H14Y20083   2.381   2.045   9.000 -0.2151  0.2261  0.7752
  176SOPE  C31520084   2.474   2.217   8.929  0.5316 -0.8888  0.5855
  176SOPE  H15X20085   2.575   2.191   8.966  0.4900  0.1103  1.4152
  176SOPE  H15Y20086   2.469   2.328   8.936  1.4973 -0.6899 -1.4344
  176SOPE  C31620087   2.449   2.173   8.786 -0.3751  0.0332  0.2856
  176SOPE  H16X20088   2.468   2.249   8.707  1.2887  0.2904  0.9163
  176SOPE  H16Y20089   2.341   2.147   8.780 -0.4338  0.4156 -0.3488
  176SOPE  C31720090   2.541   2.053   8.745  0.0640  0.3900  0.5595
  176SOPE  H17X20091   2.525   1.974   8.821  1.7079  0.2370  0.7515
  176SOPE  H17Y20092   2.647   2.085   8.749 -0.0435  0.7584  0.5517
  176SOPE  C31820093   2.508   1.988   8.605  0.0706 -0.9982 -0.7371
  176SOPE  H18X20094   2.572   1.902   8.580 -0.5896 -2.4223  2.1788
  176SOPE  H18Y20095   2.524   2.068   8.530  0.7707  2.0812  2.5347
  176SOPE  H18Z20096   2.401   1.959   8.600 -0.1340 -0.4541  0.2310
  177SOPE     N20097   2.130   0.803  10.842 -0.2722  0.2597  0.2072
  177SOPE   HN120098   2.027   0.808  10.848 -0.2708 -0.9342  1.5154
  177SOPE   HN220099   2.163   0.750  10.759  2.3371 -0.2318  1.4995
  177SOPE   HN320100   2.150   0.761  10.935  0.4301  2.0950  0.9129
  177SOPE   C1220101   2.172   0.946  10.846 -0.2551  0.4906 -0.4260
  177SOPE  H12A20102   2.148   0.985  10.745 -1.5707  1.5656  0.2769
  177SOPE  H12B20103   2.281   0.958  10.864 -0.3384  0.2837  0.2377
  177SOPE   C1120104   2.092   1.026  10.959 -0.6606  0.3445  0.5094
  177SOPE  H11A20105   2.132   1.128  10.940 -1.6720  0.4482 -1.2029
  177SOPE  H11B20106   2.124   0.992  11.060 -0.2893 -0.7562  0.0263
  177SOPE     P20107   1.851   1.148  10.962 -0.0454 -0.3184 -0.4325
  177SOPE   O1320108   1.914   1.242  11.059 -0.0202  0.2869  0.6322
  177SOPE   O1420109   1.715   1.086  10.985  0.2513  0.2709  0.4380
  177SOPE   O1220110   1.951   1.027  10.940 -0.1052 -0.2854  1.1503
  177SOPE   O1120111   1.864   1.211  10.821 -0.2642 -0.3860 -0.4406
  177SOPE    C120112   1.772   1.216  10.717  0.4460  0.4364 -0.1962
  177SOPE    HA20113   1.712   1.309  10.727 -1.3768 -0.8037  0.9329
  177SOPE    HB20114   1.702   1.130  10.730 -0.9137  1.3219 -1.5769
  177SOPE    C220115   1.844   1.191  10.582  0.0510  0.1011  0.5703
  177SOPE    HS20116   1.920   1.113  10.601  1.0647  0.8803 -0.2303
  177SOPE   O2120117   1.913   1.312  10.534 -0.3348  1.0178 -0.1817
  177SOPE   C2120118   2.024   1.287  10.455 -0.4165 -0.0174  0.6070
  177SOPE   O2220119   2.076   1.180  10.440 -0.3436  0.5077  0.5117
  177SOPE   C2220120   2.072   1.407  10.383 -0.2764  0.0233 -0.2856
  177SOPE   H2R20121   2.130   1.467  10.456 -3.0389 -1.0821  2.9495
  177SOPE   H2S20122   1.989   1.476  10.358  0.4398  1.6845  1.8016
  177SOPE    C320123   1.733   1.146  10.472 -0.2135  0.0034  0.0084
  177SOPE    HX20124   1.665   1.234  10.466 -2.5071 -1.4889  2.7342
  177SOPE    HY20125   1.672   1.063  10.513 -1.5353  0.6056 -0.7032
  177SOPE   O3120126   1.785   1.122  10.343 -0.5270 -1.2019  0.4013
  177SOPE   C3120127   1.838   1.004  10.332  0.3774  0.0922 -0.2997
  177SOPE   O3220128   1.859   0.918  10.419  0.6591 -0.3894 -0.8536
  177SOPE   C3220129   1.884   0.995  10.188 -0.3700 -0.0342 -0.3204
  177SOPE   H2X20130   1.982   1.044  10.176 -1.0970  2.4197  3.1071
  177SOPE   H2Y20131   1.811   1.054  10.128  0.1634  0.1096 -0.8270
  177SOPE   C2320132   2.145   1.382  10.248  0.1407  0.5013 -0.0793
  177SOPE   H3R20133   2.208   1.291  10.251 -0.6667 -0.0279  0.9862
  177SOPE   H3S20134   2.216   1.466  10.231  0.8917 -0.3366 -1.1824
  177SOPE   C2420135   2.044   1.359  10.137  0.9938 -0.2816 -0.0530
  177SOPE   H4R20136   1.972   1.283  10.174 -0.6205  0.6536 -1.2361
  177SOPE   H4S20137   1.978   1.446  10.119 -3.0450 -3.6482 -2.3355
  177SOPE   C2520138   2.100   1.318   9.997  0.1317  0.5367  0.0475
  177SOPE   H5R20139   2.182   1.385   9.963 -0.0273  1.0061  0.5774
  177SOPE   H5S20140   2.142   1.215   9.994  1.2324  0.9826 -0.0558
  177SOPE   C2620141   1.993   1.334   9.888  0.3824 -0.0378  0.1310
  177SOPE   H6R20142   1.916   1.260   9.917 -0.1614  0.3315 -0.3666
  177SOPE   H6S20143   1.960   1.440   9.885  0.6383  0.1301  2.4204
  177SOPE   C2720144   2.044   1.309   9.751 -0.4211 -0.2350  0.0289
  177SOPE   H7R20145   2.082   1.209   9.721 -0.4697 -0.0939 -0.5038
  177SOPE   H7S20146   1.959   1.330   9.684 -0.9767 -0.8596  0.5343
  177SOPE   C2820147   2.147   1.409   9.692 -0.6333 -0.2255 -0.1124
  177SOPE   H8R20148   2.131   1.510   9.735 -0.2810  1.9728 -4.8371
  177SOPE   H8S20149   2.253   1.392   9.724  0.4020  1.8012 -2.2915
  177SOPE   C2920150   2.144   1.419   9.547 -0.6380 -0.0455  0.5231
  177SOPE   H9120151   2.170   1.327   9.493 -2.1083  0.6172 -1.3912
  177SOPE  C21020152   2.097   1.517   9.476  1.1528  0.1188 -0.2123
  177SOPE  H10120153   2.094   1.505   9.367 -1.3198  1.1871 -0.3096
  177SOPE  C21120154   2.059   1.653   9.526 -0.1644 -0.1974  0.1490
  177SOPE  H11R20155   2.143   1.707   9.574  2.4706 -2.2690 -1.9966
  177SOPE  H11S20156   1.973   1.653   9.597 -0.8537 -0.5623 -0.6710
  177SOPE  C21220157   2.007   1.725   9.400  0.2294  0.2877  0.1198
  177SOPE  H12R20158   1.900   1.695   9.392  0.7451 -1.7412  0.3541
  177SOPE  H12S20159   2.060   1.710   9.303  0.0856 -2.2741  0.3856
  177SOPE  C21320160   2.024   1.879   9.418 -0.0142 -0.7009  0.5465
  177SOPE  H13R20161   2.133   1.899   9.430 -0.0209 -0.7642  0.7152
  177SOPE  H13S20162   1.969   1.909   9.510 -0.0387  1.9635 -0.3034
  177SOPE  C21420163   1.963   1.967   9.300 -0.9907  0.0484 -0.7063
  177SOPE  H14R20164   1.961   2.073   9.331 -0.8916 -0.1020 -0.1783
  177SOPE  H14S20165   1.854   1.943   9.302 -1.3592  1.7599  2.3955
  177SOPE  C21520166   2.017   1.935   9.158  0.3290  0.6048 -0.9692
  177SOPE  H15R20167   1.984   1.830   9.144 -1.0225  0.5099  2.5151
  177SOPE  H15S20168   2.126   1.917   9.166  0.0715 -0.6232 -0.1065
  177SOPE  C21620169   1.983   2.045   9.058 -0.1911 -0.8742 -0.0280
  177SOPE  H16R20170   2.059   2.051   8.977  2.1512  2.0276  2.2339
  177SOPE  H16S20171   2.001   2.144   9.105  1.4459  0.2089 -2.8409
  177SOPE  C21720172   1.849   2.059   8.994  0.2747 -0.4915  0.2777
  177SOPE  H17R20173   1.847   2.141   8.919  2.5328 -0.9574 -0.3067
  177SOPE  H17S20174   1.780   2.071   9.081  0.1954 -1.1512  0.3047
  177SOPE  C21820175   1.820   1.927   8.908  0.4080  0.6452 -0.0473
  177SOPE  H18R20176   1.726   1.938   8.850 -1.3284 -2.6364  1.9984
  177SOPE  H18S20177   1.803   1.845   8.981 -0.8083  0.6328 -0.3257
  177SOPE  H18T20178   1.908   1.914   8.842 -1.1203  1.1970 -2.2388
  177SOPE   C3320179   1.888   0.855  10.133 -0.4643  0.2060 -0.4933
  177SOPE   H3X20180   1.784   0.817  10.131 -1.2358  2.2165 -0.5971
  177SOPE   H3Y20181   1.937   0.791  10.209 -0.4148  1.2261  0.3633
  177SOPE   C3420182   1.948   0.855   9.993  0.1009 -0.4777 -0.1263
  177SOPE   H4X20183   2.036   0.923   9.995  0.0717 -0.4441  0.0006
  177SOPE   H4Y20184   1.863   0.882   9.926  0.3749 -0.5425 -0.4999
  177SOPE   C3520185   1.998   0.724   9.934 -0.3235 -0.1836  0.9346
  177SOPE   H5X20186   1.925   0.645   9.963 -1.8824  1.2399  0.9499
  177SOPE   H5Y20187   2.092   0.688   9.981  0.8111  3.4401  1.5535
  177SOPE   C3620188   2.038   0.714   9.783  0.2370 -0.2625  1.1522
  177SOPE   H6X20189   2.087   0.809   9.750 -0.9125 -0.3030 -0.7819
  177SOPE   H6Y20190   1.941   0.704   9.729  0.8474 -1.3671  0.2304
  177SOPE   C3720191   2.125   0.584   9.764 -0.0524  0.0379 -0.4234
  177SOPE   H7X20192   2.071   0.491   9.790 -0.7020  0.9545  1.6464
  177SOPE   H7Y20193   2.217   0.586   9.826 -0.7048  0.5071  0.5442
  177SOPE   C3820194   2.185   0.569   9.626 -0.1010  0.4755 -0.8051
  177SOPE   H8X20195   2.245   0.650   9.579  1.2707  1.1968  2.0525
  177SOPE   H8Y20196   2.099   0.568   9.557 -0.1695 -0.6410 -0.7097
  177SOPE   C3920197   2.255   0.432   9.600  0.7044 -0.7358  0.5102
  177SOPE   H9X20198   2.190   0.352   9.641 -2.0701  1.8101  1.2144
  177SOPE   H9Y20199   2.357   0.428   9.643  0.7804  0.4937  0.4710
  177SOPE  C31020200   2.260   0.407   9.448 -0.1341  0.2095  0.6831
  177SOPE  H10X20201   2.353   0.348   9.430 -1.3897 -1.1244 -1.7398
  177SOPE  H10Y20202   2.265   0.507   9.400 -1.6183 -0.9631 -2.0331
  177SOPE  C31120203   2.143   0.324   9.394  0.2601  0.3315  0.7002
  177SOPE  H11X20204   2.047   0.377   9.411  0.5736  1.5122 -1.1268
  177SOPE  H11Y20205   2.138   0.234   9.460 -1.3480  0.0154  0.1804
  177SOPE  C31220206   2.145   0.280   9.242  0.3075  0.4389 -0.6475
  177SOPE  H12X20207   2.067   0.206   9.215  0.1300  0.4714 -0.2168
  177SOPE  H12Y20208   2.240   0.224   9.231  0.1058 -0.1711  0.6455
  177SOPE  C31320209   2.131   0.401   9.147 -0.0167  0.6688  0.2643
  177SOPE  H13X20210   2.170   0.361   9.051 -0.5889  2.0873 -0.5933
  177SOPE  H13Y20211   2.186   0.486   9.193  0.8844  0.3174 -0.1570
  177SOPE  C31420212   1.989   0.440   9.112 -0.1187 -0.5734 -0.0493
  177SOPE  H14X20213   1.933   0.443   9.208  2.3413 -0.4419  1.4330
  177SOPE  H14Y20214   1.945   0.366   9.041 -0.7459  1.0972 -1.4250
  177SOPE  C31520215   1.985   0.578   9.045 -0.0875  0.2767 -0.0609
  177SOPE  H15X20216   2.055   0.590   8.959  0.0889  0.7523  0.1507
  177SOPE  H15Y20217   2.018   0.656   9.117  0.6399 -1.7318  1.8633
  177SOPE  C31620218   1.847   0.629   9.004  0.2744  0.6626  0.2275
  177SOPE  H16X20219   1.785   0.634   9.096  0.4399  1.6069  0.2958
  177SOPE  H16Y20220   1.795   0.552   8.944  1.1808  0.2082  0.0154
  177SOPE  C31720221   1.849   0.765   8.943 -0.2406  0.3423  0.3461
  177SOPE  H17X20222   1.865   0.848   9.016 -1.3208  2.1183 -1.3793
  177SOPE  H17Y20223   1.759   0.792   8.885  0.4716 -1.7675 -1.7806
  177SOPE  C31820224   1.952   0.772   8.833 -0.0048  0.0667 -0.2544
  177SOPE  H18X20225   1.931   0.851   8.758  1.8940  0.6509 -0.2077
  177SOPE  H18Y20226   1.947   0.672   8.784 -0.0937 -0.5729  1.0186
  177SOPE  H18Z20227   2.056   0.788   8.870  0.4957 -1.2967 -1.0382
  178SOPE     N20228   0.022   6.526  10.685  0.0389 -0.7606  0.1868
  178SOPE   HN120229   0.044   6.549  10.783 -2.1437  0.0757  0.5240
  178SOPE   HN220230  -0.032   6.437  10.688  0.2620 -0.8771  0.6497
  178SOPE   HN320231   0.110   6.514  10.630 -1.5905 -1.8070 -2.3193
  178SOPE   C1220232  -0.056   6.634  10.609  0.3349  0.7482  0.5252
  178SOPE  H12A20233   0.006   6.671  10.525  0.3511  0.0264  0.2156
  178SOPE  H12B20234  -0.089   6.713  10.681  2.3134  0.0422  2.2366
  178SOPE   C1120235  -0.171   6.571  10.529  0.1736 -0.0273 -0.6508
  178SOPE  H11A20236  -0.127   6.487  10.471  1.2646 -0.8906  1.3802
  178SOPE  H11B20237  -0.199   6.653  10.459 -2.7842 -0.3109  0.1389
  178SOPE     P20238  -0.296   6.387  10.678  0.0889 -0.0116  0.4253
  178SOPE   O1320239  -0.427   6.386  10.749  0.0923 -0.2277  0.2941
  178SOPE   O1420240  -0.173   6.371  10.751  0.2268  0.0105  0.2341
  178SOPE   O1220241  -0.285   6.531  10.607 -0.2667  0.9184  0.2212
  178SOPE   O1120242  -0.303   6.291  10.555  0.2443 -0.3982 -0.2405
  178SOPE    C120243  -0.434   6.248  10.504  0.4753  0.3751 -0.5446
  178SOPE    HA20244  -0.505   6.333  10.492 -0.5805 -0.5241 -0.7201
  178SOPE    HB20245  -0.484   6.180  10.577 -0.0390  1.8023  0.4719
  178SOPE    C220246  -0.414   6.182  10.366 -0.2118 -0.2556  0.3731
  178SOPE    HS20247  -0.508   6.162  10.309 -0.7724  0.0444  1.1937
  178SOPE   O2120248  -0.325   6.067  10.384  0.1680 -0.2640  0.2686
  178SOPE   C2120249  -0.346   5.969  10.294  0.4598 -0.2996 -0.5927
  178SOPE   O2220250  -0.434   5.962  10.205  0.5187 -0.5338 -0.5509
  178SOPE   C2220251  -0.253   5.854  10.308  0.1898 -0.2986  0.4728
  178SOPE   H2R20252  -0.305   5.758  10.288 -0.9985  0.0437  1.8114
  178SOPE   H2S20253  -0.231   5.843  10.417 -0.9777  0.4156  0.7945
  178SOPE    C320254  -0.338   6.286  10.283  0.9857  0.7420  0.0087
  178SOPE    HX20255  -0.233   6.300  10.317  0.0457  2.6589  2.2849
  178SOPE    HY20256  -0.389   6.384  10.297 -0.3099 -0.0227  0.7192
  178SOPE   O3120257  -0.324   6.249  10.145  0.3913  0.3982 -0.6041
  178SOPE   C3120258  -0.423   6.291  10.069 -0.4994  0.5089 -0.0904
  178SOPE   O3220259  -0.521   6.348  10.109 -0.0176 -0.8135  0.0739
  178SOPE   C3220260  -0.380   6.256   9.924  0.3927  0.7079 -0.3454
  178SOPE   H2X20261  -0.419   6.155   9.899 -0.6727  1.1798 -0.6418
  178SOPE   H2Y20262  -0.269   6.250   9.924  0.3499 -0.3285  0.7468
  178SOPE   C2320263  -0.122   5.873  10.232  0.0788 -0.3176  0.3491
  178SOPE   H3R20264  -0.069   5.779  10.204  2.2097  0.8740  0.2308
  178SOPE   H3S20265  -0.048   5.918  10.301 -0.2391 -2.2685  1.9924
  178SOPE   C2420266  -0.126   5.962  10.107  0.5118 -0.5160 -0.1640
  178SOPE   H4R20267  -0.220   5.931  10.055 -0.2354 -0.5609  1.1858
  178SOPE   H4S20268  -0.138   6.066  10.144  1.2966 -0.9603  1.3648
  178SOPE   C2520269  -0.007   5.933  10.012 -0.3075  0.6251 -0.9911
  178SOPE   H5R20270   0.086   5.944  10.071 -2.1029  2.3301  1.6032
  178SOPE   H5S20271  -0.011   5.824   9.989  0.1488  0.5297 -0.6202
  178SOPE   C2620272  -0.018   6.016   9.893 -0.7553  0.4380  0.1757
  178SOPE   H6R20273  -0.119   6.030   9.850 -0.4711 -0.3831 -0.7731
  178SOPE   H6S20274   0.023   6.117   9.916  1.5085 -0.4624  0.2560
  178SOPE   C2720275   0.081   5.955   9.783  0.5306 -1.4535  0.1363
  178SOPE   H7R20276   0.182   5.933   9.824 -0.8121 -2.4641  3.0260
  178SOPE   H7S20277   0.030   5.860   9.757 -0.8739 -0.7366  0.1684
  178SOPE   C2820278   0.086   6.046   9.657  0.7148  0.6453  0.9484
  178SOPE   H8R20279   0.147   6.138   9.672  0.2828  1.0079  0.5268
  178SOPE   H8S20280   0.158   5.995   9.589  3.2863  3.3944  1.4832
  178SOPE   C2920281  -0.048   6.082   9.590 -0.0923  0.6285 -0.3705
  178SOPE   H9120282  -0.129   6.091   9.663  0.5116  1.5962  0.2012
  178SOPE  C21020283  -0.060   6.103   9.460  0.1533  0.0371 -0.2910
  178SOPE  H10120284  -0.159   6.131   9.421  0.0995 -2.5225 -2.1128
  178SOPE  C21120285   0.042   6.089   9.354  0.1854  0.6896  0.0167
  178SOPE  H11R20286   0.057   5.981   9.333  1.9168  0.8103  0.5796
  178SOPE  H11S20287   0.140   6.135   9.381  0.7670 -0.2052 -0.5419
  178SOPE  C21220288  -0.007   6.156   9.223  0.6533 -0.0065  0.3891
  178SOPE  H12R20289  -0.011   6.266   9.237 -0.8137  0.0476 -0.3225
  178SOPE  H12S20290  -0.113   6.136   9.195  0.6723  0.0302  0.2937
  178SOPE  C21320291   0.078   6.113   9.106 -0.1772 -0.1778 -0.1169
  178SOPE  H13R20292   0.048   6.017   9.060 -0.3118 -0.3887  0.4031
  178SOPE  H13S20293   0.183   6.110   9.140 -0.1265 -0.3971 -0.2917
  178SOPE  C21420294   0.054   6.217   8.998  0.2445 -0.0742 -0.4603
  178SOPE  H14R20295   0.085   6.321   9.022  0.4384 -0.8697  2.9627
  178SOPE  H14S20296  -0.050   6.204   8.962 -0.3982 -1.5606  1.8476
  178SOPE  C21520297   0.146   6.175   8.881 -0.6123 -0.1142 -0.8636
  178SOPE  H15R20298   0.116   6.071   8.860 -1.8781  0.4385 -1.7946
  178SOPE  H15S20299   0.254   6.189   8.906 -0.3479  0.7024 -2.3746
  178SOPE  C21620300   0.110   6.262   8.760 -0.4288 -0.3051  0.8876
  178SOPE  H16R20301   0.132   6.369   8.778 -0.3539 -0.0040 -0.8666
  178SOPE  H16S20302   0.001   6.262   8.739 -0.1796  1.5441 -0.5002
  178SOPE  C21720303   0.196   6.242   8.636 -0.0102 -0.4441 -0.2639
  178SOPE  H17R20304   0.214   6.133   8.631  1.3252 -0.1995 -0.9915
  178SOPE  H17S20305   0.292   6.292   8.658 -0.2104  0.8247 -2.0953
  178SOPE  C21820306   0.132   6.281   8.504 -0.5081 -0.4041 -0.0435
  178SOPE  H18R20307   0.037   6.225   8.493 -0.8015  0.2369 -0.8287
  178SOPE  H18S20308   0.205   6.242   8.429  1.0280  1.0023  0.6818
  178SOPE  H18T20309   0.102   6.385   8.481 -2.1182 -0.8081  0.1745
  178SOPE   C3320310  -0.427   6.357   9.820 -0.0062  0.2484 -0.1318
  178SOPE   H3X20311  -0.405   6.460   9.854 -0.3472 -0.1997  1.4931
  178SOPE   H3Y20312  -0.537   6.352   9.807 -0.1291  1.1133  0.5743
  178SOPE   C3420313  -0.357   6.319   9.689  0.0381  0.1349  0.2745
  178SOPE   H4X20314  -0.390   6.215   9.667 -0.1725 -0.2830  2.4154
  178SOPE   H4Y20315  -0.247   6.328   9.704  0.3173 -0.3226 -1.4589
  178SOPE   C3520316  -0.393   6.409   9.569 -1.1040  1.1389  1.1186
  178SOPE   H5X20317  -0.380   6.515   9.599  0.9258  0.7949  1.5620
  178SOPE   H5Y20318  -0.503   6.396   9.558 -0.3901 -2.9714 -2.8312
  178SOPE   C3620319  -0.328   6.372   9.443  0.4994 -0.0641 -0.5405
  178SOPE   H6X20320  -0.344   6.263   9.432  0.9963 -0.4093  1.8272
  178SOPE   H6Y20321  -0.220   6.386   9.467  0.2818  2.6383 -0.9031
  178SOPE   C3720322  -0.376   6.453   9.326 -0.1832  0.2324  0.6685
  178SOPE   H7X20323  -0.363   6.563   9.341  1.7002  0.0793  0.3154
  178SOPE   H7Y20324  -0.482   6.428   9.305  0.8327 -2.4112 -1.5074
  178SOPE   C3820325  -0.318   6.407   9.189  0.4181  0.1386 -0.4064
  178SOPE   H8X20326  -0.346   6.301   9.175  0.3707  0.2072 -0.8652
  178SOPE   H8Y20327  -0.207   6.407   9.200  0.4002 -1.5985 -0.0946
  178SOPE   C3920328  -0.353   6.489   9.058 -0.0912  0.4878  0.1117
  178SOPE   H9X20329  -0.313   6.592   9.072 -2.6203  1.6166 -0.5834
  178SOPE   H9Y20330  -0.463   6.501   9.045 -0.4232 -0.4130  1.8554
  178SOPE  C31020331  -0.305   6.417   8.936  0.0569 -0.1301 -0.5552
  178SOPE  H10X20332  -0.370   6.327   8.931 -0.3210  0.0367  1.0769
  178SOPE  H10Y20333  -0.199   6.385   8.946 -0.5413 -2.1843 -0.3925
  178SOPE  C31120334  -0.335   6.486   8.806  0.0927 -0.0409 -0.1516
  178SOPE  H11X20335  -0.260   6.568   8.815 -0.1603 -0.0291  1.9707
  178SOPE  H11Y20336  -0.437   6.528   8.819 -0.3970 -1.1360 -0.3771
  178SOPE  C31220337  -0.301   6.410   8.683  0.0810  0.2704  0.0090
  178SOPE  H12X20338  -0.209   6.348   8.688  0.7758  1.0538 -2.2189
  178SOPE  H12Y20339  -0.274   6.491   8.611 -0.1478  0.3147 -0.0279
  178SOPE  C31320340  -0.419   6.331   8.622  0.4389 -0.0441 -0.0696
  178SOPE  H13X20341  -0.517   6.383   8.619 -0.7371 -2.0999  1.1206
  178SOPE  H13Y20342  -0.438   6.231   8.666  0.7399  0.5170  1.3467
  178SOPE  C31420343  -0.390   6.315   8.469 -0.1696 -0.4097 -0.0833
  178SOPE  H14X20344  -0.282   6.298   8.447  0.1091  1.6376 -0.3828
  178SOPE  H14Y20345  -0.400   6.414   8.421  1.3159 -0.7004 -1.0454
  178SOPE  C31520346  -0.469   6.203   8.400  0.2117  0.1096  0.1485
  178SOPE  H15X20347  -0.445   6.187   8.292  0.8212  0.2229  0.2656
  178SOPE  H15Y20348  -0.577   6.225   8.417 -0.2982 -0.6714 -1.9101
  178SOPE  C31620349  -0.450   6.062   8.464 -0.5286 -0.0042 -0.0993
  178SOPE  H16X20350  -0.507   6.065   8.559  1.4551 -1.4852  1.1785
  178SOPE  H16Y20351  -0.348   6.023   8.483 -0.5520 -0.8758 -1.6846
  178SOPE  C31720352  -0.518   5.943   8.386  0.2035  0.0827  0.2372
  178SOPE  H17X20353  -0.502   5.948   8.276 -0.1355  0.8401  0.2183
  178SOPE  H17Y20354  -0.629   5.943   8.397  0.1125 -0.5004 -0.6317
  178SOPE  C31820355  -0.467   5.814   8.438 -0.4913  0.0925  0.2348
  178SOPE  H18X20356  -0.357   5.814   8.454 -0.7050 -1.8119  2.0792
  178SOPE  H18Y20357  -0.496   5.720   8.386  0.8111  0.5138 -1.2887
  178SOPE  H18Z20358  -0.511   5.808   8.540 -0.0480  1.2627  0.5002
  179SOPE     N20359   5.561   0.670   6.359 -0.3597  0.0762 -0.5396
  179SOPE   HN120360   5.559   0.595   6.287 -1.2307 -2.6722  2.2259
  179SOPE   HN220361   5.475   0.728   6.360 -1.5166 -1.5956  0.7410
  179SOPE   HN320362   5.645   0.729   6.345 -0.9659  0.6595 -1.8383
  179SOPE   C1220363   5.579   0.615   6.498 -0.5599  0.3769  0.9966
  179SOPE  H12A20364   5.678   0.569   6.518 -1.1065 -0.7586  1.1348
  179SOPE  H12B20365   5.499   0.538   6.505  3.5418 -4.3054 -1.1134
  179SOPE   C1120366   5.558   0.715   6.610 -0.2968 -0.1093 -0.3933
  179SOPE  H11A20367   5.620   0.806   6.594 -0.4349 -0.2969 -2.0950
  179SOPE  H11B20368   5.585   0.677   6.711  0.6192  1.1402 -0.1489
  179SOPE     P20369   5.375   0.896   6.550  0.0212  0.9552 -0.2894
  179SOPE   O1320370   5.230   0.904   6.554  0.1662 -0.2889 -0.0161
  179SOPE   O1420371   5.439   0.920   6.419 -0.0527  0.1606 -0.1099
  179SOPE   O1220372   5.423   0.756   6.608  0.0876 -0.0988 -0.4349
  179SOPE   O1120373   5.444   0.994   6.651 -0.8133  0.8878  0.0681
  179SOPE    C120374   5.374   1.026   6.771  0.9979 -0.5840  0.5644
  179SOPE    HA20375   5.415   0.971   6.859 -0.2335  1.5707  2.5139
  179SOPE    HB20376   5.266   1.003   6.767  0.7446 -0.3935  4.3717
  179SOPE    C220377   5.382   1.181   6.812 -0.2471 -0.2689  0.1921
  179SOPE    HS20378   5.487   1.210   6.788  1.1144 -4.4562  0.6802
  179SOPE   O2120379   5.360   1.198   6.957  0.2955 -0.4098 -0.0459
  179SOPE   C2120380   5.475   1.181   7.028  0.8457  0.3310  0.7511
  179SOPE   O2220381   5.585   1.163   6.982 -0.1561  0.5670 -0.5923
  179SOPE   C2220382   5.450   1.208   7.174  0.3603 -0.2020  0.1828
  179SOPE   H2R20383   5.369   1.138   7.203  1.6258 -1.4109  0.8433
  179SOPE   H2S20384   5.406   1.309   7.187 -1.0622 -0.9215  1.0542
  179SOPE    C320385   5.285   1.265   6.730 -0.4553  0.6658 -0.0653
  179SOPE    HX20386   5.186   1.225   6.761 -0.8437  2.0353  0.4925
  179SOPE    HY20387   5.301   1.253   6.620  1.0133 -1.1856  0.3276
  179SOPE   O3120388   5.297   1.403   6.765 -0.2248  0.0749 -0.4297
  179SOPE   C3120389   5.408   1.465   6.731 -0.1652  0.5033  0.6760
  179SOPE   O3220390   5.504   1.413   6.675 -0.0647 -0.1255  0.1861
  179SOPE   C3220391   5.395   1.616   6.764  0.3714  0.2565  0.0651
  179SOPE   H2X20392   5.298   1.632   6.817  0.5056 -1.2568  0.7943
  179SOPE   H2Y20393   5.393   1.668   6.666  0.1988 -3.3254 -1.9008
  179SOPE   C2320394   5.572   1.192   7.268  0.1695 -0.2187  0.1583
  179SOPE   H3R20395   5.643   1.275   7.247 -0.9471  0.6842 -0.0819
  179SOPE   H3S20396   5.626   1.096   7.248  1.9933  0.9544 -0.7050
  179SOPE   C2420397   5.537   1.190   7.411 -0.3651  0.2393 -0.6154
  179SOPE   H4R20398   5.484   1.284   7.440 -1.8954 -0.3402 -1.4763
  179SOPE   H4S20399   5.463   1.107   7.410 -0.3481  0.2223 -1.9993
  179SOPE   C2520400   5.653   1.165   7.513  0.4736 -0.3863  0.5375
  179SOPE   H5R20401   5.689   1.063   7.488  0.8042  0.2178 -1.4877
  179SOPE   H5S20402   5.741   1.232   7.512  1.2012 -1.2680  2.6801
  179SOPE   C2620403   5.596   1.155   7.662 -0.3549 -0.7054 -0.3338
  179SOPE   H6R20404   5.488   1.132   7.672 -1.0831  1.8276 -1.9998
  179SOPE   H6S20405   5.647   1.069   7.711  0.6762  0.8687  1.4427
  179SOPE   C2720406   5.615   1.282   7.747 -0.5558  0.4232  0.7182
  179SOPE   H7R20407   5.714   1.317   7.712 -0.9389 -0.2989 -1.1540
  179SOPE   H7S20408   5.537   1.359   7.727 -0.2929  1.1855  2.5772
  179SOPE   C2820409   5.627   1.250   7.893 -0.1479 -0.4128 -0.1222
  179SOPE   H8R20410   5.678   1.154   7.916 -1.0607 -0.1936  3.1683
  179SOPE   H8S20411   5.691   1.332   7.931  0.8130 -0.9844 -0.4990
  179SOPE   C2920412   5.492   1.251   7.966  0.6421  0.0755  0.0757
  179SOPE   H9120413   5.413   1.263   7.890  1.5264 -0.4844 -0.9513
  179SOPE  C21020414   5.471   1.275   8.095 -0.1026  0.4002 -0.3101
  179SOPE  H10120415   5.365   1.274   8.125 -0.6773  1.0139 -2.2232
  179SOPE  C21120416   5.573   1.286   8.203 -0.0966  0.2112 -1.5255
  179SOPE  H11R20417   5.678   1.273   8.170  0.1870 -0.0391 -0.5415
  179SOPE  H11S20418   5.547   1.210   8.280  1.4538  1.7650  0.6072
  179SOPE  C21220419   5.564   1.430   8.276  0.2908  0.2216 -0.1138
  179SOPE  H12R20420   5.570   1.507   8.195  1.7939  0.5382  0.2687
  179SOPE  H12S20421   5.651   1.447   8.344  1.7404  1.5803 -2.2315
  179SOPE  C21320422   5.432   1.462   8.349  0.1000  0.1974 -0.2367
  179SOPE  H13R20423   5.446   1.450   8.458 -1.0722 -0.6572 -0.1643
  179SOPE  H13S20424   5.361   1.378   8.328 -0.0030 -0.4172  2.4188
  179SOPE  C21420425   5.375   1.596   8.299 -0.0202 -0.2951  0.6434
  179SOPE  H14R20426   5.341   1.589   8.193  1.1177  1.8388  0.1033
  179SOPE  H14S20427   5.447   1.681   8.302 -1.1236  0.6271  1.2642
  179SOPE  C21520428   5.255   1.646   8.382 -0.2296 -0.1752  0.2452
  179SOPE  H15R20429   5.281   1.640   8.490  2.0066 -0.3971 -0.2822
  179SOPE  H15S20430   5.172   1.573   8.364  1.3871 -2.4916  1.8583
  179SOPE  C21620431   5.211   1.792   8.361  0.2175  0.2031  0.5428
  179SOPE  H16R20432   5.189   1.816   8.255 -1.8256 -2.2859  0.3638
  179SOPE  H16S20433   5.299   1.856   8.384  1.3266 -1.1493  0.1089
  179SOPE  C21720434   5.084   1.840   8.426 -0.3571  0.5218 -0.1981
  179SOPE  H17R20435   5.105   1.826   8.535 -0.5459 -1.8888 -0.4510
  179SOPE  H17S20436   5.001   1.774   8.395 -1.7414  1.8196  0.6974
  179SOPE  C21820437   5.050   1.989   8.416 -0.5861 -0.1931 -0.6503
  179SOPE  H18R20438   5.020   2.019   8.313 -0.0435 -2.6518 -1.5384
  179SOPE  H18S20439   5.142   2.047   8.437  0.4416 -2.0456  0.0345
  179SOPE  H18T20440   4.966   2.016   8.483 -0.9670 -1.8952 -0.4433
  179SOPE   C3320441   5.521   1.669   6.838 -0.3612  0.5891  0.3959
  179SOPE   H3X20442   5.509   1.780   6.845 -3.0461  0.2301  2.2663
  179SOPE   H3Y20443   5.617   1.650   6.786 -0.7775 -1.2852  0.2837
  179SOPE   C3420444   5.523   1.595   6.972  0.9170  0.2149  0.0471
  179SOPE   H4X20445   5.574   1.500   6.946  0.4888 -0.3102  1.1068
  179SOPE   H4Y20446   5.424   1.569   7.015 -0.0950 -0.4139 -2.5600
  179SOPE   C3520447   5.598   1.674   7.079  0.1538 -0.0798  0.1884
  179SOPE   H5X20448   5.541   1.767   7.098  0.2407 -0.3951  2.0800
  179SOPE   H5Y20449   5.693   1.720   7.045  0.4799  0.3145  1.6219
  179SOPE   C3620450   5.619   1.599   7.209  0.0710  0.0575 -0.0634
  179SOPE   H6X20451   5.709   1.534   7.197 -1.3712 -1.8317 -0.9149
  179SOPE   H6Y20452   5.537   1.532   7.240 -0.4779 -1.0289 -3.6117
  179SOPE   C3720453   5.648   1.698   7.327 -0.0268 -0.3986 -0.1725
  179SOPE   H7X20454   5.565   1.772   7.328 -1.1400 -1.5899 -1.3854
  179SOPE   H7Y20455   5.739   1.753   7.298 -0.0614  0.3403  1.0680
  179SOPE   C3820456   5.679   1.616   7.451  0.2891  0.3139 -0.7821
  179SOPE   H8X20457   5.785   1.584   7.441  0.5166 -0.2374  2.7178
  179SOPE   H8Y20458   5.608   1.533   7.472 -0.4215  0.8590 -1.0099
  179SOPE   C3920459   5.699   1.700   7.574  0.3934 -0.2080 -0.1002
  179SOPE   H9X20460   5.599   1.737   7.605 -0.3249 -1.4714 -0.8550
  179SOPE   H9Y20461   5.766   1.785   7.548  2.6459 -1.7077  0.6829
  179SOPE  C31020462   5.776   1.638   7.689  0.0858 -1.0022  0.1309
  179SOPE  H10X20463   5.882   1.645   7.654 -0.3175  0.2408 -0.8968
  179SOPE  H10Y20464   5.749   1.530   7.697  0.4218 -1.1031 -0.0827
  179SOPE  C31120465   5.762   1.704   7.824  0.4482 -0.4118 -0.5133
  179SOPE  H11X20466   5.656   1.694   7.854  0.9198 -0.1638  1.3495
  179SOPE  H11Y20467   5.782   1.813   7.831 -0.1938 -0.2690 -0.9535
  179SOPE  C31220468   5.845   1.636   7.938 -0.4639 -0.2486  1.2353
  179SOPE  H12X20469   5.953   1.642   7.911 -1.0041 -1.7357 -1.3990
  179SOPE  H12Y20470   5.820   1.528   7.950  1.8478 -0.8923  0.5664
  179SOPE  C31320471   5.840   1.727   8.065  0.2549  0.3167  0.5986
  179SOPE  H13X20472   5.738   1.769   8.079  0.2662 -0.5879  3.6696
  179SOPE  H13Y20473   5.922   1.801   8.064  1.3860 -0.9215 -0.6660
  179SOPE  C31420474   5.866   1.641   8.185  0.0981 -0.3227  0.1435
  179SOPE  H14X20475   5.966   1.593   8.177 -0.6169 -1.5575 -1.7807
  179SOPE  H14Y20476   5.798   1.554   8.199  1.1155 -0.7387  2.8529
  179SOPE  C31520477   5.860   1.726   8.320  0.9940 -0.1752  0.0745
  179SOPE  H15X20478   5.759   1.767   8.339  0.5821 -0.5656 -1.1927
  179SOPE  H15Y20479   5.922   1.818   8.304 -0.1156  0.5608 -0.0632
  179SOPE  C31620480   5.917   1.654   8.445  0.0613  0.1201 -0.2102
  179SOPE  H16X20481   5.850   1.567   8.462  0.4073 -0.0072  0.5517
  179SOPE  H16Y20482   5.897   1.733   8.520 -0.2288  2.8398 -3.0312
  179SOPE  C31720483   6.066   1.625   8.433 -0.3707 -0.3019 -0.0177
  179SOPE  H17X20484   6.128   1.714   8.455 -0.6500 -0.0876 -0.0914
  179SOPE  H17Y20485   6.091   1.604   8.326 -1.4690 -1.8546  0.0075
  179SOPE  C31820486   6.114   1.503   8.511  0.4424  0.1787  0.8062
  179SOPE  H18X20487   6.224   1.519   8.514 -0.0351  5.1923 -2.5256
  179SOPE  H18Y20488   6.080   1.415   8.453  0.3814  0.6098  0.1873
  179SOPE  H18Z20489   6.076   1.498   8.616  0.3361 -0.3345  0.7427
  180SOPE     N20490   5.022   0.805   6.445  0.4579  0.3272  0.1321
  180SOPE   HN120491   4.938   0.841   6.495  0.0156  0.6014 -0.7797
  180SOPE   HN220492   5.024   0.702   6.432  4.0730  0.6622 -2.9966
  180SOPE   HN320493   5.105   0.843   6.494  1.6650 -2.1029  0.0109
  180SOPE   C1220494   5.013   0.879   6.318 -0.2706  0.1071 -0.4810
  180SOPE  H12A20495   5.090   0.848   6.245 -1.4582 -0.3075 -1.5815
  180SOPE  H12B20496   5.049   0.981   6.345 -0.7916  0.0851  0.3087
  180SOPE   C1120497   4.870   0.861   6.264  0.5735  0.1947 -0.7560
  180SOPE  H11A20498   4.850   0.757   6.229  1.0804 -0.0787 -0.2558
  180SOPE  H11B20499   4.864   0.925   6.174  0.7403  0.3880 -0.6301
  180SOPE     P20500   4.623   0.939   6.338 -0.0196  0.3565 -0.1249
  180SOPE   O1320501   4.545   0.821   6.289  0.4968 -0.3146  0.2590
  180SOPE   O1420502   4.635   1.060   6.257  1.0398 -0.2748  0.4414
  180SOPE   O1220503   4.771   0.894   6.368  0.0079 -0.6584 -0.0417
  180SOPE   O1120504   4.570   0.991   6.471  0.8866  0.1219 -0.5815
  180SOPE    C120505   4.635   0.990   6.599 -0.3430  0.4748  0.4356
  180SOPE    HA20506   4.728   1.051   6.592  1.3512 -2.1809 -1.0551
  180SOPE    HB20507   4.668   0.888   6.627 -2.5909 -0.6767 -0.9687
  180SOPE    C220508   4.537   1.039   6.713 -1.1880  0.2326 -1.0192
  180SOPE    HS20509   4.604   1.095   6.782  0.2026 -2.9471  0.3155
  180SOPE   O2120510   4.479   0.930   6.789  0.4810  0.3007  0.3794
  180SOPE   C2120511   4.570   0.849   6.854  0.3868 -0.6115  0.5076
  180SOPE   O2220512   4.683   0.885   6.873 -0.9610  0.0544  0.4865
  180SOPE   C2220513   4.500   0.715   6.903  0.4746  0.2173  0.1298
  180SOPE   H2R20514   4.531   0.637   6.830 -1.2895 -1.4839  1.1482
  180SOPE   H2S20515   4.390   0.728   6.913  0.7490  3.6518 -0.7649
  180SOPE    C320516   4.423   1.134   6.657  0.1611 -0.3002 -0.3828
  180SOPE    HX20517   4.368   1.078   6.577 -0.3089 -3.2292  1.9108
  180SOPE    HY20518   4.474   1.218   6.605  1.9293 -0.3671  1.1770
  180SOPE   O3120519   4.326   1.174   6.752  0.0644 -0.1740 -0.3808
  180SOPE   C3120520   4.372   1.266   6.837  0.6827 -0.3179 -0.2310
  180SOPE   O3220521   4.480   1.320   6.827  0.3408 -0.1323  0.6129
  180SOPE   C3220522   4.272   1.299   6.949  0.4064  0.0927  0.2478
  180SOPE   H2X20523   4.294   1.244   7.043  0.2481 -2.4608 -1.1511
  180SOPE   H2Y20524   4.173   1.284   6.902 -0.3543  5.3274 -0.1164
  180SOPE   C2320525   4.571   0.682   7.034  0.4787  0.1651  0.0645
  180SOPE   H3R20526   4.680   0.668   7.024 -0.1139 -3.6972 -1.8798
  180SOPE   H3S20527   4.538   0.582   7.067  1.6597 -0.9793 -2.1323
  180SOPE   C2420528   4.545   0.782   7.149 -0.1662 -0.3601  0.0748
  180SOPE   H4R20529   4.586   0.881   7.119  1.4381 -1.3972 -1.2707
  180SOPE   H4S20530   4.436   0.794   7.164 -0.2813  0.9757 -1.6108
  180SOPE   C2520531   4.606   0.738   7.283 -0.1474 -0.0323  0.3688
  180SOPE   H5R20532   4.714   0.715   7.276  0.6082  3.3686 -0.0941
  180SOPE   H5S20533   4.594   0.828   7.347  0.6038  0.1856  0.2042
  180SOPE   C2620534   4.527   0.629   7.363  0.0074 -0.1340  0.8590
  180SOPE   H6R20535   4.420   0.657   7.363  0.5694  2.2262  2.7918
  180SOPE   H6S20536   4.543   0.529   7.317 -1.4762 -0.8657  1.9116
  180SOPE   C2720537   4.560   0.618   7.515 -0.8314 -0.2270 -0.2982
  180SOPE   H7R20538   4.669   0.639   7.523 -1.3518  1.5949  2.4870
  180SOPE   H7S20539   4.510   0.694   7.578 -0.7486 -0.7876  0.4484
  180SOPE   C2820540   4.526   0.480   7.577  0.1290 -0.6781  0.2156
  180SOPE   H8R20541   4.418   0.457   7.582  0.1449 -0.6207  0.9128
  180SOPE   H8S20542   4.567   0.403   7.509  1.0252  0.7707 -0.9194
  180SOPE   C2920543   4.588   0.460   7.708 -0.3006 -0.2539  0.0857
  180SOPE   H9120544   4.697   0.441   7.703  0.0076  1.2415  0.7262
  180SOPE  C21020545   4.524   0.424   7.825  0.6581 -0.0567 -0.3622
  180SOPE  H10120546   4.587   0.420   7.915 -0.3789 -1.1357  0.3261
  180SOPE  C21120547   4.374   0.405   7.842 -0.0920  0.2192 -0.0289
  180SOPE  H11R20548   4.325   0.312   7.806  3.7260 -2.3991  1.2403
  180SOPE  H11S20549   4.329   0.493   7.793 -2.0891 -0.3690  0.6927
  180SOPE  C21220550   4.322   0.426   7.984  0.3834 -0.3082  0.0569
  180SOPE  H12R20551   4.366   0.522   8.019 -2.1000  1.3839 -1.3340
  180SOPE  H12S20552   4.349   0.334   8.041  0.0641  0.4330  1.4313
  180SOPE  C21320553   4.165   0.442   7.983  0.5875 -0.2314  0.7412
  180SOPE  H13R20554   4.120   0.347   7.946 -0.7981  0.5508  0.3697
  180SOPE  H13S20555   4.130   0.523   7.915  1.6051 -0.3111  0.1047
  180SOPE  C21420556   4.106   0.471   8.119 -0.1708  0.0073  0.6648
  180SOPE  H14R20557   4.167   0.408   8.187  0.3239 -0.2720 -0.0367
  180SOPE  H14S20558   3.999   0.443   8.118 -0.5657  1.4671 -1.3919
  180SOPE  C21520559   4.132   0.614   8.168  0.0094  0.0848 -0.7735
  180SOPE  H15R20560   4.098   0.699   8.105 -1.7191  0.3148  0.4689
  180SOPE  H15S20561   4.240   0.637   8.182 -0.7991  2.9505  1.2815
  180SOPE  C21620562   4.063   0.638   8.306  0.0604  0.5992 -0.3906
  180SOPE  H16R20563   4.098   0.578   8.393 -1.0923 -0.4175 -0.6149
  180SOPE  H16S20564   3.960   0.599   8.295  0.1852  0.2366 -0.2771
  180SOPE  C21720565   4.052   0.788   8.342  0.7048  0.2801  0.1041
  180SOPE  H17R20566   4.135   0.835   8.285  0.2280  0.5415 -0.3721
  180SOPE  H17S20567   4.079   0.804   8.449  0.2712 -1.3650  0.4703
  180SOPE  C21820568   3.919   0.855   8.327 -0.4393  0.2159 -0.5024
  180SOPE  H18R20569   3.934   0.956   8.370  0.1303  0.5268 -1.4061
  180SOPE  H18S20570   3.837   0.800   8.378 -1.8384  0.6601 -2.2486
  180SOPE  H18T20571   3.889   0.873   8.222 -1.4282  0.1747 -0.2287
  180SOPE   C3320572   4.276   1.450   6.992  0.6159 -0.3190 -0.5524
  180SOPE   H3X20573   4.236   1.522   6.917  2.3303 -0.2943 -1.4713
  180SOPE   H3Y20574   4.380   1.478   7.018 -0.0706  0.1115  1.7986
  180SOPE   C3420575   4.190   1.471   7.123 -0.6011  0.0375  1.1755
  180SOPE   H4X20576   4.198   1.581   7.135  1.7131 -0.0932  1.2164
  180SOPE   H4Y20577   4.243   1.422   7.207  0.2972  0.8340  1.0865
  180SOPE   C3520578   4.046   1.422   7.119  0.0510 -0.7700 -0.3194
  180SOPE   H5X20579   4.041   1.311   7.123 -0.2890 -0.8982 -3.2266
  180SOPE   H5Y20580   3.997   1.448   7.022 -0.6875 -1.2538 -0.0770
  180SOPE   C3620581   3.965   1.492   7.235 -0.3272 -0.0022 -0.4519
  180SOPE   H6X20582   3.861   1.454   7.226 -1.4981  2.8849  0.4211
  180SOPE   H6Y20583   3.960   1.602   7.221 -1.9887  0.0040  0.0700
  180SOPE   C3720584   4.023   1.475   7.374  0.7370 -0.7694 -0.0942
  180SOPE   H7X20585   4.126   1.516   7.368  1.2095 -2.1197 -1.6765
  180SOPE   H7Y20586   4.043   1.368   7.399  1.5148 -0.3618  1.0567
  180SOPE   C3820587   3.928   1.537   7.474 -0.3757  0.4493 -0.1926
  180SOPE   H8X20588   3.841   1.468   7.481 -0.2297  0.3511  0.8472
  180SOPE   H8Y20589   3.891   1.639   7.454  0.1490  0.4085 -1.4042
  180SOPE   C3920590   3.968   1.536   7.626  0.3967 -0.1943  0.0109
  180SOPE   H9X20591   4.073   1.560   7.654  0.5422  0.0044 -0.7144
  180SOPE   H9Y20592   3.937   1.439   7.671  3.0612 -1.6470 -1.1376
  180SOPE  C31020593   3.889   1.651   7.697  0.6089 -0.7031 -0.2177
  180SOPE  H10X20594   3.915   1.747   7.649  1.3186 -1.4969 -1.4426
  180SOPE  H10Y20595   3.941   1.650   7.795  1.2487  1.9147 -0.5111
  180SOPE  C31120596   3.742   1.624   7.706  0.4476  0.1103  0.1073
  180SOPE  H11X20597   3.728   1.514   7.714  0.4228  0.2278  1.7396
  180SOPE  H11Y20598   3.685   1.655   7.616 -0.5418 -0.9005  0.3770
  180SOPE  C31220599   3.682   1.696   7.834  0.0464 -0.0266 -0.2623
  180SOPE  H12X20600   3.572   1.693   7.819 -0.5269  0.5734  3.3181
  180SOPE  H12Y20601   3.712   1.802   7.832 -1.4986  0.4062 -1.2232
  180SOPE  C31320602   3.711   1.627   7.966  0.1616  0.1290  0.1377
  180SOPE  H13X20603   3.820   1.613   7.983  0.1363 -1.0145 -0.6361
  180SOPE  H13Y20604   3.679   1.521   7.969 -0.5413  0.3464  0.6380
  180SOPE  C31420605   3.647   1.706   8.088 -0.7776  0.6804  0.1835
  180SOPE  H14X20606   3.536   1.695   8.083 -0.7116  0.5694 -1.3648
  180SOPE  H14Y20607   3.676   1.812   8.078 -1.5020  0.8184 -0.4923
  180SOPE  C31520608   3.692   1.671   8.232 -0.5533 -0.0663 -0.2053
  180SOPE  H15X20609   3.703   1.561   8.239  0.6795  0.0730  0.1813
  180SOPE  H15Y20610   3.624   1.707   8.312 -3.5237  0.1660 -2.7109
  180SOPE  C31620611   3.833   1.733   8.268  0.6972 -0.1285  0.3943
  180SOPE  H16X20612   3.822   1.841   8.244 -2.9275 -0.6311 -0.5184
  180SOPE  H16Y20613   3.912   1.690   8.203  0.0129  0.3305 -0.7624
  180SOPE  C31720614   3.864   1.706   8.417 -0.0518  0.2761  0.1206
  180SOPE  H17X20615   3.970   1.739   8.426  0.0044  0.3329 -0.6785
  180SOPE  H17Y20616   3.865   1.598   8.441 -0.2105 -0.0564 -1.2924
  180SOPE  C31820617   3.778   1.779   8.525  0.1147  0.2507  0.3532
  180SOPE  H18X20618   3.678   1.733   8.538 -0.0022 -0.3509 -2.3311
  180SOPE  H18Y20619   3.766   1.879   8.480  1.8334 -0.0921 -0.9570
  180SOPE  H18Z20620   3.832   1.798   8.620  2.7859 -1.2853 -0.7895
  181SOPE     N20621   3.868   5.050   6.111 -0.2693  0.1476  0.4068
  181SOPE   HN120622   3.880   4.946   6.107 -0.3842  0.1113  0.9869
  181SOPE   HN220623   3.862   5.099   6.019  0.0565  0.5635  0.6138
  181SOPE   HN320624   3.959   5.066   6.157  0.3834 -2.0135 -0.0759
  181SOPE   C1220625   3.747   5.101   6.184 -1.1016 -0.2239 -0.6099
  181SOPE  H12A20626   3.729   5.031   6.268 -0.5709 -1.4081 -1.4633
  181SOPE  H12B20627   3.663   5.102   6.112 -1.0229  4.7456 -0.8150
  181SOPE   C1120628   3.771   5.241   6.228  0.3926 -0.4852 -0.8450
  181SOPE  H11A20629   3.851   5.243   6.305 -1.3308 -2.1996  1.0452
  181SOPE  H11B20630   3.682   5.272   6.286  0.6747 -1.1178 -0.0611
  181SOPE     P20631   3.692   5.418   6.056  0.0218  0.2417 -0.2161
  181SOPE   O1320632   3.576   5.332   6.031  0.9579 -0.4693  0.0304
  181SOPE   O1420633   3.750   5.495   5.945  0.5699 -0.2723 -0.0038
  181SOPE   O1220634   3.802   5.335   6.127 -0.2656  0.3506  0.2394
  181SOPE   O1120635   3.644   5.523   6.161  0.0994  0.5575  0.2929
  181SOPE    C120636   3.715   5.638   6.206 -0.6281  0.1736  0.1064
  181SOPE    HA20637   3.631   5.707   6.226 -0.0004  1.2519 -0.8590
  181SOPE    HB20638   3.771   5.689   6.124  0.7389 -2.0177 -0.3649
  181SOPE    C220639   3.802   5.621   6.335 -0.2409 -0.0897 -0.0404
  181SOPE    HS20640   3.879   5.547   6.307 -1.9179 -0.9216 -2.5833
  181SOPE   O2120641   3.714   5.564   6.434 -0.3730 -0.1075  0.2440
  181SOPE   C2120642   3.778   5.503   6.525 -0.5916  0.6056 -0.2390
  181SOPE   O2220643   3.894   5.458   6.520  0.0878 -0.1949  0.8056
  181SOPE   C2220644   3.685   5.470   6.638 -0.1333  0.1614  0.0326
  181SOPE   H2R20645   3.668   5.360   6.633 -0.4509  0.1359  1.4799
  181SOPE   H2S20646   3.589   5.523   6.620  0.7757  2.3576  1.5566
  181SOPE    C320647   3.866   5.760   6.368  0.1920 -0.5201 -0.3907
  181SOPE    HX20648   3.789   5.822   6.420  1.1436  0.2109  0.1762
  181SOPE    HY20649   3.891   5.805   6.270  1.3634  2.4805  1.2151
  181SOPE   O3120650   3.981   5.747   6.452 -0.1756  0.7041 -0.4833
  181SOPE   C3120651   4.090   5.728   6.380  0.2606 -0.1652  0.3778
  181SOPE   O3220652   4.096   5.738   6.256 -0.2293  0.2384  0.8067
  181SOPE   C3220653   4.204   5.701   6.472 -0.0532 -0.7849 -0.6660
  181SOPE   H2X20654   4.255   5.796   6.501  0.6084 -1.6054  0.9299
  181SOPE   H2Y20655   4.282   5.642   6.420  0.1360 -0.2559 -0.9898
  181SOPE   C2320656   3.737   5.490   6.782 -0.0653  0.0066  0.1108
  181SOPE   H3R20657   3.732   5.598   6.807  0.1866 -0.1166  0.6917
  181SOPE   H3S20658   3.846   5.468   6.790  0.1500  0.6551 -0.8963
  181SOPE   C2420659   3.672   5.420   6.896  0.7395  0.1041 -0.0500
  181SOPE   H4R20660   3.566   5.452   6.904  0.6151 -0.1031 -0.8684
  181SOPE   H4S20661   3.670   5.312   6.870  2.6794  0.3986 -1.4980
  181SOPE   C2520662   3.746   5.442   7.026 -0.1611  0.4899 -0.5806
  181SOPE   H5R20663   3.855   5.430   7.008  0.0214  0.9663  0.1687
  181SOPE   H5S20664   3.733   5.541   7.076 -1.1744  0.0489  0.0480
  181SOPE   C2620665   3.709   5.333   7.139  0.5228  0.3377  0.0732
  181SOPE   H6R20666   3.600   5.338   7.159  1.1541  0.3773  3.9497
  181SOPE   H6S20667   3.740   5.237   7.093 -0.4326 -0.2883  0.7256
  181SOPE   C2720668   3.780   5.359   7.270 -0.0214 -0.4152  1.3509
  181SOPE   H7R20669   3.785   5.264   7.327  1.6089 -0.3185  1.4118
  181SOPE   H7S20670   3.885   5.395   7.264 -0.7245  1.3152 -1.5065
  181SOPE   C2820671   3.703   5.460   7.357  0.6036 -0.0981  0.3491
  181SOPE   H8R20672   3.766   5.496   7.440  0.3544  0.2602  0.3807
  181SOPE   H8S20673   3.675   5.558   7.313  0.2301 -0.3050  0.1192
  181SOPE   C2920674   3.575   5.401   7.413  0.4296  0.7020  0.1410
  181SOPE   H9120675   3.509   5.361   7.335  0.6066  0.5460  0.0717
  181SOPE  C21020676   3.545   5.379   7.540 -0.5207  0.1260 -0.3760
  181SOPE  H10120677   3.445   5.338   7.562 -1.3044  1.4060 -1.5368
  181SOPE  C21120678   3.627   5.401   7.664  0.4314  0.0433 -0.2718
  181SOPE  H11R20679   3.605   5.503   7.700  1.4660  0.5077 -0.9015
  181SOPE  H11S20680   3.735   5.396   7.635  0.7492  4.7459 -0.2472
  181SOPE  C21220681   3.600   5.309   7.782 -0.5503  0.4905  0.4196
  181SOPE  H12R20682   3.694   5.284   7.835  0.0498  1.1552 -0.3279
  181SOPE  H12S20683   3.542   5.219   7.752 -1.7144  1.1556  0.6351
  181SOPE  C21320684   3.516   5.374   7.897  0.2894 -0.2545  0.0924
  181SOPE  H13R20685   3.442   5.441   7.850  1.8666 -0.9925 -3.5799
  181SOPE  H13S20686   3.581   5.457   7.933  0.7329 -1.0962  1.2845
  181SOPE  C21420687   3.483   5.288   8.025  0.2902 -0.0582  0.0917
  181SOPE  H14R20688   3.587   5.260   8.053 -0.0453  2.7978  4.6762
  181SOPE  H14S20689   3.416   5.204   7.998  1.9820 -1.0066 -1.2597
  181SOPE  C21520690   3.419   5.378   8.129  0.3514 -0.2490 -0.2638
  181SOPE  H15R20691   3.313   5.398   8.102 -0.0804  1.6685  2.5895
  181SOPE  H15S20692   3.468   5.477   8.144 -1.2706  0.4849  0.3430
  181SOPE  C21620693   3.431   5.300   8.262 -0.0708 -0.0590 -0.6214
  181SOPE  H16R20694   3.535   5.306   8.302 -0.4871 -0.4333  0.5488
  181SOPE  H16S20695   3.414   5.190   8.257 -1.7348  0.1057  0.9663
  181SOPE  C21720696   3.347   5.353   8.375  0.3442 -0.2917  0.3889
  181SOPE  H17R20697   3.340   5.264   8.441 -1.0789  0.5319  1.3701
  181SOPE  H17S20698   3.240   5.372   8.350  0.1229 -1.2520  0.5762
  181SOPE  C21820699   3.418   5.463   8.449  0.2176 -0.0057 -0.0733
  181SOPE  H18R20700   3.498   5.507   8.385  0.1211 -0.8046 -0.7531
  181SOPE  H18S20701   3.460   5.423   8.544 -1.9116 -1.9857  0.0637
  181SOPE  H18T20702   3.350   5.546   8.479 -1.4495 -1.7623  1.1110
  181SOPE   C3320703   4.179   5.619   6.598 -0.3553 -0.3055  0.2376
  181SOPE   H3X20704   4.279   5.595   6.639  0.1803 -0.3345 -1.0684
  181SOPE   H3Y20705   4.125   5.523   6.580  0.7144 -0.3520 -3.0296
  181SOPE   C3420706   4.132   5.698   6.719  0.8520 -0.3398  0.0477
  181SOPE   H4X20707   4.023   5.711   6.702  0.8922 -0.2156 -0.1245
  181SOPE   H4Y20708   4.189   5.792   6.728 -3.2648  2.4699 -1.4838
  181SOPE   C3520709   4.146   5.615   6.840 -0.8322  0.7913 -0.1675
  181SOPE   H5X20710   4.253   5.591   6.861 -0.5442  2.0171 -0.2138
  181SOPE   H5Y20711   4.089   5.522   6.821  0.8440 -0.3062  0.0326
  181SOPE   C3620712   4.072   5.684   6.959  0.2304  0.2594  0.1418
  181SOPE   H6X20713   3.962   5.673   6.947  0.3462 -1.4507  0.6468
  181SOPE   H6Y20714   4.097   5.792   6.952  3.0119 -0.3813 -0.5897
  181SOPE   C3720715   4.124   5.645   7.098 -1.0222  0.5652 -0.4125
  181SOPE   H7X20716   4.229   5.679   7.104 -1.0973  0.8142 -0.4724
  181SOPE   H7Y20717   4.134   5.535   7.108  1.9226  0.8851  0.6331
  181SOPE   C3820718   4.031   5.702   7.203 -0.1550  0.5601  0.9106
  181SOPE   H8X20719   3.931   5.657   7.182  0.4385  1.0187 -3.3995
  181SOPE   H8Y20720   4.023   5.809   7.176  0.4875  1.1897  3.1219
  181SOPE   C3920721   4.081   5.657   7.345  0.4613  0.1689  0.6531
  181SOPE   H9X20722   4.189   5.678   7.359  0.2066  1.3621  0.9228
  181SOPE   H9Y20723   4.065   5.548   7.356  0.7863 -0.1910 -2.1032
  181SOPE  C31020724   4.018   5.729   7.467  0.2226  0.1133 -0.5520
  181SOPE  H10X20725   3.910   5.740   7.445 -0.2952 -1.4341  1.0341
  181SOPE  H10Y20726   4.069   5.827   7.480  2.7350 -0.9419 -2.1076
  181SOPE  C31120727   4.025   5.655   7.601 -0.1432  0.2150  0.7156
  181SOPE  H11X20728   4.135   5.644   7.618  0.0700 -1.9206 -1.7068
  181SOPE  H11Y20729   3.966   5.562   7.595 -1.6506  0.9954  2.9434
  181SOPE  C31220730   3.970   5.744   7.720  0.3472 -0.2354  0.5872
  181SOPE  H12X20731   4.048   5.819   7.744  0.9506 -0.6715  0.0062
  181SOPE  H12Y20732   3.969   5.672   7.804 -1.3942 -1.7222 -0.6603
  181SOPE  C31320733   3.831   5.794   7.698 -0.4424 -0.2980 -0.0446
  181SOPE  H13X20734   3.776   5.702   7.670  1.3815 -0.7352 -2.3265
  181SOPE  H13Y20735   3.835   5.858   7.607  2.9729 -0.9383 -0.4015
  181SOPE  C31420736   3.781   5.859   7.827  0.9339 -0.7401  0.4988
  181SOPE  H14X20737   3.682   5.906   7.808  0.5606 -1.5890  0.2954
  181SOPE  H14Y20738   3.846   5.943   7.857  0.6687 -0.2521 -0.2673
  181SOPE  C31520739   3.757   5.750   7.932 -0.0466  0.3231 -0.0185
  181SOPE  H15X20740   3.853   5.734   7.985  0.8307 -2.4326 -2.3571
  181SOPE  H15Y20741   3.720   5.658   7.882 -0.9200  1.1857 -1.0012
  181SOPE  C31620742   3.658   5.786   8.041  0.0365  0.2384  0.2597
  181SOPE  H16X20743   3.558   5.803   7.994 -0.7644 -2.6337  0.8413
  181SOPE  H16Y20744   3.684   5.887   8.081  1.7504 -0.1098  0.0487
  181SOPE  C31720745   3.657   5.685   8.159 -0.3876  0.2244 -0.8442
  181SOPE  H17X20746   3.668   5.582   8.119 -0.3689  0.4870 -1.5143
  181SOPE  H17Y20747   3.567   5.700   8.222  0.6805  0.4868  0.6470
  181SOPE  C31820748   3.776   5.707   8.245 -0.2229  0.2135 -0.1269
  181SOPE  H18X20749   3.873   5.690   8.194 -0.7315 -2.3064 -0.3534
  181SOPE  H18Y20750   3.782   5.630   8.325 -1.8121 -1.6237 -1.6948
  181SOPE  H18Z20751   3.769   5.809   8.288  0.8402 -1.2747  3.8485
  182SOPE     N20752   4.989   0.438   5.882  0.1825 -0.1619  0.0611
  182SOPE   HN120753   5.027   0.516   5.825 -2.9678  1.1745 -0.3062
  182SOPE   HN220754   5.050   0.422   5.965  1.2799  0.1967 -0.6586
  182SOPE   HN320755   5.008   0.355   5.822  0.2511 -0.7821  0.9307
  182SOPE   C1220756   4.840   0.440   5.908  0.4004  0.3250  0.0218
  182SOPE  H12A20757   4.799   0.349   5.859  4.6067 -0.8877 -1.4822
  182SOPE  H12B20758   4.798   0.539   5.878 -1.5226 -0.8008 -1.1046
  182SOPE   C1120759   4.800   0.413   6.056 -0.0038  0.0607  0.4223
  182SOPE  H11A20760   4.835   0.309   6.072 -0.8465 -0.0354  1.7203
  182SOPE  H11B20761   4.692   0.416   6.082 -0.3726  0.6823 -1.0799
  182SOPE     P20762   5.003   0.444   6.229  0.6210  0.4635 -0.2968
  182SOPE   O1320763   5.027   0.539   6.343 -0.4312 -0.1666  0.3461
  182SOPE   O1420764   5.111   0.436   6.122 -0.2615 -0.4406  0.1822
  182SOPE   O1220765   4.872   0.493   6.149 -0.3047  0.3063 -0.0008
  182SOPE   O1120766   4.972   0.299   6.286 -0.1861  0.3057 -0.1655
  182SOPE    C120767   4.837   0.279   6.344  0.1100  0.0860  0.2224
  182SOPE    HA20768   4.798   0.176   6.329  0.9579 -0.0233 -1.3489
  182SOPE    HB20769   4.751   0.337   6.303  0.1738  1.2879  1.7393
  182SOPE    C220770   4.832   0.301   6.499  0.5283  0.6151 -0.8204
  182SOPE    HS20771   4.836   0.412   6.507  0.5703  0.4092  2.9076
  182SOPE   O2120772   4.956   0.248   6.543  0.5475  0.3468  0.6783
  182SOPE   C2120773   5.003   0.310   6.654 -0.4714  0.0845  0.7475
  182SOPE   O2220774   4.963   0.416   6.697  0.6827 -0.6316 -0.1243
  182SOPE   C2220775   5.127   0.235   6.694  0.2014  0.1779 -0.0094
  182SOPE   H2R20776   5.217   0.293   6.665 -0.8605  1.0380 -1.7162
  182SOPE   H2S20777   5.129   0.140   6.637 -2.1562 -0.7758  1.4295
  182SOPE    C320778   4.713   0.239   6.574 -0.6642 -0.4675  0.0407
  182SOPE    HX20779   4.719   0.128   6.562  1.9510 -0.3872  0.3949
  182SOPE    HY20780   4.624   0.272   6.516  2.2030  2.4864 -2.8780
  182SOPE   O3120781   4.715   0.264   6.713  0.0982 -0.5176 -0.2863
  182SOPE   C3120782   4.619   0.329   6.775  1.0875 -0.1558 -0.4602
  182SOPE   O3220783   4.509   0.363   6.727 -0.1938  0.2858  0.1684
  182SOPE   C3220784   4.659   0.321   6.917 -0.4078 -0.0491 -0.6627
  182SOPE   H2X20785   4.655   0.424   6.959 -2.9749 -1.1460  1.9608
  182SOPE   H2Y20786   4.761   0.281   6.932 -1.0144 -1.6142 -0.6140
  182SOPE   C2320787   5.126   0.211   6.842  0.5766  0.0171  0.3415
  182SOPE   H3R20788   5.116   0.305   6.900 -1.2944  0.2374 -0.2903
  182SOPE   H3S20789   5.225   0.171   6.870  0.1350 -1.3722 -0.0410
  182SOPE   C2420790   5.015   0.116   6.886  0.2267  0.4159  0.7981
  182SOPE   H4R20791   4.924   0.140   6.827  1.1869 -0.7420 -1.2253
  182SOPE   H4S20792   5.049   0.019   6.844 -2.5146 -0.5881  0.8056
  182SOPE   C2520793   4.994   0.116   7.033  0.0370 -0.1447  0.3770
  182SOPE   H5R20794   4.927   0.199   7.063  0.0965 -0.4183  1.2699
  182SOPE   H5S20795   4.927   0.028   7.045  1.1957 -1.0488  0.4441
  182SOPE   C2620796   5.125   0.118   7.111 -0.5522 -0.3264 -0.2707
  182SOPE   H6R20797   5.170   0.020   7.084  1.1013  0.2148  0.4912
  182SOPE   H6S20798   5.194   0.203   7.092  0.3899 -1.2454 -1.0848
  182SOPE   C2720799   5.090   0.115   7.259  0.1801  0.5721  0.3306
  182SOPE   H7R20800   5.042   0.214   7.275 -1.8603 -0.4261  0.5844
  182SOPE   H7S20801   5.014   0.034   7.273  0.9975 -0.9183 -3.4627
  182SOPE   C2820802   5.212   0.093   7.347  0.0551 -0.4282  0.4467
  182SOPE   H8R20803   5.236  -0.015   7.360 -1.1452 -0.5709  1.6862
  182SOPE   H8S20804   5.303   0.145   7.311  0.5246 -1.0657  0.7055
  182SOPE   C2920805   5.183   0.153   7.481 -0.3718  0.4143  0.7335
  182SOPE   H9120806   5.183   0.263   7.478 -2.2201  0.4639  1.7513
  182SOPE  C21020807   5.174   0.091   7.603 -0.1449  0.2262 -0.1403
  182SOPE  H10120808   5.153   0.152   7.692 -0.7601  1.8869 -1.3931
  182SOPE  C21120809   5.185  -0.057   7.618  0.9760  1.2374  0.0253
  182SOPE  H11R20810   5.232  -0.107   7.531  4.3700  2.9451  0.7514
  182SOPE  H11S20811   5.084  -0.097   7.640  0.1668  3.0532 -0.2893
  182SOPE  C21220812   5.274  -0.088   7.740 -0.0911  0.1946 -0.2628
  182SOPE  H12R20813   5.283  -0.198   7.742  2.4922  0.3530 -0.5789
  182SOPE  H12S20814   5.228  -0.054   7.835 -0.2985 -0.2275 -0.2112
  182SOPE  C21320815   5.418  -0.023   7.735 -0.3905  0.1354 -0.1090
  182SOPE  H13R20816   5.409   0.084   7.763  0.2509  0.0417  0.4913
  182SOPE  H13S20817   5.461  -0.022   7.632  2.5968  0.5997  1.0852
  182SOPE  C21420818   5.523  -0.084   7.827 -0.1728  0.3149 -0.5340
  182SOPE  H14R20819   5.619  -0.032   7.808 -0.4231  1.3152  0.8588
  182SOPE  H14S20820   5.546  -0.191   7.810 -0.3913  0.0538  0.8113
  182SOPE  C21520821   5.488  -0.065   7.978 -0.7108 -0.3598  0.2380
  182SOPE  H15R20822   5.412  -0.141   8.006 -3.8485  2.9701  1.3144
  182SOPE  H15S20823   5.439   0.034   7.993 -0.6794 -0.1174 -1.2255
  182SOPE  C21620824   5.614  -0.059   8.069  0.1415 -0.6577 -0.3474
  182SOPE  H16R20825   5.669   0.036   8.053 -0.3435 -0.2806  0.1687
  182SOPE  H16S20826   5.682  -0.143   8.046  2.4033  1.4726 -1.6281
  182SOPE  C21720827   5.583  -0.051   8.215 -0.2744 -0.1134  0.2771
  182SOPE  H17R20828   5.519  -0.137   8.244 -1.9689  1.5283  1.5643
  182SOPE  H17S20829   5.530   0.043   8.242  0.1456  0.2478 -0.1510
  182SOPE  C21820830   5.718  -0.066   8.298 -0.0759  0.3099 -0.1738
  182SOPE  H18R20831   5.757  -0.169   8.284  0.1241  0.4620 -0.7567
  182SOPE  H18S20832   5.700  -0.066   8.407  2.1666 -1.1384  0.2057
  182SOPE  H18T20833   5.803  -0.004   8.264 -0.9625  1.0902 -1.0030
  182SOPE   C3320834   4.572   0.218   6.990  0.4944  0.5881  0.0616
  182SOPE   H3X20835   4.581   0.124   6.931 -0.7508  0.0686  0.6834
  182SOPE   H3Y20836   4.462   0.231   6.998  0.2611 -0.9985 -0.3408
  182SOPE   C3420837   4.622   0.191   7.131  0.7697  0.0676 -0.0437
  182SOPE   H4X20838   4.588   0.279   7.189 -1.1477 -2.7020  3.2572
  182SOPE   H4Y20839   4.733   0.186   7.126  0.9138  0.0947  2.3035
  182SOPE   C3520840   4.562   0.065   7.184  0.3788  0.0650 -0.6302
  182SOPE   H5X20841   4.613  -0.017   7.131  0.9605 -0.8182  1.2387
  182SOPE   H5Y20842   4.458   0.070   7.144  0.7713 -0.1255 -1.6828
  182SOPE   C3620843   4.576   0.052   7.339 -0.0278  0.1836  0.5708
  182SOPE   H6X20844   4.530  -0.048   7.355 -2.5661  1.0475 -0.9606
  182SOPE   H6Y20845   4.508   0.122   7.392 -1.4793 -0.7389 -0.0436
  182SOPE   C3720846   4.725   0.048   7.374 -0.1282 -0.0819 -0.2324
  182SOPE   H7X20847   4.762   0.152   7.382 -0.2071 -0.1171  0.6663
  182SOPE   H7Y20848   4.774  -0.004   7.289  0.7861  0.6921 -0.1830
  182SOPE   C3820849   4.752  -0.041   7.501  0.0157  0.8031  0.1237
  182SOPE   H8X20850   4.862  -0.057   7.499  0.1148  1.2165  1.9683
  182SOPE   H8Y20851   4.708  -0.142   7.485  1.6444  0.0275  0.4119
  182SOPE   C3920852   4.714   0.030   7.626 -0.4113  0.1882 -0.8688
  182SOPE   H9X20853   4.604   0.014   7.636 -0.6276  0.3554 -2.8238
  182SOPE   H9Y20854   4.723   0.140   7.633 -0.6082  0.1933 -0.6708
  182SOPE  C31020855   4.782  -0.032   7.752  0.0149 -0.6322 -0.2137
  182SOPE  H10X20856   4.888   0.000   7.745 -0.4349  1.1177  0.8623
  182SOPE  H10Y20857   4.778  -0.143   7.745 -1.1651 -0.6703  1.0872
  182SOPE  C31120858   4.726   0.027   7.880 -0.5641  0.4714 -0.5729
  182SOPE  H11X20859   4.616   0.008   7.886 -0.3769  0.3136  4.3474
  182SOPE  H11Y20860   4.740   0.137   7.890 -0.0371  0.2556  1.4344
  182SOPE  C31220861   4.791  -0.033   8.008  0.6167 -0.6185  0.5915
  182SOPE  H12X20862   4.899  -0.009   8.019  0.8653 -0.9883 -0.9180
  182SOPE  H12Y20863   4.775  -0.143   8.013 -1.9699 -0.3537 -0.6184
  182SOPE  C31320864   4.724   0.027   8.140  0.4147  0.8634 -0.2697
  182SOPE  H13X20865   4.615   0.013   8.122  0.2292 -0.0877  1.4234
  182SOPE  H13Y20866   4.751   0.134   8.137  0.6293  0.7840 -1.3512
  182SOPE  C31420867   4.776  -0.038   8.270 -0.3754 -0.7633 -0.2929
  182SOPE  H14X20868   4.884  -0.013   8.277 -0.3854 -0.6152 -0.6561
  182SOPE  H14Y20869   4.767  -0.149   8.263 -0.2988 -0.8652  1.1798
  182SOPE  C31520870   4.706   0.015   8.398  0.7586  0.5485  0.6628
  182SOPE  H15X20871   4.747  -0.052   8.476  1.4979  1.8649  1.4202
  182SOPE  H15Y20872   4.596  -0.003   8.395  0.8245  0.2747 -0.5145
  182SOPE  C31620873   4.752   0.159   8.426 -0.2314  0.3251  0.1094
  182SOPE  H16X20874   4.705   0.234   8.358  1.1524 -0.3037 -1.5387
  182SOPE  H16Y20875   4.859   0.176   8.406 -0.1088  0.5851  0.9542
  182SOPE  C31720876   4.725   0.217   8.568 -0.1207  0.7584 -0.3017
  182SOPE  H17X20877   4.760   0.323   8.572  0.1700  0.7369 -1.8341
  182SOPE  H17Y20878   4.794   0.148   8.621 -0.8603  1.7878  2.0750
  182SOPE  C31820879   4.575   0.216   8.603  0.4569 -0.8394 -0.2761
  182SOPE  H18X20880   4.556   0.273   8.696 -1.9239 -2.2989  0.1620
  182SOPE  H18Y20881   4.551   0.108   8.616  4.5477 -1.6468  1.5552
  182SOPE  H18Z20882   4.512   0.248   8.517 -0.1769 -0.0466  0.4816
  183SOPE     N20883   6.619   4.846   6.166 -0.2364  0.3978 -0.1642
  183SOPE   HN120884   6.713   4.841   6.122  0.0759  0.0501  0.5250
  183SOPE   HN220885   6.570   4.759   6.138  0.0669  0.9795 -2.6443
  183SOPE   HN320886   6.560   4.926   6.136 -0.8226 -0.5327 -1.5101
  183SOPE   C1220887   6.630   4.839   6.318 -0.5172  0.1282 -1.6334
  183SOPE  H12A20888   6.525   4.835   6.352 -1.1151 -3.0339 -3.6080
  183SOPE  H12B20889   6.678   4.933   6.354  0.1179 -0.6318 -0.4498
  183SOPE   C1120890   6.715   4.723   6.368 -0.2083  0.4526  0.4890
  183SOPE  H11A20891   6.655   4.631   6.350 -0.6398  0.9743 -0.8228
  183SOPE  H11B20892   6.717   4.730   6.479  1.5404 -0.2976  0.5107
  183SOPE     P20893   6.973   4.777   6.370  0.1624  0.3589  0.1250
  183SOPE   O1320894   7.005   4.890   6.278 -0.0900  0.7884  0.8542
  183SOPE   O1420895   7.086   4.677   6.376 -0.0229 -0.2816 -0.1943
  183SOPE   O1220896   6.849   4.703   6.309 -0.3569 -0.1738  0.3588
  183SOPE   O1120897   6.932   4.836   6.514 -0.3075 -0.1526  0.3417
  183SOPE    C120898   7.003   4.947   6.570 -0.4779 -0.0049 -0.5814
  183SOPE    HA20899   6.950   5.043   6.557 -1.5784 -0.5294  0.0349
  183SOPE    HB20900   7.111   4.949   6.542  1.0043 -0.7922  4.5232
  183SOPE    C220901   7.032   4.925   6.722 -0.0546  0.3525 -0.0680
  183SOPE    HS20902   7.039   5.026   6.769 -1.5081  0.0818  0.7607
  183SOPE   O2120903   7.158   4.858   6.742 -0.4735  0.2025  0.1386
  183SOPE   C2120904   7.236   4.903   6.847 -0.5978 -0.7034 -0.1170
  183SOPE   O2220905   7.210   4.993   6.927 -0.1381 -0.3676  0.2945
  183SOPE   C2220906   7.354   4.795   6.870 -0.3799  0.1278  0.3572
  183SOPE   H2R20907   7.449   4.851   6.859  0.6540 -1.2910  1.9853
  183SOPE   H2S20908   7.343   4.720   6.789 -1.1506  1.2210 -0.5783
  183SOPE    C320909   6.921   4.842   6.790  0.0256  0.1786 -0.3233
  183SOPE    HX20910   6.916   4.750   6.728  2.7016  0.3918 -0.9022
  183SOPE    HY20911   6.819   4.885   6.778 -1.5953 -2.8440  1.9951
  183SOPE   O3120912   6.948   4.811   6.931 -0.4298 -0.2132 -0.9069
  183SOPE   C3120913   6.891   4.887   7.019  1.0148  1.4782  0.2160
  183SOPE   O3220914   6.809   4.974   7.004 -0.1313  0.2268 -0.0290
  183SOPE   C3220915   6.939   4.829   7.158  0.3744  0.4056 -0.1218
  183SOPE   H2X20916   7.050   4.840   7.163  0.5710 -0.9801 -1.0785
  183SOPE   H2Y20917   6.907   4.723   7.160 -1.3879  0.9347 -0.0649
  183SOPE   C2320918   7.351   4.740   7.015 -0.4405  0.6245 -0.1362
  183SOPE   H3R20919   7.415   4.650   7.021 -0.3102  0.8695  3.8620
  183SOPE   H3S20920   7.245   4.710   7.030 -0.1045 -0.4850  0.0642
  183SOPE   C2420921   7.388   4.841   7.126 -0.4746  0.4354 -0.1376
  183SOPE   H4R20922   7.488   4.886   7.114  0.6163 -1.6427  0.9641
  183SOPE   H4S20923   7.307   4.917   7.136 -0.2367  0.5122  1.2153
  183SOPE   C2520924   7.405   4.765   7.256  0.6635 -0.1541  1.0516
  183SOPE   H5R20925   7.312   4.711   7.283  0.1044 -0.2840 -1.1289
  183SOPE   H5S20926   7.470   4.677   7.233  2.4730  1.5288 -0.4922
  183SOPE   C2620927   7.441   4.859   7.370  0.2891 -0.4885  1.0597
  183SOPE   H6R20928   7.536   4.912   7.351 -1.7751  2.7787 -0.6033
  183SOPE   H6S20929   7.369   4.944   7.377  0.9576  0.0594  1.3630
  183SOPE   C2720930   7.433   4.800   7.517 -0.1102  0.5898  0.5701
  183SOPE   H7R20931   7.327   4.791   7.547 -0.9153  0.2680 -2.2256
  183SOPE   H7S20932   7.469   4.695   7.516  1.0577  0.9886 -1.2156
  183SOPE   C2820933   7.515   4.880   7.623  0.7251  0.4375 -0.2962
  183SOPE   H8R20934   7.505   4.825   7.719 -1.7792  1.0262 -0.1741
  183SOPE   H8S20935   7.622   4.882   7.593  0.8232 -0.3111 -0.0043
  183SOPE   C2920936   7.457   5.017   7.642  0.1508 -0.2774 -0.8398
  183SOPE   H9120937   7.369   5.032   7.577  0.6049 -2.5479 -2.0262
  183SOPE  C21020938   7.523   5.125   7.693  0.2108 -0.0016 -0.8351
  183SOPE  H10120939   7.481   5.222   7.664 -0.5911  0.6433  2.2937
  183SOPE  C21120940   7.660   5.146   7.759 -0.2657 -0.2881 -0.0756
  183SOPE  H11R20941   7.694   5.252   7.754 -1.0908  0.0984  1.8905
  183SOPE  H11S20942   7.737   5.091   7.701  0.0875  0.7320 -0.5865
  183SOPE  C21220943   7.671   5.116   7.915  0.2681  0.4739 -0.3210
  183SOPE  H12R20944   7.776   5.135   7.945  0.2567 -0.1997  0.1496
  183SOPE  H12S20945   7.649   5.008   7.927 -1.5502  0.5779 -2.2955
  183SOPE  C21320946   7.582   5.202   8.010  0.6400  0.0402 -0.0843
  183SOPE  H13R20947   7.597   5.167   8.114 -1.9795 -2.1628 -0.3858
  183SOPE  H13S20948   7.473   5.192   7.989  0.5001  0.1067  0.5822
  183SOPE  C21420949   7.621   5.350   8.008  0.0956  0.1036  0.3949
  183SOPE  H14R20950   7.581   5.389   7.911 -1.1924  0.7620  1.1776
  183SOPE  H14S20951   7.731   5.365   8.013 -0.1229  1.3620  1.6064
  183SOPE  C21520952   7.539   5.422   8.119 -0.5175  0.2300 -0.3731
  183SOPE  H15R20953   7.431   5.414   8.094 -0.5463  0.1552 -0.2227
  183SOPE  H15S20954   7.580   5.525   8.113 -0.8364  0.3290 -0.8805
  183SOPE  C21620955   7.558   5.367   8.263  0.1848  0.1147 -0.4802
  183SOPE  H16R20956   7.509   5.267   8.267 -1.5660  0.9032 -1.7044
  183SOPE  H16S20957   7.518   5.439   8.337  0.9694  1.2059 -1.1133
  183SOPE  C21720958   7.706   5.349   8.314  0.1907 -0.0853  0.0311
  183SOPE  H17R20959   7.748   5.452   8.313  0.2701 -0.1257 -1.2330
  183SOPE  H17S20960   7.773   5.284   8.254  0.4411 -0.7806  1.0422
  183SOPE  C21820961   7.714   5.300   8.458  0.2530  0.9907 -0.6098
  183SOPE  H18R20962   7.822   5.290   8.486 -0.0919  2.9895  1.6245
  183SOPE  H18S20963   7.678   5.195   8.454  0.1128  1.0069  0.0964
  183SOPE  H18T20964   7.658   5.348   8.541  0.9595  0.0688  0.4197
  183SOPE   C3320965   6.868   4.917   7.268  0.1294 -0.4029 -0.7543
  183SOPE   H3X20966   6.757   4.924   7.261  0.2056  0.1209 -1.6153
  183SOPE   H3Y20967   6.901   5.022   7.250 -1.0968  0.2808  0.8741
  183SOPE   C3420968   6.904   4.871   7.414  0.2566  0.0231  0.3704
  183SOPE   H4X20969   7.013   4.852   7.404  0.6223  1.8591  0.6889
  183SOPE   H4Y20970   6.854   4.776   7.442  2.2440 -0.8839  0.9340
  183SOPE   C3520971   6.866   4.972   7.522  0.1953  0.0567  0.0512
  183SOPE   H5X20972   6.756   4.964   7.527  0.1826  0.0434 -0.2298
  183SOPE   H5Y20973   6.894   5.077   7.499 -1.1226  0.3700 -0.1457
  183SOPE   C3620974   6.917   4.958   7.660 -0.2473 -0.5618 -0.3971
  183SOPE   H6X20975   7.027   4.953   7.655 -0.3637 -1.7442 -2.3006
  183SOPE   H6Y20976   6.890   4.859   7.703  0.5359 -0.3996  0.4792
  183SOPE   C3720977   6.877   5.062   7.765 -0.0354  0.2148 -0.2707
  183SOPE   H7X20978   6.873   5.165   7.722  2.2813  0.1908 -0.5833
  183SOPE   H7Y20979   6.955   5.055   7.843 -0.1201  1.7866 -0.0224
  183SOPE   C3820980   6.737   5.040   7.835  0.5871 -0.0107 -0.0842
  183SOPE   H8X20981   6.737   4.938   7.880 -0.9186  0.5384  1.2326
  183SOPE   H8Y20982   6.657   5.034   7.758  0.4157 -0.9573  0.1578
  183SOPE   C3920983   6.703   5.134   7.949 -0.2907  0.2639  0.4640
  183SOPE   H9X20984   6.604   5.111   7.992 -0.4273  1.2907  0.7126
  183SOPE   H9Y20985   6.706   5.242   7.921 -1.6970  0.3353  0.5719
  183SOPE  C31020986   6.795   5.112   8.067  0.6293  0.0277  0.0100
  183SOPE  H10X20987   6.897   5.093   8.027  1.6047 -0.2300  2.4903
  183SOPE  H10Y20988   6.768   5.014   8.112 -0.4475  1.0563  1.6575
  183SOPE  C31120989   6.771   5.225   8.168  0.2899 -0.2451 -0.5078
  183SOPE  H11X20990   6.790   5.320   8.115 -1.4881 -0.8506 -2.2773
  183SOPE  H11Y20991   6.858   5.208   8.235 -0.7286 -0.9297  0.6630
  183SOPE  C31220992   6.647   5.211   8.251  0.7427  0.1514 -0.4714
  183SOPE  H12X20993   6.646   5.102   8.275 -1.2802 -0.0309 -1.3007
  183SOPE  H12Y20994   6.559   5.233   8.187 -0.3303 -0.5316  0.7441
  183SOPE  C31320995   6.635   5.299   8.381  0.1877 -0.2665  0.9616
  183SOPE  H13X20996   6.654   5.404   8.351  0.3410  0.2398  2.7677
  183SOPE  H13Y20997   6.713   5.276   8.457  0.8831 -1.5798 -0.1008
  183SOPE  C31420998   6.488   5.300   8.434  0.1620 -0.1687 -0.2992
  183SOPE  H14X20999   6.468   5.200   8.478 -3.2656  0.5073 -0.1580
  183SOPE  H14Y21000   6.411   5.316   8.355  2.1114  0.6747 -2.0745
  183SOPE  C31521001   6.464   5.413   8.529  0.2659  0.3011 -0.2358
  183SOPE  H15X21002   6.497   5.509   8.484 -3.0813  1.8101  0.3779
  183SOPE  H15Y21003   6.524   5.388   8.619 -0.3289  2.1793  0.7106
  183SOPE  C31621004   6.323   5.424   8.579  0.2400 -0.6803 -1.0516
  183SOPE  H16X21005   6.249   5.428   8.496 -0.2434 -1.9101 -0.6937
  183SOPE  H16Y21006   6.320   5.517   8.639 -0.5498 -0.9824 -0.6175
  183SOPE  C31721007   6.267   5.302   8.666  0.0475 -0.2829 -0.2251
  183SOPE  H17X21008   6.179   5.344   8.719  0.9853  1.3967  0.0625
  183SOPE  H17Y21009   6.335   5.284   8.753  0.6174  0.2299 -0.5614
  183SOPE  C31821010   6.206   5.180   8.596 -0.6330 -0.3603 -0.2531
  183SOPE  H18X21011   6.126   5.134   8.659 -1.7873 -0.7682 -1.9955
  183SOPE  H18Y21012   6.284   5.106   8.568  1.6933  1.4362  1.3047
  183SOPE  H18Z21013   6.152   5.206   8.503 -1.6917 -0.1380  0.4101
  184SOPE     N21014   5.982   4.915   6.221  0.1711 -0.1284 -0.1223
  184SOPE   HN121015   5.945   4.848   6.150 -1.9076  0.8950 -0.0212
  184SOPE   HN221016   6.075   4.956   6.199  1.2377 -1.9979  0.8308
  184SOPE   HN321017   5.998   4.857   6.306  0.9353 -0.5086 -0.5175
  184SOPE   C1221018   5.878   5.013   6.247 -0.5226 -0.1883 -0.3540
  184SOPE  H12A21019   5.786   4.969   6.291  0.8752 -1.7994  1.0255
  184SOPE  H12B21020   5.843   5.066   6.155 -1.8391  1.1769  0.9121
  184SOPE   C1121021   5.938   5.109   6.353  0.3021 -0.2521 -0.2711
  184SOPE  H11A21022   5.957   5.044   6.441 -1.9982 -0.7842 -0.1473
  184SOPE  H11B21023   5.867   5.185   6.391  0.5970 -0.5157  0.8221
  184SOPE     P21024   6.094   5.310   6.264 -0.0003 -0.0145 -0.2049
  184SOPE   O1321025   5.968   5.388   6.273  0.0728  0.1678 -0.2800
  184SOPE   O1421026   6.163   5.305   6.137 -0.6840  0.5225 -0.3891
  184SOPE   O1221027   6.064   5.154   6.314 -0.4284 -0.5546  0.1666
  184SOPE   O1121028   6.199   5.362   6.369 -0.6409 -0.2231 -0.1040
  184SOPE    C121029   6.201   5.323   6.505  0.6145  0.0187  0.3409
  184SOPE    HA21030   6.251   5.224   6.512  0.6812  0.1732  2.3531
  184SOPE    HB21031   6.100   5.314   6.553  1.0296  0.7133  1.3585
  184SOPE    C221032   6.278   5.428   6.593 -0.2897  0.5298 -0.3558
  184SOPE    HS21033   6.367   5.457   6.533  0.7933  0.5196  1.2080
  184SOPE   O2121034   6.302   5.380   6.727  0.1203 -0.2069  0.4628
  184SOPE   C2121035   6.424   5.393   6.777 -0.4295 -0.3497  0.0499
  184SOPE   O2221036   6.519   5.431   6.713  0.2942  0.2335  0.1743
  184SOPE   C2221037   6.421   5.338   6.919 -0.2697 -0.1912 -0.2479
  184SOPE   H2R21038   6.375   5.238   6.909  3.1742 -1.7506 -1.4371
  184SOPE   H2S21039   6.359   5.406   6.981  1.1406  0.3131  0.6512
  184SOPE    C321040   6.204   5.561   6.611  0.2494  0.5163  0.8031
  184SOPE    HX21041   6.106   5.536   6.656  0.1621  0.6192  0.6740
  184SOPE    HY21042   6.177   5.602   6.511  0.7214 -0.4269  0.2899
  184SOPE   O3121043   6.285   5.659   6.682  0.2384 -0.4845  0.2309
  184SOPE   C3121044   6.209   5.746   6.750  0.5411 -0.8543 -0.3815
  184SOPE   O3221045   6.090   5.768   6.742 -0.1341  0.5103 -0.5252
  184SOPE   C3221046   6.297   5.830   6.846  0.4701 -0.2418  0.4907
  184SOPE   H2X21047   6.227   5.856   6.929 -1.8817 -2.2952 -0.7767
  184SOPE   H2Y21048   6.336   5.922   6.798 -0.6927 -0.4973 -0.9753
  184SOPE   C2321049   6.558   5.316   6.990 -0.0917 -0.9656 -0.6184
  184SOPE   H3R21050   6.630   5.400   6.996 -0.5901 -0.5311 -0.6243
  184SOPE   H3S21051   6.603   5.228   6.938 -0.7320 -1.5821 -0.1448
  184SOPE   C2421052   6.534   5.253   7.133 -0.3722 -0.1811 -0.2885
  184SOPE   H4R21053   6.456   5.175   7.121 -1.9845  1.1679  1.0960
  184SOPE   H4S21054   6.625   5.197   7.166 -0.0604  0.0909 -0.6855
  184SOPE   C2521055   6.475   5.356   7.236 -0.0848  0.1276  0.9546
  184SOPE   H5R21056   6.533   5.451   7.227  1.4356 -0.2340  5.2903
  184SOPE   H5S21057   6.372   5.383   7.207  1.1749  1.8990 -2.1264
  184SOPE   C2621058   6.488   5.311   7.374 -0.1623  0.2107  0.0255
  184SOPE   H6R21059   6.399   5.251   7.402 -0.7636 -0.1307 -2.5115
  184SOPE   H6S21060   6.579   5.252   7.395 -1.7135 -1.8048  1.1960
  184SOPE   C2721061   6.498   5.424   7.472  0.3187 -0.4850 -0.4707
  184SOPE   H7R21062   6.561   5.509   7.438 -2.0384  1.1615 -0.9239
  184SOPE   H7S21063   6.399   5.467   7.499  1.0754  2.9924 -2.8369
  184SOPE   C2821064   6.568   5.407   7.612  0.1640  0.3698  0.1070
  184SOPE   H8R21065   6.515   5.325   7.665  1.6502 -2.3453 -2.4114
  184SOPE   H8S21066   6.674   5.375   7.601 -0.7224 -1.6591 -3.2798
  184SOPE   C2921067   6.565   5.529   7.699 -0.2866 -0.2464 -0.1214
  184SOPE   H9121068   6.627   5.613   7.665  1.5895 -0.1884  3.2025
  184SOPE  C21021069   6.508   5.549   7.821  0.3890 -0.0366 -0.2308
  184SOPE  H10121070   6.510   5.648   7.868  1.9249  0.1223 -0.6099
  184SOPE  C21121071   6.433   5.446   7.899 -0.0645 -0.8001  0.1507
  184SOPE  H11R21072   6.510   5.391   7.958  0.6701 -0.7902 -0.7948
  184SOPE  H11S21073   6.380   5.372   7.835 -0.8201 -0.1833  0.0587
  184SOPE  C21221074   6.344   5.490   8.007  0.3252 -0.1610 -0.0817
  184SOPE  H12R21075   6.258   5.539   7.956  2.7534  2.1713 -2.0977
  184SOPE  H12S21076   6.387   5.559   8.083 -1.1446  0.5938  0.0844
  184SOPE  C21321077   6.281   5.371   8.091  0.0714 -0.0153  0.0437
  184SOPE  H13R21078   6.360   5.306   8.133 -0.5499 -0.4715  0.5161
  184SOPE  H13S21079   6.208   5.316   8.028  0.5591  0.9747 -1.4164
  184SOPE  C21421080   6.198   5.409   8.218  0.8104  0.1039  0.4518
  184SOPE  H14R21081   6.277   5.450   8.284  0.9328  0.0005  0.3682
  184SOPE  H14S21082   6.140   5.322   8.257 -1.8476  2.1140  1.1683
  184SOPE  C21521083   6.112   5.531   8.203 -0.0747  0.2174 -0.3556
  184SOPE  H15R21084   6.043   5.511   8.119 -1.6139 -0.1295  0.9603
  184SOPE  H15S21085   6.164   5.626   8.178 -2.1382  2.0363  2.0101
  184SOPE  C21621086   6.019   5.567   8.317 -0.2115  0.1102  0.5769
  184SOPE  H16R21087   6.081   5.596   8.403  0.1707 -1.2352  0.7593
  184SOPE  H16S21088   5.971   5.470   8.342 -1.5612  0.8764  1.0565
  184SOPE  C21721089   5.914   5.674   8.276  0.5999 -0.6007  0.2508
  184SOPE  H17R21090   5.850   5.633   8.195  0.1734 -1.8784  1.2265
  184SOPE  H17S21091   5.968   5.759   8.228  1.6988 -1.8627 -0.8026
  184SOPE  C21821092   5.820   5.708   8.390 -0.5696  0.8165 -0.2421
  184SOPE  H18R21093   5.884   5.735   8.477  0.4327 -0.9681 -0.4135
  184SOPE  H18S21094   5.754   5.620   8.409 -1.0463  0.6006 -2.7416
  184SOPE  H18T21095   5.754   5.789   8.354 -1.8427  0.2545  0.7852
  184SOPE   C3321096   6.421   5.749   6.903  0.3690 -0.5208 -0.3455
  184SOPE   H3X21097   6.501   5.757   6.825 -0.2208  1.4606 -0.7886
  184SOPE   H3Y21098   6.405   5.641   6.922 -1.1365 -0.3609 -0.6860
  184SOPE   C3421099   6.476   5.807   7.038  0.2633  0.0848 -0.4532
  184SOPE   H4X21100   6.490   5.917   7.022  2.8949 -0.3098 -1.1152
  184SOPE   H4Y21101   6.572   5.754   7.050 -0.0949 -0.8495 -1.7195
  184SOPE   C3521102   6.382   5.783   7.152  0.5372  0.3667  0.5074
  184SOPE   H5X21103   6.345   5.679   7.145 -3.0720  1.7000 -1.6051
  184SOPE   H5Y21104   6.288   5.839   7.131 -0.3375 -1.4950 -0.6441
  184SOPE   C3621105   6.440   5.813   7.291 -0.6818  0.6942 -0.1458
  184SOPE   H6X21106   6.460   5.922   7.299  2.6938  0.3039 -2.3504
  184SOPE   H6Y21107   6.539   5.763   7.295 -0.8070  0.5756  2.2231
  184SOPE   C3721108   6.349   5.774   7.407 -0.2932 -0.0336  0.5264
  184SOPE   H7X21109   6.355   5.663   7.413  0.6091 -0.1442 -1.7194
  184SOPE   H7Y21110   6.243   5.796   7.385 -0.8376 -4.8971 -2.5007
  184SOPE   C3821111   6.384   5.818   7.541 -0.0852  0.4268 -0.2917
  184SOPE   H8X21112   6.490   5.789   7.557  0.8645  2.7592 -2.0984
  184SOPE   H8Y21113   6.322   5.773   7.622  0.8015 -0.5644 -0.1509
  184SOPE   C3921114   6.346   5.965   7.553 -0.4570  0.0771  0.1311
  184SOPE   H9X21115   6.236   5.979   7.537 -0.5893 -0.8464  0.1945
  184SOPE   H9Y21116   6.400   6.022   7.474 -1.7643  2.5469  0.9545
  184SOPE  C31021117   6.397   6.037   7.678  0.6500 -0.2100  0.1390
  184SOPE  H10X21118   6.507   6.039   7.673  0.6738  0.3308  0.7805
  184SOPE  H10Y21119   6.357   5.979   7.765 -5.3624 -1.1945 -2.9611
  184SOPE  C31121120   6.339   6.178   7.688  0.2856  1.1761  0.6927
  184SOPE  H11X21121   6.364   6.217   7.789  1.5261 -2.8587  2.0299
  184SOPE  H11Y21122   6.231   6.173   7.663  0.0122  0.8669  1.9055
  184SOPE  C31221123   6.417   6.264   7.601  1.1736 -0.3243 -0.0597
  184SOPE  H12X21124   6.378   6.236   7.500  1.2578  0.7646 -0.4095
  184SOPE  H12Y21125   6.526   6.251   7.619  1.4700  0.6962 -1.0521
  184SOPE  C31321126   6.383   6.411   7.608  0.1442 -0.7266 -0.6134
  184SOPE  H13X21127   6.458   6.472   7.554  0.2354 -0.8635 -0.6429
  184SOPE  H13Y21128   6.373   6.447   7.713 -1.5124 -2.0766 -0.2916
  184SOPE  C31421129   6.257   6.451   7.528  0.3279 -0.2845 -0.0675
  184SOPE  H14X21130   6.168   6.408   7.579  0.4320 -1.1214 -0.5870
  184SOPE  H14Y21131   6.253   6.404   7.428 -0.2056  1.0501 -0.6892
  184SOPE  C31521132   6.240   6.599   7.490  0.5651  0.6662 -0.7738
  184SOPE  H15X21133   6.137   6.624   7.459 -0.6107 -0.3841  2.0794
  184SOPE  H15Y21134   6.320   6.616   7.415  2.1270 -2.2704  0.0990
  184SOPE  C31621135   6.267   6.693   7.607  0.3253 -0.4039  0.0593
  184SOPE  H16X21136   6.238   6.797   7.580 -0.0661 -0.5839 -0.2151
  184SOPE  H16Y21137   6.377   6.694   7.627  0.3657  2.7704 -0.1161
  184SOPE  C31721138   6.183   6.652   7.735  0.1457 -0.6089 -0.1567
  184SOPE  H17X21139   6.212   6.722   7.815  1.0964 -0.4455 -0.6377
  184SOPE  H17Y21140   6.202   6.545   7.761 -1.4718 -1.3584 -1.8938
  184SOPE  C31821141   6.035   6.661   7.717  0.4006  0.1935  0.8395
  184SOPE  H18X21142   5.998   6.763   7.691 -2.0188 -1.4352 -2.5783
  184SOPE  H18Y21143   5.972   6.629   7.803  0.9388  0.0483  1.1767
  184SOPE  H18Z21144   6.011   6.592   7.632  1.8453  3.2828 -2.1905
  185SAPI   C1221145   2.470   1.080  11.163 -0.0994 -0.0346  0.1353
  185SAPI    H221146   2.507   1.026  11.073 -0.6172 -0.8692  0.4275
  185SAPI    O221147   2.348   1.019  11.211  0.1255  0.0397  0.0547
  185SAPI   HO221148   2.340   0.931  11.172  1.4436  0.2421 -0.6999
  185SAPI   C1321149   2.582   1.059  11.263  0.0734  0.1019  0.4311
  185SAPI    H321150   2.679   1.081  11.214  0.5314  1.3008  1.8472
  185SAPI    O321151   2.591   0.916  11.288 -0.6653  0.1608 -0.0241
  185SAPI   HO321152   2.502   0.880  11.292 -0.2779 -0.7654  0.3682
  185SAPI   C1421153   2.557   1.139  11.388  0.7352 -0.3781  1.2329
  185SAPI    H421154   2.470   1.098  11.445 -1.4754  2.8234  0.2564
  185SAPI    O421155   2.661   1.116  11.487  0.2403  0.3574  0.8385
  185SAPI   HO421156   2.631   1.040  11.538  1.8595 -2.3448 -2.0749
  185SAPI   C1521157   2.517   1.285  11.353 -0.0030  0.0089  0.1946
  185SAPI    H521158   2.613   1.326  11.315 -1.2526  1.1520 -1.8198
  185SAPI    O521159   2.493   1.366  11.471  0.2482  0.2879 -0.5290
  185SAPI   HO521160   2.497   1.457  11.441  0.6944  0.7634  0.9201
  185SAPI   C1621161   2.412   1.303  11.246  0.1211  0.7724  0.1124
  185SAPI    H621162   2.314   1.265  11.280  0.1726  0.7898  0.2816
  185SAPI    O621163   2.399   1.438  11.217 -0.2727  0.0060 -0.0111
  185SAPI   HO621164   2.330   1.444  11.150 -0.7227  1.1432  0.5455
  185SAPI   C1121165   2.461   1.226  11.122  0.5413  0.4884 -0.4813
  185SAPI    H121166   2.565   1.260  11.100  0.3582  1.3072 -0.1002
  185SAPI     P21167   2.433   1.245  10.856 -0.0127  0.2443 -0.1913
  185SAPI   O1321168   2.322   1.234  10.761 -0.1342 -0.1010  0.2489
  185SAPI   O1421169   2.548   1.156  10.829  0.4937 -0.4576  0.0562
  185SAPI   O1221170   2.378   1.235  11.007 -0.0017  0.0896 -0.3025
  185SAPI   O1121171   2.493   1.393  10.851  0.3903  0.0727 -0.2062
  185SAPI    C121172   2.413   1.509  10.850 -0.0068  0.1556  0.5825
  185SAPI    HA21173   2.312   1.497  10.894  0.9269  0.4765  2.8691
  185SAPI    HB21174   2.464   1.580  10.919  1.4059  0.5488 -0.8169
  185SAPI    C221175   2.410   1.563  10.709 -0.0866  1.1173  0.4140
  185SAPI    HS21176   2.321   1.511  10.668 -0.0229 -1.0387  2.9047
  185SAPI   O2121177   2.534   1.523  10.638  0.4922 -0.2175 -0.0264
  185SAPI   C2121178   2.518   1.524  10.506  0.3505  0.7962 -0.3000
  185SAPI   O2221179   2.415   1.525  10.449 -0.1999  0.6262 -0.5748
  185SAPI   C2221180   2.649   1.494  10.441 -0.1442  0.6341  0.5925
  185SAPI   H2R21181   2.696   1.592  10.419  0.9802 -0.5215 -2.5259
  185SAPI   H2S21182   2.715   1.429  10.503 -1.7000 -0.4784  1.1130
  185SAPI    C321183   2.386   1.718  10.695 -0.2149 -0.0600 -1.1567
  185SAPI    HX21184   2.470   1.770  10.747 -2.1932  0.4631  1.6091
  185SAPI    HY21185   2.298   1.748  10.755 -0.0793 -2.0478  0.0768
  185SAPI   O3121186   2.371   1.772  10.562 -0.6933  0.2439  0.1949
  185SAPI   C3121187   2.250   1.776  10.517 -0.0494 -0.1850  0.1602
  185SAPI   O3221188   2.152   1.730  10.570 -0.3356 -0.5397 -0.0382
  185SAPI   C3221189   2.250   1.856  10.388  0.0259  0.5819  0.1786
  185SAPI   H2X21190   2.310   1.799  10.314 -0.5880  0.3155 -0.1195
  185SAPI   H2Y21191   2.304   1.951  10.407  2.1066 -0.5700  0.1132
  185SAPI   C2321192   2.613   1.420  10.302  0.0464 -0.1282 -0.3048
  185SAPI   H3R21193   2.557   1.487  10.233 -2.1757 -1.1758  0.4090
  185SAPI   H3S21194   2.543   1.336  10.322  0.4980 -1.0132 -2.3387
  185SAPI   C2421195   2.740   1.379  10.218 -0.3274  0.2021  0.2287
  185SAPI   H4R21196   2.711   1.284  10.169  0.1540  1.0626 -1.7852
  185SAPI   H4S21197   2.810   1.343  10.296 -1.9532 -0.8884  1.2079
  185SAPI   C2521198   2.794   1.492  10.136  0.4120  0.3630 -0.1541
  185SAPI   H5R21199   2.793   1.595  10.177 -3.4594 -0.1432  1.2651
  185SAPI   C2621200   2.826   1.481  10.008 -0.1779  0.3235  0.0568
  185SAPI   H6R21201   2.888   1.562   9.966 -0.9050 -0.2328 -2.1675
  185SAPI   C2721202   2.816   1.361   9.920  0.1793  0.5456 -0.9564
  185SAPI   H7R21203   2.787   1.272   9.979  0.6763 -0.6055 -2.4086
  185SAPI   H7S21204   2.911   1.327   9.874  0.4215 -0.6591  0.4160
  185SAPI   C2821205   2.701   1.373   9.821 -0.5085 -0.2002 -1.3749
  185SAPI   H8R21206   2.601   1.373   9.866  0.3840  3.2818  0.8478
  185SAPI   C2921207   2.713   1.393   9.684 -0.0717  0.6008 -0.4731
  185SAPI   H9R21208   2.627   1.404   9.616  0.4222 -1.7971 -1.5203
  185SAPI  C21021209   2.848   1.396   9.613  0.7131  0.2785 -0.2434
  185SAPI  H10R21210   2.857   1.292   9.576 -3.2813  0.4734 -2.0640
  185SAPI  H10S21211   2.942   1.416   9.669  0.2214  0.3950  0.5611
  185SAPI  C21121212   2.849   1.486   9.492 -0.1652 -0.1991 -0.0252
  185SAPI  H11R21213   2.916   1.573   9.504 -0.0554 -0.5777  2.2466
  185SAPI  C21221214   2.787   1.470   9.377 -0.3016  0.1357  0.2274
  185SAPI  H12R21215   2.773   1.564   9.321  0.1041  0.7771  1.1888
  185SAPI  C21321216   2.703   1.352   9.327  0.1151  0.0906 -0.4502
  185SAPI  H13R21217   2.596   1.359   9.353 -0.1434  2.8109 -2.0729
  185SAPI  H13S21218   2.735   1.253   9.366 -1.6919 -0.5728 -0.6444
  185SAPI  C21421219   2.697   1.339   9.171 -0.1185 -0.0929 -0.3421
  185SAPI  H14R21220   2.617   1.398   9.123  0.3717  1.1338  0.3427
  185SAPI  C21521221   2.780   1.270   9.101 -0.6397 -0.5114 -0.2286
  185SAPI  H15R21222   2.770   1.273   8.991 -0.0197  0.1671 -0.2682
  185SAPI  C21621223   2.888   1.182   9.150  0.0658 -0.4173 -0.0237
  185SAPI  H16R21224   2.906   1.189   9.260 -1.0912 -0.5034  0.1787
  185SAPI  H16S21225   2.985   1.215   9.107  0.0508 -0.4405 -0.0751
  185SAPI  C21721226   2.860   1.027   9.124  0.5862  0.2763  0.4722
  185SAPI  H17R21227   2.757   1.006   9.162  0.3859  1.2772  0.4932
  185SAPI  H17S21228   2.928   0.970   9.190  0.0117 -0.3178  0.5590
  185SAPI  C21821229   2.888   0.987   8.977  0.4549 -0.4624 -0.0488
  185SAPI  H18R21230   2.984   1.037   8.952 -0.3944  1.3297  0.1582
  185SAPI  H18S21231   2.814   1.033   8.908 -2.3016 -3.8454  0.5083
  185SAPI  C21921232   2.886   0.839   8.951  0.4808  0.1080  0.2976
  185SAPI  H19R21233   2.790   0.784   8.958  1.1731 -1.0524  0.7490
  185SAPI  H19S21234   2.951   0.796   9.030  2.3385  2.7449  0.2902
  185SAPI  C22021235   2.940   0.787   8.815 -0.1525  0.1453 -0.2121
  185SAPI  H20R21236   2.946   0.677   8.822  1.4010  0.1043 -1.6882
  185SAPI  H20S21237   3.044   0.822   8.794 -1.0409  2.0592 -1.6073
  185SAPI  H20T21238   2.874   0.796   8.726 -0.3324 -3.3298 -0.4776
  185SAPI   C3321239   2.113   1.895  10.335 -0.4844 -0.0687  0.2724
  185SAPI   H3X21240   2.119   1.957  10.243 -2.3482  0.2605  0.3483
  185SAPI   H3Y21241   2.038   1.950  10.396 -0.3485  1.4140 -0.8570
  185SAPI   C3421242   2.029   1.777  10.280  0.0692 -0.8126 -0.0698
  185SAPI   H4X21243   2.008   1.719  10.372 -0.8856  0.6229  0.6363
  185SAPI   H4Y21244   2.094   1.720  10.211  2.2434 -0.1471  1.3822
  185SAPI   C3521245   1.906   1.823  10.199  0.2733 -0.2001  0.2302
  185SAPI   H5X21246   1.868   1.920  10.236  0.1316 -0.6646  1.3231
  185SAPI   H5Y21247   1.828   1.744  10.207 -0.7460  1.0435  3.2298
  185SAPI   C3621248   1.929   1.843  10.048  0.1270  0.8978 -0.1411
  185SAPI   H6X21249   1.968   1.744  10.013 -0.9090  0.9806 -1.5926
  185SAPI   H6Y21250   2.014   1.910  10.020  1.1673 -0.4108 -0.2030
  185SAPI   C3721251   1.804   1.888   9.962 -0.4209  0.1363 -0.0901
  185SAPI   H7X21252   1.758   1.980  10.005 -1.7464 -0.4411 -0.2463
  185SAPI   H7Y21253   1.734   1.802   9.964  1.8004 -1.6902  1.5637
  185SAPI   C3821254   1.824   1.893   9.817 -0.2093 -0.2229 -0.7096
  185SAPI   H8X21255   1.873   1.798   9.787  0.2646 -0.0483 -0.4977
  185SAPI   H8Y21256   1.896   1.972   9.785  0.6685 -0.5368  0.4725
  185SAPI   C3921257   1.699   1.907   9.733  0.6198  0.0063  0.3850
  185SAPI   H9X21258   1.646   1.995   9.776  1.6893  0.2797  1.1609
  185SAPI   H9Y21259   1.640   1.814   9.739  1.6171 -0.7004 -0.5773
  185SAPI  C31021260   1.712   1.933   9.580  0.4196  0.4095 -0.6431
  185SAPI  H10X21261   1.727   1.834   9.530  1.0535 -0.9652  2.1677
  185SAPI  H10Y21262   1.791   2.006   9.554  0.2138  0.3140 -1.5613
  185SAPI  C31121263   1.577   1.977   9.518  0.5330 -0.3481  0.0071
  185SAPI  H11X21264   1.529   2.058   9.578  2.2897 -1.1472  2.5983
  185SAPI  H11Y21265   1.496   1.901   9.515  0.0754  0.1853 -1.8213
  185SAPI  C31221266   1.575   2.024   9.372 -0.5506 -0.8086 -0.4493
  185SAPI  H12X21267   1.643   1.965   9.307 -0.0393  0.4540 -1.0685
  185SAPI  H12Y21268   1.624   2.122   9.389 -0.0792 -1.1286  0.0900
  185SAPI  C31321269   1.429   2.042   9.320 -0.3402  0.6256  0.1539
  185SAPI  H13X21270   1.365   2.049   9.411 -0.5933  1.0422 -0.0495
  185SAPI  H13Y21271   1.406   1.950   9.263 -1.1909  1.3081 -0.6398
  185SAPI  C31421272   1.414   2.168   9.234  0.0103 -0.0839 -0.2225
  185SAPI  H14X21273   1.476   2.164   9.142 -0.1351  1.6375 -0.4092
  185SAPI  H14Y21274   1.442   2.259   9.292 -0.0363 -1.4570  2.0548
  185SAPI  C31521275   1.265   2.187   9.191  0.4004 -0.3910 -0.5465
  185SAPI  H15X21276   1.233   2.087   9.155  1.1712 -0.3261 -1.4189
  185SAPI  H15Y21277   1.258   2.271   9.118  2.7878  0.3862  0.0747
  185SAPI  C31621278   1.170   2.231   9.297 -0.1745 -0.0438 -0.4659
  185SAPI  H16X21279   1.191   2.327   9.350  0.1723 -1.0116  1.2006
  185SAPI  H16Y21280   1.151   2.161   9.381  1.3006  0.5246  0.3670
  185SAPI  C31721281   1.021   2.246   9.248  0.3557 -0.0684 -0.3647
  185SAPI  H17X21282   0.986   2.145   9.218 -0.1151 -0.1617  0.4710
  185SAPI  H17Y21283   1.036   2.298   9.151  2.2233  1.0486  0.4865
  185SAPI  C31821284   0.913   2.312   9.331 -0.2902  0.1265 -0.4897
  185SAPI  H18X21285   0.876   2.253   9.418 -0.8898  0.8719 -0.2280
  185SAPI  H18Y21286   0.827   2.340   9.266 -0.2861  1.9975  0.2729
  185SAPI  H18Z21287   0.962   2.399   9.381  0.6126 -1.6349  1.7622
  186SAPI   C1221288   2.708   0.416  10.674  0.7069  0.0579 -0.6928
  186SAPI    H221289   2.706   0.365  10.576 -0.4311 -0.9501 -0.1629
  186SAPI    O221290   2.788   0.533  10.663 -0.0482  0.6972 -0.0469
  186SAPI   HO221291   2.876   0.508  10.634 -0.7438 -2.0973  0.0977
  186SAPI   C1321292   2.562   0.450  10.692 -0.5673  0.2170 -0.8844
  186SAPI    H321293   2.498   0.359  10.685 -0.1770 -0.0129 -1.5829
  186SAPI    O321294   2.525   0.536  10.585  0.5644 -0.9626 -0.4498
  186SAPI   HO321295   2.608   0.582  10.580  1.4306 -2.1137  2.2193
  186SAPI   C1421296   2.533   0.510  10.827 -0.1564  0.8698 -0.4491
  186SAPI    H421297   2.585   0.607  10.835  1.1954  0.2030 -0.9672
  186SAPI    O421298   2.393   0.527  10.842 -0.0719  0.3324  0.1321
  186SAPI   HO421299   2.376   0.577  10.762 -0.4236  0.0086  0.0065
  186SAPI   C1521300   2.583   0.425  10.942 -0.0183 -0.2759 -0.4116
  186SAPI    H521301   2.538   0.324  10.935  0.5917 -0.6169  0.4873
  186SAPI    O521302   2.552   0.472  11.074 -0.3519  0.1609  0.0103
  186SAPI   HO521303   2.613   0.544  11.093  0.4693 -0.1093 -1.5627
  186SAPI   C1621304   2.729   0.390  10.926  1.2705 -0.0385 -0.9047
  186SAPI    H621305   2.795   0.480  10.922  1.1504  0.1848  1.3351
  186SAPI    O621306   2.775   0.304  11.030  0.2216  0.4503  0.3033
  186SAPI   HO621307   2.794   0.221  10.986 -1.4347 -1.1366  2.4859
  186SAPI   C1121308   2.752   0.323  10.790 -1.2645  0.2184 -0.0701
  186SAPI    H121309   2.692   0.230  10.782  0.5647 -1.0010  0.0426
  186SAPI     P21310   2.952   0.143  10.787 -0.4806  0.1388  0.1649
  186SAPI   O1321311   2.886   0.072  10.898  0.0689 -0.0725 -0.1285
  186SAPI   O1421312   3.101   0.142  10.779  0.7065  0.2489  0.8906
  186SAPI   O1221313   2.895   0.297  10.768 -0.8498  0.3725  0.1265
  186SAPI   O1121314   2.894   0.091  10.646 -0.4110 -0.4679  0.5401
  186SAPI    C121315   2.924   0.145  10.518 -0.1789  0.2589 -0.5437
  186SAPI    HA21316   2.835   0.125  10.454 -2.7595  3.5377  1.8294
  186SAPI    HB21317   2.919   0.256  10.514 -0.1723  0.2706 -0.1715
  186SAPI    C221318   3.050   0.076  10.465 -0.0171  0.3794  0.1903
  186SAPI    HS21319   3.132   0.096  10.537 -0.2395 -0.5466  0.7102
  186SAPI   O2121320   3.075   0.126  10.330  0.0268  0.2088 -0.0825
  186SAPI   C2121321   3.138   0.240  10.330 -0.5143 -0.4372 -0.5491
  186SAPI   O2221322   3.177   0.301  10.432  0.0640  0.6501  0.1117
  186SAPI   C2221323   3.151   0.293  10.187 -1.4112 -0.0646  0.1609
  186SAPI   H2R21324   3.075   0.247  10.121  0.3083 -2.2113 -0.3893
  186SAPI   H2S21325   3.149   0.404  10.189  1.6479  0.0539  0.0050
  186SAPI    C321326   3.052  -0.081  10.468 -0.1224 -0.0330 -0.8723
  186SAPI    HX21327   2.971  -0.116  10.401 -0.5067 -0.4860 -0.1780
  186SAPI    HY21328   3.027  -0.113  10.571 -0.0459 -1.7367 -1.3811
  186SAPI   O3121329   3.170  -0.132  10.417 -0.4339 -0.3784  0.6358
  186SAPI   C3121330   3.194  -0.257  10.445 -0.1335  0.0480 -0.5154
  186SAPI   O3221331   3.134  -0.337  10.516  0.0310  0.6392  0.1490
  186SAPI   C3221332   3.335  -0.286  10.390  0.0328  0.5745 -0.0950
  186SAPI   H2X21333   3.401  -0.331  10.468  1.5616  1.9468 -0.5587
  186SAPI   H2Y21334   3.381  -0.202  10.334  1.0065  0.5867  0.6905
  186SAPI   C2321335   3.279   0.255  10.115 -0.8202 -0.4518 -0.7775
  186SAPI   H3R21336   3.277   0.151  10.078 -0.0706 -0.4182 -0.9148
  186SAPI   H3S21337   3.359   0.278  10.188 -0.9687  1.7226 -1.2619
  186SAPI   C2421338   3.313   0.337   9.992 -0.5500  0.3672 -0.4880
  186SAPI   H4R21339   3.396   0.280   9.945  0.4515  0.9209  0.5739
  186SAPI   H4S21340   3.359   0.432  10.029  1.6433 -0.5645 -0.7465
  186SAPI   C2521341   3.190   0.366   9.910 -0.2748 -0.5144  0.1779
  186SAPI   H5R21342   3.113   0.423   9.964 -1.3653 -0.5355 -1.3153
  186SAPI   C2621343   3.173   0.352   9.777 -0.2494  0.7655 -0.4837
  186SAPI   H6R21344   3.076   0.384   9.736 -0.1306  0.0926 -1.3060
  186SAPI   C2721345   3.287   0.299   9.690  0.7632 -0.1427  0.0156
  186SAPI   H7R21346   3.242   0.290   9.588  1.1029  1.3011 -0.2758
  186SAPI   H7S21347   3.325   0.201   9.726  1.3039  0.5098  1.2533
  186SAPI   C2821348   3.398   0.406   9.678 -0.0818 -0.2078  0.3328
  186SAPI   H8R21349   3.450   0.431   9.771  0.5012 -0.9508  0.2139
  186SAPI   C2921350   3.433   0.462   9.563 -1.0107  0.2125 -0.4594
  186SAPI   H9R21351   3.508   0.543   9.570 -0.2223 -0.5532  0.1025
  186SAPI  C21021352   3.377   0.441   9.427 -0.4761  0.2734 -0.2282
  186SAPI  H10R21353   3.284   0.498   9.406  0.7988  2.1745 -0.8744
  186SAPI  H10S21354   3.361   0.332   9.433  2.0866 -0.2079 -1.3141
  186SAPI  C21121355   3.479   0.459   9.316  0.4574 -0.0375 -0.1439
  186SAPI  H11R21356   3.584   0.450   9.348  0.3444 -1.6628 -0.1896
  186SAPI  C21221357   3.451   0.485   9.183  0.0687 -0.1430 -0.3684
  186SAPI  H12R21358   3.529   0.501   9.108  0.2736 -3.0577 -0.8332
  186SAPI  C21321359   3.307   0.490   9.126  0.1303  0.1242 -0.1459
  186SAPI  H13R21360   3.301   0.564   9.043  2.5457 -2.1184 -2.3966
  186SAPI  H13S21361   3.238   0.538   9.199  0.6678 -1.8319  1.6958
  186SAPI  C21421362   3.256   0.354   9.088  0.6111 -0.2151  0.3571
  186SAPI  H14R21363   3.291   0.265   9.141  1.1095 -0.0165  0.3643
  186SAPI  C21521364   3.172   0.328   8.989  0.5665  0.2975  0.6208
  186SAPI  H15R21365   3.128   0.228   8.984 -1.5097  1.1734  1.0881
  186SAPI  C21621366   3.109   0.423   8.897 -0.4675  0.0387 -0.1324
  186SAPI  H16R21367   3.181   0.505   8.877  0.6206 -1.0095 -0.6028
  186SAPI  H16S21368   3.022   0.465   8.951 -0.0812 -0.3365  0.7938
  186SAPI  C21721369   3.061   0.362   8.767 -0.2466  0.1214  0.2759
  186SAPI  H17R21370   2.959   0.319   8.779  0.3919 -1.4031  0.4632
  186SAPI  H17S21371   3.132   0.284   8.732  1.3974  0.4412  2.7743
  186SAPI  C21821372   3.062   0.464   8.646 -1.1141  0.3630 -0.6238
  186SAPI  H18R21373   3.154   0.526   8.638 -0.4631 -0.4322  0.5443
  186SAPI  H18S21374   2.973   0.526   8.668  0.3092  1.4838  2.1954
  186SAPI  C21921375   3.037   0.402   8.512  0.4076  0.0630 -0.2055
  186SAPI  H19R21376   2.942   0.344   8.508 -1.3154  2.6803  1.3021
  186SAPI  H19S21377   3.111   0.321   8.494  0.6939  0.1687  0.4657
  186SAPI  C22021378   3.027   0.507   8.397 -0.3326  0.1914 -0.2112
  186SAPI  H20R21379   2.950   0.583   8.420 -0.6499 -0.0451 -0.4960
  186SAPI  H20S21380   3.013   0.454   8.301  0.8294 -0.2553 -0.1460
  186SAPI  H20T21381   3.121   0.567   8.396 -0.8173  0.9971  0.9049
  186SAPI   C3321382   3.340  -0.396  10.288  0.1611  1.0346 -0.0306
  186SAPI   H3X21383   3.278  -0.482  10.322  1.8681 -1.3135 -2.5556
  186SAPI   H3Y21384   3.444  -0.436  10.277 -0.1252  0.6274 -1.3521
  186SAPI   C3421385   3.287  -0.347  10.149 -0.6290  0.5708 -0.0582
  186SAPI   H4X21386   3.358  -0.271  10.109  0.3294 -0.2410  0.0704
  186SAPI   H4Y21387   3.188  -0.298  10.161  0.2496  2.9661 -2.1740
  186SAPI   C3521388   3.281  -0.460  10.042  0.1890 -0.3433 -0.0702
  186SAPI   H5X21389   3.233  -0.416   9.951 -0.0216 -0.1053  0.1544
  186SAPI   H5Y21390   3.212  -0.539  10.078 -0.0509 -0.9116 -1.7018
  186SAPI   C3621391   3.419  -0.503  10.000  0.1836 -0.1967  0.4873
  186SAPI   H6X21392   3.468  -0.559  10.083 -0.8368 -0.0786  1.1801
  186SAPI   H6Y21393   3.489  -0.423   9.967 -0.6108  0.3065  0.0043
  186SAPI   C3721394   3.416  -0.609   9.885 -0.6768  0.7073 -0.7478
  186SAPI   H7X21395   3.352  -0.694   9.915  0.6593  0.1618  0.5796
  186SAPI   H7Y21396   3.516  -0.656   9.872 -1.4886 -0.4370 -3.2629
  186SAPI   C3821397   3.382  -0.571   9.739  0.0436  1.1694 -0.5231
  186SAPI   H8X21398   3.277  -0.542   9.718 -0.8782 -1.1106  0.6496
  186SAPI   H8Y21399   3.406  -0.650   9.664  0.0992 -0.2999  1.0017
  186SAPI   C3921400   3.469  -0.443   9.696 -0.1623 -0.1814  0.9404
  186SAPI   H9X21401   3.576  -0.468   9.711  0.3494  0.6406 -1.1026
  186SAPI   H9Y21402   3.436  -0.358   9.758 -0.8414 -1.0275  1.7482
  186SAPI  C31021403   3.460  -0.417   9.546 -0.2839 -0.5012  0.2090
  186SAPI  H10X21404   3.522  -0.329   9.518 -1.1204 -0.7642 -2.6373
  186SAPI  H10Y21405   3.352  -0.395   9.533 -0.5200 -2.1639 -0.7341
  186SAPI  C31121406   3.498  -0.535   9.456 -0.5204  0.2929  0.0780
  186SAPI  H11X21407   3.421  -0.614   9.472  0.1989 -0.2374  0.9150
  186SAPI  H11Y21408   3.595  -0.567   9.499  0.3743  0.9954 -1.3904
  186SAPI  C31221409   3.512  -0.491   9.309 -0.4441  0.5287  0.1275
  186SAPI  H12X21410   3.546  -0.575   9.244  0.3471  0.1249  1.0668
  186SAPI  H12Y21411   3.584  -0.407   9.309  0.7222 -0.4589  1.7068
  186SAPI  C31321412   3.375  -0.446   9.258  0.2379  0.8711 -0.9231
  186SAPI  H13X21413   3.347  -0.358   9.321 -1.4804 -0.8701  0.8148
  186SAPI  H13Y21414   3.306  -0.531   9.277 -0.6683  1.8200  0.1290
  186SAPI  C31421415   3.363  -0.404   9.112  0.3329 -0.0282 -0.3164
  186SAPI  H14X21416   3.415  -0.468   9.038  1.8882  0.9597 -0.1012
  186SAPI  H14Y21417   3.426  -0.313   9.109 -2.1898  1.7632 -0.7793
  186SAPI  C31521418   3.223  -0.366   9.070 -0.6243  0.0959 -1.1741
  186SAPI  H15X21419   3.179  -0.289   9.138  1.5814  0.7548 -0.4707
  186SAPI  H15Y21420   3.163  -0.457   9.092  0.9667 -0.6202  0.2506
  186SAPI  C31621421   3.211  -0.327   8.922 -1.0116 -1.3148  0.7861
  186SAPI  H16X21422   3.106  -0.313   8.888  0.5654  1.7993 -3.2139
  186SAPI  H16Y21423   3.241  -0.419   8.868 -1.7520 -1.9654  1.4745
  186SAPI  C31721424   3.304  -0.208   8.881 -0.5980 -0.1089  0.1141
  186SAPI  H17X21425   3.279  -0.183   8.776  1.4175  1.8393  0.0481
  186SAPI  H17Y21426   3.407  -0.242   8.904  0.2154  0.8694 -1.9890
  186SAPI  C31821427   3.291  -0.076   8.953  0.2922 -0.3265 -0.0678
  186SAPI  H18X21428   3.350   0.005   8.906 -2.0423  0.8244 -1.1173
  186SAPI  H18Y21429   3.321  -0.082   9.060 -0.8363  0.7443  0.3240
  186SAPI  H18Z21430   3.188  -0.037   8.968  1.1513  2.3687 -0.9465
  187SAPI   C1221431   0.567   0.887   6.014  0.4627 -0.3366 -0.3042
  187SAPI    H221432   0.530   0.990   6.029  1.6589  0.1002 -0.2434
  187SAPI    O221433   0.483   0.812   5.933 -0.5556 -0.0955 -0.1304
  187SAPI   HO221434   0.413   0.874   5.912  0.4791  0.4019 -2.2854
  187SAPI   C1321435   0.707   0.887   5.956  0.4198 -0.1665  0.3036
  187SAPI    H321436   0.769   0.950   6.022 -2.3702  1.7009  1.2379
  187SAPI    O321437   0.716   0.937   5.825 -0.2473 -0.1238 -0.2576
  187SAPI   HO321438   0.670   0.886   5.758 -0.7020  0.9193 -0.7401
  187SAPI   C1421439   0.767   0.753   5.960  0.1227 -0.5859  0.0544
  187SAPI    H421440   0.702   0.695   5.892 -0.7323  1.0259 -0.5278
  187SAPI    O421441   0.895   0.758   5.913 -0.4562 -0.0418  0.1373
  187SAPI   HO421442   0.890   0.818   5.839 -0.5304  0.2382  0.3703
  187SAPI   C1521443   0.770   0.693   6.098  0.4155 -0.1279 -0.1809
  187SAPI    H521444   0.832   0.755   6.167 -1.3171 -0.8457  2.0911
  187SAPI    O521445   0.819   0.561   6.098  0.3207  0.6797  0.1062
  187SAPI   HO521446   0.779   0.528   6.179  1.6242 -0.7324  0.2001
  187SAPI   C1621447   0.628   0.686   6.150 -0.3118 -0.4477  0.5268
  187SAPI    H621448   0.568   0.622   6.082 -0.3673  0.7297 -0.5567
  187SAPI    O621449   0.632   0.616   6.278 -0.1754  0.5578  0.3211
  187SAPI   HO621450   0.685   0.666   6.340  1.8194 -1.6404  0.4397
  187SAPI   C1121451   0.570   0.825   6.159  0.5662  0.3786  0.7487
  187SAPI    H121452   0.647   0.880   6.216  1.8463 -0.4661 -0.1321
  187SAPI     P21453   0.365   0.947   6.291 -0.0233 -0.1345  0.0926
  187SAPI   O1321454   0.221   0.931   6.298  0.1234  0.0602 -0.2447
  187SAPI   O1421455   0.408   1.069   6.226  0.1949 -0.1035  0.0068
  187SAPI   O1221456   0.439   0.820   6.221 -0.3432  0.0477 -0.2798
  187SAPI   O1121457   0.437   0.949   6.434  0.2177  0.2140 -0.6822
  187SAPI    C121458   0.413   0.851   6.537 -0.3523  0.2832  0.1877
  187SAPI    HA21459   0.369   0.757   6.496  2.4760 -0.4615 -1.2517
  187SAPI    HB21460   0.510   0.816   6.577  0.2167  0.3600 -1.0876
  187SAPI    C221461   0.313   0.901   6.637  0.2978 -0.0354 -0.2103
  187SAPI    HS21462   0.251   0.968   6.574 -0.1650  0.9398  1.2422
  187SAPI   O2121463   0.378   0.969   6.736  0.1074  0.2678 -0.9383
  187SAPI   C2121464   0.329   1.080   6.784 -0.1328 -0.5109  0.1293
  187SAPI   O2221465   0.210   1.118   6.777  0.5063  0.7340  0.6629
  187SAPI   C2221466   0.434   1.144   6.874  0.8515  0.4716  0.2317
  187SAPI   H2R21467   0.508   1.066   6.901  0.3641 -0.1449 -0.1918
  187SAPI   H2S21468   0.492   1.206   6.803 -0.8255 -0.5890 -2.1284
  187SAPI    C321469   0.231   0.791   6.701 -0.7100 -0.0650 -0.5681
  187SAPI    HX21470   0.298   0.741   6.775 -2.9161 -0.2733  1.3800
  187SAPI    HY21471   0.196   0.719   6.623 -0.3691 -1.3830  0.4667
  187SAPI   O3121472   0.122   0.851   6.782 -0.5580  0.2678  0.2003
  187SAPI   C3121473   0.008   0.862   6.719 -0.4484 -0.5469 -0.2692
  187SAPI   O3221474  -0.013   0.836   6.601 -0.2406 -0.3783  0.4833
  187SAPI   C3221475  -0.106   0.909   6.815 -0.0609  0.0729  0.1377
  187SAPI   H2X21476  -0.172   0.821   6.834 -0.3438  1.2135  5.2089
  187SAPI   H2Y21477  -0.167   0.988   6.765  1.0461  2.2020  2.0651
  187SAPI   C2321478   0.369   1.236   6.978  0.0432  0.5543  0.0174
  187SAPI   H3R21479   0.306   1.308   6.923 -1.0326  0.8704  1.6373
  187SAPI   H3S21480   0.455   1.293   7.018 -0.5025 -1.1771  3.8853
  187SAPI   C2421481   0.299   1.170   7.094  0.3156 -0.0646  0.3658
  187SAPI   H4R21482   0.368   1.123   7.167  0.0078  0.9001  1.2954
  187SAPI   H4S21483   0.239   1.090   7.045  2.3211 -0.4430 -1.5536
  187SAPI   C2521484   0.212   1.277   7.160 -0.0410 -0.5897 -0.0928
  187SAPI   H5R21485   0.133   1.317   7.096  0.9583  0.8216 -0.4637
  187SAPI   C2621486   0.232   1.324   7.288  0.2163 -0.3767  0.7133
  187SAPI   H6R21487   0.156   1.391   7.330  1.5824  0.5392  1.7544
  187SAPI   C2721488   0.340   1.276   7.381 -0.1963 -0.3333 -0.1882
  187SAPI   H7R21489   0.435   1.259   7.326  0.6302  1.0080  0.8000
  187SAPI   H7S21490   0.321   1.171   7.413  0.1896 -0.1837  0.5435
  187SAPI   C2821491   0.378   1.357   7.502 -0.2993 -0.4021  0.6158
  187SAPI   H8R21492   0.456   1.433   7.482 -1.0909  0.6300  1.4405
  187SAPI   C2921493   0.327   1.357   7.624  0.8395 -0.8862  0.6838
  187SAPI   H9R21494   0.367   1.423   7.702 -2.1342  0.6506  0.9920
  187SAPI  C21021495   0.211   1.265   7.664 -0.4374  0.0961  0.0713
  187SAPI  H10R21496   0.183   1.211   7.571 -0.2370 -1.1993  0.7624
  187SAPI  H10S21497   0.121   1.313   7.708 -0.5130  0.4067 -0.4133
  187SAPI  C21121498   0.263   1.157   7.753 -0.1000 -0.2223  0.2504
  187SAPI  H11R21499   0.298   1.067   7.701 -4.7606 -2.4355  0.6579
  187SAPI  C21221500   0.261   1.158   7.891 -0.6312  0.2807 -0.2350
  187SAPI  H12R21501   0.321   1.085   7.946 -0.6100  0.2605 -0.2844
  187SAPI  C21321502   0.204   1.260   7.988 -0.7129 -0.4247 -0.1425
  187SAPI  H13R21503   0.122   1.205   8.039 -1.8665  0.3963 -1.0890
  187SAPI  H13S21504   0.153   1.347   7.941 -0.2351  0.2653  0.6247
  187SAPI  C21421505   0.305   1.314   8.084 -0.4999  1.1111 -0.2369
  187SAPI  H14R21506   0.382   1.378   8.039  1.4632  0.4357  2.0592
  187SAPI  C21521507   0.307   1.287   8.214  0.3738  0.1326  0.3454
  187SAPI  H15R21508   0.373   1.340   8.283  3.2286 -1.5758 -0.9852
  187SAPI  C21621509   0.205   1.207   8.286 -0.3192  0.5617  0.6122
  187SAPI  H16R21510   0.171   1.122   8.224 -1.7607  1.5290  0.0361
  187SAPI  H16S21511   0.113   1.263   8.314 -0.2846  0.1198  1.6347
  187SAPI  C21721512   0.252   1.154   8.429  0.5699 -0.5030  1.0994
  187SAPI  H17R21513   0.176   1.093   8.481  0.5924 -0.1299  1.5724
  187SAPI  H17S21514   0.269   1.242   8.494 -2.4333 -0.7179  2.2466
  187SAPI  C21821515   0.371   1.066   8.413  0.3349 -0.2340  0.3755
  187SAPI  H18R21516   0.444   1.112   8.344 -0.1276 -0.2373 -0.1187
  187SAPI  H18S21517   0.349   0.963   8.378 -1.1947  0.3309 -0.3881
  187SAPI  C21921518   0.465   1.057   8.532  0.0332  0.1458  0.5331
  187SAPI  H19R21519   0.550   0.989   8.509  0.4469  0.7401  0.2882
  187SAPI  H19S21520   0.399   1.006   8.606 -3.1072  0.7886 -1.6991
  187SAPI  C22021521   0.521   1.194   8.585  0.0153 -0.4474  0.2265
  187SAPI  H20R21522   0.581   1.251   8.512 -1.2140 -0.3044 -0.6980
  187SAPI  H20S21523   0.584   1.163   8.671  1.1791 -0.2958 -0.5616
  187SAPI  H20T21524   0.452   1.277   8.610  0.0921 -0.3575  0.1382
  187SAPI   C3321525  -0.059   0.950   6.957  0.2083  0.2069  0.4834
  187SAPI   H3X21526   0.015   1.033   6.954  1.5948 -1.0419  0.0536
  187SAPI   H3Y21527   0.001   0.862   6.986  0.6588 -0.3893 -2.0757
  187SAPI   C3421528  -0.173   0.988   7.051  0.5032 -0.0718 -0.8703
  187SAPI   H4X21529  -0.253   0.911   7.053  0.7300 -0.2842  0.3146
  187SAPI   H4Y21530  -0.224   1.076   7.006 -1.4500  0.0918  1.5673
  187SAPI   C3521531  -0.129   1.022   7.192  0.1900 -0.6559 -0.3731
  187SAPI   H5X21532  -0.042   1.087   7.216 -0.0213 -1.5513  2.9832
  187SAPI   H5Y21533  -0.098   0.920   7.222 -2.0796 -1.5281 -0.9060
  187SAPI   C3621534  -0.243   1.060   7.278  0.3941  0.4371 -0.4318
  187SAPI   H6X21535  -0.312   0.974   7.289  1.4579 -0.4087 -0.3276
  187SAPI   H6Y21536  -0.305   1.140   7.232 -0.4548 -0.0807 -0.1899
  187SAPI   C3721537  -0.186   1.109   7.414 -0.0530 -0.4341  0.6850
  187SAPI   H7X21538  -0.099   1.177   7.398 -0.2206 -0.2947  0.3737
  187SAPI   H7Y21539  -0.138   1.021   7.461  1.1249 -0.0436  0.2245
  187SAPI   C3821540  -0.289   1.170   7.503 -0.4849 -0.2835 -0.0021
  187SAPI   H8X21541  -0.385   1.120   7.478  0.6909 -2.6234 -0.0110
  187SAPI   H8Y21542  -0.306   1.274   7.469 -0.4312 -1.3257 -3.4358
  187SAPI   C3921543  -0.253   1.138   7.647 -0.3629 -0.5785 -0.1101
  187SAPI   H9X21544  -0.214   1.034   7.648  0.1493 -0.4341 -2.5218
  187SAPI   H9Y21545  -0.347   1.141   7.706  0.3629  1.9268  0.9989
  187SAPI  C31021546  -0.143   1.234   7.706 -0.0111 -0.1091 -0.0203
  187SAPI  H10X21547  -0.177   1.339   7.694  1.4828  0.6488  2.0657
  187SAPI  H10Y21548  -0.048   1.216   7.651 -0.4273 -0.5944 -0.5862
  187SAPI  C31121549  -0.114   1.189   7.847  0.5113  0.3806  0.0260
  187SAPI  H11X21550  -0.056   1.273   7.890 -2.2975  1.5188  1.7637
  187SAPI  H11Y21551  -0.039   1.107   7.838 -0.2651 -0.3302 -0.0933
  187SAPI  C31221552  -0.229   1.153   7.952 -0.1858 -0.1921 -0.2385
  187SAPI  H12X21553  -0.303   1.083   7.908 -0.7684  1.5224 -2.0986
  187SAPI  H12Y21554  -0.280   1.252   7.956  0.9825  0.4793 -1.4682
  187SAPI  C31321555  -0.195   1.111   8.097 -0.5829  0.0288 -0.2742
  187SAPI  H13X21556  -0.281   1.144   8.159  0.3036  1.5181  0.1921
  187SAPI  H13Y21557  -0.105   1.167   8.131 -1.0813  0.0265  1.0734
  187SAPI  C31421558  -0.165   0.966   8.110  0.0088 -0.6096  0.5218
  187SAPI  H14X21559  -0.064   0.970   8.063 -0.8613  0.7185 -1.2934
  187SAPI  H14Y21560  -0.229   0.896   8.053 -1.2466  0.5519  0.4752
  187SAPI  C31521561  -0.164   0.909   8.254 -0.6744 -0.4654 -0.1927
  187SAPI  H15X21562  -0.124   0.984   8.325 -3.0216 -0.4407  1.1573
  187SAPI  H15Y21563  -0.112   0.811   8.244 -0.1111 -0.2836  0.8674
  187SAPI  C31621564  -0.303   0.859   8.304  0.1538  0.1241  0.4368
  187SAPI  H16X21565  -0.372   0.945   8.293 -1.3841 -1.3843 -2.1796
  187SAPI  H16Y21566  -0.286   0.836   8.411 -1.3773 -0.1501  0.6325
  187SAPI  C31721567  -0.347   0.722   8.242  0.3570 -0.2054 -0.9717
  187SAPI  H17X21568  -0.278   0.651   8.292  0.0150  0.7759  0.9371
  187SAPI  H17Y21569  -0.343   0.714   8.131  1.7155 -4.1487 -0.7216
  187SAPI  C31821570  -0.489   0.683   8.280  0.3478 -0.3552 -0.4498
  187SAPI  H18X21571  -0.497   0.573   8.267 -2.4938 -0.1331 -1.0201
  187SAPI  H18Y21572  -0.567   0.732   8.218 -1.0541 -0.9382  0.8108
  187SAPI  H18Z21573  -0.529   0.704   8.382  0.8171 -0.1433 -0.3090
  188SAPI   C1221574   1.237   4.354   6.536 -0.3920  0.0259  0.2490
  188SAPI    H221575   1.206   4.308   6.633  2.0647  1.3606  1.7188
  188SAPI    O221576   1.125   4.407   6.475 -0.4463 -0.2329  0.2123
  188SAPI   HO221577   1.096   4.343   6.410 -3.5301  0.3293  0.9220
  188SAPI   C1321578   1.329   4.462   6.573 -0.3662 -0.1823 -0.5122
  188SAPI    H321579   1.405   4.410   6.635 -2.1692 -1.9562  0.2246
  188SAPI    O321580   1.282   4.569   6.664  0.4905  0.3214 -1.0437
  188SAPI   HO321581   1.225   4.625   6.611 -0.6744 -2.9110 -3.3597
  188SAPI   C1421582   1.398   4.529   6.447  0.2914  0.4275  0.1495
  188SAPI    H421583   1.314   4.565   6.385 -0.0543 -1.8049 -0.7293
  188SAPI    O421584   1.485   4.635   6.490  0.2473  0.3280  0.1520
  188SAPI   HO421585   1.436   4.710   6.524 -1.3359 -0.6671  0.1494
  188SAPI   C1521586   1.468   4.414   6.362  0.1812 -0.2094  0.8116
  188SAPI    H521587   1.546   4.375   6.431  2.8294  0.6060 -1.6078
  188SAPI    O521588   1.528   4.462   6.247 -0.2069  0.1806  0.1488
  188SAPI   HO521589   1.587   4.390   6.224  1.9525  1.5209  1.2995
  188SAPI   C1621590   1.366   4.305   6.330  0.5155 -0.0045 -0.3533
  188SAPI    H621591   1.283   4.351   6.272 -1.8663 -1.6034  1.6957
  188SAPI    O621592   1.424   4.198   6.250 -0.6594 -0.2569 -0.6753
  188SAPI   HO621593   1.377   4.115   6.264 -0.9335 -0.1763 -1.1051
  188SAPI   C1121594   1.295   4.246   6.458  0.0387  0.6614  0.2123
  188SAPI    H121595   1.370   4.204   6.528 -0.4271 -0.3533  0.1112
  188SAPI     P21596   1.216   3.988   6.457 -0.3137 -0.1907 -0.0832
  188SAPI   O1321597   1.357   3.958   6.420  0.6722  0.1923 -0.1117
  188SAPI   O1421598   1.106   3.917   6.398  0.2581  0.5572  0.1534
  188SAPI   O1221599   1.190   4.147   6.435  0.2288 -0.6621 -0.0108
  188SAPI   O1121600   1.201   3.979   6.619 -0.6192  0.5750  0.7357
  188SAPI    C121601   1.068   4.023   6.657  0.6488  0.5745  0.3945
  188SAPI    HA21602   1.052   4.132   6.643 -0.6940  0.2149 -1.1181
  188SAPI    HB21603   0.987   3.972   6.600 -0.7228  0.9280  1.9794
  188SAPI    C221604   1.035   3.987   6.804 -0.5824 -0.5494 -0.9522
  188SAPI    HS21605   0.931   4.015   6.830 -1.0253 -0.8493 -2.3659
  188SAPI   O2121606   1.130   4.057   6.891  0.1631 -0.2984 -0.4246
  188SAPI   C2121607   1.085   4.182   6.920 -0.7797  0.6103  0.0042
  188SAPI   O2221608   0.986   4.237   6.881 -0.1689 -0.0222  0.1144
  188SAPI   C2221609   1.175   4.245   7.028 -0.3002  0.5014  0.0436
  188SAPI   H2R21610   1.230   4.325   6.975  0.2559 -1.1169 -1.9134
  188SAPI   H2S21611   1.115   4.299   7.104 -1.5225 -0.1450 -0.4566
  188SAPI    C321612   1.044   3.836   6.830 -0.4926  0.5414 -0.5099
  188SAPI    HX21613   1.143   3.808   6.788 -0.9878 -0.5789 -0.9455
  188SAPI    HY21614   0.966   3.782   6.772 -2.3523 -0.3381  2.6657
  188SAPI   O3121615   1.029   3.797   6.973 -0.0867 -0.8162  0.3033
  188SAPI   C3121616   1.142   3.793   7.036  0.1150 -0.3215  0.6324
  188SAPI   O3221617   1.256   3.820   6.998  0.2488 -0.0926  0.4670
  188SAPI   C3221618   1.114   3.754   7.179 -0.1107 -0.1070 -0.3541
  188SAPI   H2X21619   1.090   3.646   7.186 -0.4738  0.0820  1.5523
  188SAPI   H2Y21620   1.024   3.807   7.216  0.2287  0.2473 -0.0386
  188SAPI   C2321621   1.272   4.156   7.107  1.0343  0.1526  0.3111
  188SAPI   H3R21622   1.347   4.114   7.036 -0.3938 -0.3272 -0.9475
  188SAPI   H3S21623   1.216   4.068   7.143  1.4457 -0.9992 -1.7680
  188SAPI   C2421624   1.338   4.233   7.226 -0.2096  0.2156 -0.1565
  188SAPI   H4R21625   1.260   4.291   7.279  0.4019  0.8001  0.1085
  188SAPI   H4S21626   1.408   4.304   7.176  0.2453  0.5627  0.9487
  188SAPI   C2521627   1.402   4.137   7.323  0.5008  0.3867  0.0123
  188SAPI   H5R21628   1.501   4.106   7.285  0.2013 -0.5183 -0.0393
  188SAPI   C2621629   1.355   4.097   7.443 -0.1009 -0.6743 -0.3855
  188SAPI   H6R21630   1.416   4.029   7.503  3.4980  1.6304 -1.3005
  188SAPI   C2721631   1.224   4.139   7.509 -0.1412 -0.1382  0.6250
  188SAPI   H7R21632   1.161   4.059   7.551  0.3815 -0.8400  0.0882
  188SAPI   H7S21633   1.163   4.204   7.442 -2.1144 -0.2000  2.3338
  188SAPI   C2821634   1.246   4.231   7.628 -0.0666  0.5901 -0.7480
  188SAPI   H8R21635   1.213   4.333   7.604 -0.5707  0.4277 -0.7671
  188SAPI   C2921636   1.286   4.203   7.754  0.0864 -0.2990 -0.3505
  188SAPI   H9R21637   1.278   4.287   7.825  1.2327 -0.3993 -0.0967
  188SAPI  C21021638   1.329   4.071   7.809 -0.4463 -0.1350 -0.0450
  188SAPI  H10R21639   1.425   4.083   7.864  0.7023 -2.7007 -1.4239
  188SAPI  H10S21640   1.346   3.997   7.728  1.1763  1.7052 -1.4408
  188SAPI  C21121641   1.220   4.005   7.898  0.3745  0.1415 -0.2079
  188SAPI  H11R21642   1.114   4.025   7.877 -0.1660 -0.8883  1.4426
  188SAPI  C21221643   1.241   3.920   8.001  0.3766  0.7079 -0.0035
  188SAPI  H12R21644   1.160   3.877   8.061  0.1385  0.0856 -0.7618
  188SAPI  C21321645   1.373   3.869   8.045 -0.6737  0.3589  1.1543
  188SAPI  H13R21646   1.459   3.938   8.060  0.9039 -1.2340 -0.2075
  188SAPI  H13S21647   1.415   3.811   7.960  1.1620  0.7527  1.7687
  188SAPI  C21421648   1.378   3.777   8.162  0.6151  0.7402 -0.2257
  188SAPI  H14R21649   1.391   3.673   8.130 -1.2912  0.9751 -1.9363
  188SAPI  C21521650   1.359   3.814   8.288  0.2828  0.7824  0.2693
  188SAPI  H15R21651   1.359   3.742   8.371 -3.2621 -0.0675 -0.3996
  188SAPI  C21621652   1.326   3.955   8.329  0.0558 -0.0593 -0.0751
  188SAPI  H16R21653   1.358   4.031   8.254  1.8700  0.0152  0.7489
  188SAPI  H16S21654   1.388   3.986   8.416  1.6823  2.1717 -1.9446
  188SAPI  C21721655   1.178   3.975   8.363 -0.2224 -0.2550  0.0802
  188SAPI  H17R21656   1.109   3.929   8.290  0.6050 -0.8994 -0.3093
  188SAPI  H17S21657   1.155   4.083   8.373  3.0898  0.6440 -1.3906
  188SAPI  C21821658   1.137   3.904   8.500 -0.6108  0.0558  0.0130
  188SAPI  H18R21659   1.217   3.919   8.574  0.2209 -0.5012 -0.7582
  188SAPI  H18S21660   1.136   3.793   8.486  3.2334 -0.1441  0.7590
  188SAPI  C21921661   1.004   3.956   8.553 -0.6352 -0.0185  0.7655
  188SAPI  H19R21662   0.926   3.921   8.483 -1.8694 -0.6587  2.4308
  188SAPI  H19S21663   1.013   4.067   8.551  1.6783 -0.1964 -0.3050
  188SAPI  C22021664   0.962   3.907   8.691  0.7241  0.2916 -0.3147
  188SAPI  H20R21665   1.028   3.926   8.777 -0.4864  1.8004  0.3065
  188SAPI  H20S21666   0.956   3.796   8.688  2.8950  0.1394  0.2279
  188SAPI  H20T21667   0.856   3.934   8.713  0.8090 -1.3008  2.2076
  188SAPI   C3321668   1.239   3.774   7.265  0.3311 -0.0107  0.5256
  188SAPI   H3X21669   1.288   3.873   7.250  0.5810  0.0506  1.7203
  188SAPI   H3Y21670   1.315   3.701   7.231  2.2917  1.5116  1.5067
  188SAPI   C3421671   1.207   3.765   7.419  0.1022 -0.9582 -0.3265
  188SAPI   H4X21672   1.136   3.848   7.440  2.1001  0.1052  2.6768
  188SAPI   H4Y21673   1.299   3.797   7.473 -0.1610 -1.6270  0.5394
  188SAPI   C3521674   1.160   3.633   7.473 -0.0794  0.8127 -0.3512
  188SAPI   H5X21675   1.236   3.561   7.435 -0.0208  0.0087  1.2236
  188SAPI   H5Y21676   1.064   3.609   7.424 -0.2524  0.3890  0.2006
  188SAPI   C3621677   1.153   3.630   7.627 -0.2005  0.2648 -0.3022
  188SAPI   H6X21678   1.248   3.658   7.677  1.0541 -0.3815 -2.2451
  188SAPI   H6Y21679   1.125   3.533   7.673 -0.5564 -0.3048 -1.6982
  188SAPI   C3721680   1.055   3.747   7.669  0.5338  0.4627  0.6238
  188SAPI   H7X21681   0.967   3.751   7.601  0.1173  0.3946  1.1522
  188SAPI   H7Y21682   1.102   3.847   7.669 -1.3404  1.3873  2.5394
  188SAPI   C3821683   1.000   3.727   7.811 -0.2838 -0.4918 -0.1271
  188SAPI   H8X21684   1.070   3.730   7.897 -0.3160 -0.5903 -0.0975
  188SAPI   H8Y21685   0.936   3.637   7.819 -1.4443  0.2255 -1.1547
  188SAPI   C3921686   0.891   3.838   7.840 -0.1918  0.0076 -0.5437
  188SAPI   H9X21687   0.811   3.831   7.764 -1.3650 -1.4226  0.7894
  188SAPI   H9Y21688   0.939   3.938   7.839  1.0156 -0.5442  0.0199
  188SAPI  C31021689   0.823   3.823   7.974 -0.0036  0.3133  0.7994
  188SAPI  H10X21690   0.898   3.808   8.056  1.5250  1.4191 -0.3665
  188SAPI  H10Y21691   0.760   3.732   7.980  0.1766  0.2799  2.4968
  188SAPI  C31121692   0.725   3.940   8.011  0.3349 -0.2354  0.1558
  188SAPI  H11X21693   0.655   3.939   7.924  0.5918 -0.2545 -0.0513
  188SAPI  H11Y21694   0.788   4.030   8.021  2.1650 -1.5209  0.4601
  188SAPI  C31221695   0.663   3.935   8.147  0.4426 -0.2039  0.3054
  188SAPI  H12X21696   0.734   3.904   8.227  0.7562 -1.1708 -0.3322
  188SAPI  H12Y21697   0.590   3.850   8.145  0.1133  0.0879 -0.4286
  188SAPI  C31321698   0.581   4.063   8.191 -0.3420 -0.0615  0.1141
  188SAPI  H13X21699   0.489   4.061   8.128 -1.4252  2.4274  1.5323
  188SAPI  H13Y21700   0.632   4.158   8.163  1.0744 -0.7665  0.2446
  188SAPI  C31421701   0.549   4.058   8.343  0.7523 -1.1054  0.6272
  188SAPI  H14X21702   0.643   4.051   8.401 -0.6516  1.6007  3.4018
  188SAPI  H14Y21703   0.480   3.974   8.366 -0.1613 -0.5514 -0.0617
  188SAPI  C31521704   0.492   4.195   8.379 -0.2976  0.4931  0.1295
  188SAPI  H15X21705   0.389   4.200   8.339  0.5072 -2.6968 -2.6225
  188SAPI  H15Y21706   0.555   4.274   8.332  0.0325  0.2580  0.1712
  188SAPI  C31621707   0.497   4.214   8.527  0.1807 -0.3180  0.0286
  188SAPI  H16X21708   0.592   4.262   8.560 -0.4821 -0.3368  2.0609
  188SAPI  H16Y21709   0.470   4.121   8.582 -0.7467  1.3559  2.4814
  188SAPI  C31721710   0.387   4.324   8.566 -0.1871 -0.3125  0.4091
  188SAPI  H17X21711   0.315   4.323   8.482  0.5240  1.9107 -0.2526
  188SAPI  H17Y21712   0.429   4.427   8.571 -0.7706  0.1543 -3.4008
  188SAPI  C31821713   0.346   4.289   8.711 -0.1778  0.0582 -0.3869
  188SAPI  H18X21714   0.256   4.348   8.740  1.0937  2.7847 -1.7708
  188SAPI  H18Y21715   0.430   4.322   8.775 -2.1139  1.8899  1.2909
  188SAPI  H18Z21716   0.324   4.180   8.715 -0.8562  0.1696 -1.0468
  189POPC     N21717   0.735   5.768  11.216 -0.1258 -0.1470  0.9575
  189POPC   C1221718   0.837   5.682  11.143  0.1424  1.0198  0.6334
  189POPC  H12A21719   0.788   5.625  11.065  0.0304  1.7396  0.1697
  189POPC  H12B21720   0.880   5.609  11.210 -2.0283 -2.4541 -1.5821
  189POPC   C1321721   0.795   5.835  11.335 -0.1413 -1.2871 -0.0205
  189POPC  H13A21722   0.825   5.762  11.409  0.4997 -0.8515  0.1524
  189POPC  H13B21723   0.883   5.892  11.310 -0.3963 -0.4286  1.0310
  189POPC  H13C21724   0.726   5.899  11.387  0.5026 -0.0254 -0.7005
  189POPC   C1421725   0.680   5.849  11.114  0.2867 -0.5209 -0.2643
  189POPC  H14A21726   0.759   5.896  11.057 -0.1037 -0.4290 -0.7348
  189POPC  H14B21727   0.628   5.787  11.042 -1.8967 -1.1819  1.8196
  189POPC  H14C21728   0.615   5.926  11.154  1.1334 -0.3637  0.8100
  189POPC   C1521729   0.632   5.677  11.271 -0.6762 -0.5294 -0.1705
  189POPC  H15A21730   0.582   5.633  11.186  0.3133 -2.7323  0.3733
  189POPC  H15B21731   0.565   5.718  11.346 -0.4049  0.0295 -0.2276
  189POPC  H15C21732   0.687   5.594  11.313  2.8351  0.9371 -1.7224
  189POPC   C1121733   0.963   5.750  11.088 -0.1657 -0.1077 -0.3691
  189POPC  H11A21734   1.032   5.682  11.034 -1.3253  0.9082 -3.2300
  189POPC  H11B21735   1.010   5.796  11.177 -1.0640  2.8191 -1.3235
  189POPC     P21736   1.039   5.973  10.970 -0.3517 -0.2550  0.0633
  189POPC   O1321737   1.088   6.043  11.091 -0.0373  0.6895  0.2688
  189POPC   O1421738   0.980   6.055  10.861  0.4262  0.3390 -0.2845
  189POPC   O1221739   0.933   5.870  11.005  0.3473 -0.4608 -0.3030
  189POPC   O1121740   1.161   5.880  10.908 -0.0280 -0.0481 -0.8519
  189POPC    C121741   1.145   5.802  10.794  0.1792  0.5026  0.5544
  189POPC    HA21742   1.048   5.749  10.792  1.5625 -2.0713  0.1616
  189POPC    HB21743   1.223   5.723  10.797 -1.1484 -0.8365  0.2185
  189POPC    C221744   1.160   5.883  10.666  1.4527 -0.5606 -0.1588
  189POPC    HS21745   1.077   5.957  10.669  0.3100 -1.8616  0.6561
  189POPC   O2121746   1.170   5.798  10.550  0.4536  0.8815 -0.2134
  189POPC   C2121747   1.054   5.764  10.507 -0.7394 -0.0738 -0.9979
  189POPC   O2221748   0.949   5.809  10.549 -0.3521  0.8520  0.1336
  189POPC   C2221749   1.068   5.654  10.408  0.0445 -0.4661  0.2660
  189POPC   H2R21750   0.965   5.623  10.380 -0.5675  0.8885  1.0072
  189POPC   H2S21751   1.109   5.564  10.458  4.3782  1.8191  1.0946
  189POPC    C321752   1.291   5.965  10.671 -0.4275 -0.0237 -0.6685
  189POPC    HX21753   1.371   5.898  10.708 -0.6786 -1.7105 -3.0335
  189POPC    HY21754   1.265   6.040  10.749 -2.6310  0.2790 -1.6440
  189POPC   O3121755   1.319   6.034  10.548  0.5475 -0.0828 -0.3800
  189POPC   C3121756   1.416   5.987  10.469 -0.4169 -0.1011 -0.6128
  189POPC   O3221757   1.486   5.890  10.489  0.3503 -0.3037 -0.6095
  189POPC   C3221758   1.425   6.069  10.338  0.2898  0.2167  0.5055
  189POPC   H2X21759   1.533   6.096  10.333 -0.0048  1.2230 -0.6148
  189POPC   H2Y21760   1.359   6.158  10.340  1.9053  1.4628  0.0653
  189POPC   C2321761   1.158   5.694  10.295 -0.3723  0.2470  0.5131
  189POPC   H3R21762   1.263   5.686  10.330 -0.0034  0.9461 -0.4051
  189POPC   H3S21763   1.143   5.801  10.271 -1.1804  0.3817  1.5967
  189POPC   C2421764   1.145   5.599  10.179 -0.0198  1.2236  0.1391
  189POPC   H4R21765   1.038   5.572  10.164  0.5240 -0.4898 -0.7595
  189POPC   H4S21766   1.196   5.503  10.200 -1.8832  0.1066 -0.2803
  189POPC   C2521767   1.204   5.663  10.056  0.3307  0.0288 -0.2449
  189POPC   H5R21768   1.311   5.687  10.078  0.3048 -0.0195 -0.0693
  189POPC   H5S21769   1.154   5.761  10.038  1.0091  0.9150  2.5011
  189POPC   C2621770   1.189   5.591   9.927 -0.5136  0.8407  0.4042
  189POPC   H6R21771   1.083   5.559   9.918 -0.5250  0.9197  0.2454
  189POPC   H6S21772   1.248   5.498   9.920  0.4740  1.5139 -0.6063
  189POPC   C2721773   1.229   5.680   9.801  0.0275 -0.3519 -0.5868
  189POPC   H7R21774   1.336   5.704   9.814 -0.0832 -0.1479 -0.0596
  189POPC   H7S21775   1.171   5.773   9.819 -0.7759 -1.0147  0.2883
  189POPC   C2821776   1.209   5.624   9.661 -0.4561 -0.7383  0.3983
  189POPC   H8R21777   1.267   5.530   9.648  1.6972  0.5393  0.5031
  189POPC   H8S21778   1.247   5.693   9.581  1.8247 -2.1050  0.2535
  189POPC   C2921779   1.062   5.596   9.641 -0.5278 -0.1619  0.5049
  189POPC   H9121780   1.020   5.535   9.722  1.8778  2.2235  3.6447
  189POPC  C21021781   0.980   5.626   9.541 -0.6321 -0.0061  0.3168
  189POPC  H10121782   0.883   5.575   9.552 -0.3951 -0.6180 -0.3547
  189POPC  C21121783   1.007   5.708   9.420  0.0787 -0.0227 -0.3881
  189POPC  H11R21784   0.987   5.643   9.332  1.1438 -0.5604 -0.2488
  189POPC  H11S21785   1.114   5.739   9.417 -0.2478  1.5652  2.2549
  189POPC  C21221786   0.910   5.829   9.420  0.5797  0.6575  0.0978
  189POPC  H12R21787   0.915   5.880   9.518 -3.8385  0.8271  0.3615
  189POPC  H12S21788   0.807   5.793   9.399  0.8962 -1.3708  1.8070
  189POPC  C21321789   0.949   5.941   9.327  0.0014  0.4101  0.2544
  189POPC  H13R21790   1.027   6.005   9.374  2.2759 -3.1317  1.5361
  189POPC  H13S21791   0.855   5.999   9.316 -1.0933 -0.6044  3.6725
  189POPC  C21421792   0.983   5.895   9.186 -0.5041  0.4100  0.8993
  189POPC  H14R21793   0.935   5.800   9.153  1.5769  0.3559 -2.1630
  189POPC  H14S21794   1.092   5.881   9.175 -0.9928 -3.3912  0.1409
  189POPC  C21521795   0.930   5.994   9.084 -0.1053  0.0542  0.1574
  189POPC  H15R21796   1.010   6.071   9.084 -1.0910  1.0857 -0.6443
  189POPC  H15S21797   0.841   6.052   9.115 -0.9791  0.2485 -2.6012
  189POPC  C21621798   0.911   5.928   8.943  0.1098 -0.1283  0.8724
  189POPC  H16R21799   0.831   5.851   8.948 -0.9810  0.9341 -0.0725
  189POPC  H16S21800   1.002   5.872   8.915 -0.7386 -0.5814 -1.0683
  189POPC  C21721801   0.875   6.037   8.839 -0.1068  0.5040  0.4045
  189POPC  H17R21802   0.876   5.982   8.742  0.9085 -1.3397  1.4417
  189POPC  H17S21803   0.953   6.117   8.839  0.4906 -0.0743  0.3899
  189POPC  C21821804   0.739   6.091   8.849  0.1505 -0.4812 -0.7137
  189POPC  H18R21805   0.720   6.155   8.937  0.1201 -0.9602 -0.3723
  189POPC  H18S21806   0.663   6.010   8.848  0.1057 -0.4374 -0.7770
  189POPC  H18T21807   0.718   6.158   8.763 -1.4319  0.7666  0.6221
  189POPC   C3321808   1.400   5.991  10.209  0.0019 -0.6763 -0.1524
  189POPC   H3X21809   1.292   5.963  10.204 -0.7631  2.0484  0.3040
  189POPC   H3Y21810   1.469   5.904  10.204 -0.0216 -0.6146 -1.6285
  189POPC   C3421811   1.419   6.072  10.074 -0.1471 -0.7354 -0.7638
  189POPC   H4X21812   1.524   6.069  10.037  0.4204  0.8323  0.6980
  189POPC   H4Y21813   1.374   6.171  10.096  1.6988 -0.2347  0.8658
  189POPC   C3521814   1.360   6.015   9.941 -0.0032 -0.2796 -0.4278
  189POPC   H5X21815   1.251   6.002   9.958  0.0931  3.1268  3.6572
  189POPC   H5Y21816   1.408   5.916   9.922 -1.2668 -1.2114  1.0756
  189POPC   C3621817   1.380   6.096   9.814 -0.1326  0.7576  0.2906
  189POPC   H6X21818   1.489   6.118   9.805  0.3871 -2.3271 -1.5330
  189POPC   H6Y21819   1.327   6.193   9.827 -1.1692  0.1840  0.3411
  189POPC   C3721820   1.345   6.016   9.680  0.1666  0.2322  0.2225
  189POPC   H7X21821   1.239   5.994   9.658  1.4057 -2.5271 -3.3107
  189POPC   H7Y21822   1.386   5.915   9.699  1.2801  0.7200  0.4674
  189POPC   C3821823   1.407   6.084   9.560  0.3249 -1.0399 -0.7277
  189POPC   H8X21824   1.518   6.082   9.560  0.3507 -0.8091  1.3938
  189POPC   H8Y21825   1.383   6.192   9.563 -0.1684 -1.1946  1.6531
  189POPC   C3921826   1.369   6.016   9.424 -0.0258 -0.4497 -0.4460
  189POPC   H9X21827   1.261   5.992   9.415  0.0690 -1.4901  1.1765
  189POPC   H9Y21828   1.425   5.920   9.432  0.8865  0.2795  2.3371
  189POPC  C31021829   1.419   6.101   9.307 -0.6512 -0.5178 -0.3424
  189POPC  H10X21830   1.529   6.101   9.321 -0.5003 -1.3152 -1.4340
  189POPC  H10Y21831   1.371   6.198   9.332  0.2036 -0.4914  1.2466
  189POPC  C31121832   1.373   6.031   9.179  0.1740  0.1637  0.0487
  189POPC  H11X21833   1.263   6.018   9.175  0.1666  0.5927 -2.6045
  189POPC  H11Y21834   1.424   5.933   9.172  0.3470  0.3380 -1.2552
  189POPC  C31221835   1.421   6.119   9.060 -0.9877  0.0579 -0.3973
  189POPC  H12X21836   1.530   6.098   9.060 -0.9969 -0.0281 -1.0504
  189POPC  H12Y21837   1.393   6.223   9.089 -1.6747 -0.3151  0.2901
  189POPC  C31321838   1.368   6.069   8.921  0.2885  0.2808 -0.2696
  189POPC  H13X21839   1.419   6.130   8.843  0.0583 -1.0471 -1.4953
  189POPC  H13Y21840   1.262   6.103   8.920  0.3779  0.5539 -0.3016
  189POPC  C31421841   1.384   5.922   8.881  0.2154 -0.0414  0.2400
  189POPC  H14X21842   1.348   5.839   8.946 -0.0548 -0.6743 -0.7029
  189POPC  H14Y21843   1.493   5.900   8.874  0.3372  0.4994  0.4319
  189POPC  C31521844   1.320   5.896   8.741 -0.5213 -0.5925  0.5541
  189POPC  H15X21845   1.377   5.951   8.664 -0.6472  1.0801  1.6383
  189POPC  H15Y21846   1.217   5.938   8.742 -0.0550  0.5599  0.4895
  189POPC  C31621847   1.332   5.745   8.693  0.5792  1.1873  0.3498
  189POPC  H16X21848   1.272   5.681   8.760  0.7728 -1.1104 -1.6202
  189POPC  H16Y21849   1.436   5.707   8.686  0.1344  0.0166 -0.0105
  189POPC  H16Z21850   1.288   5.738   8.591  2.1548 -0.0750 -0.2777
  190POPC     N21851   3.612   2.029  11.081  0.1771 -0.0934  0.5629
  190POPC   C1221852   3.523   2.063  10.965  0.3234  0.0529 -0.3591
  190POPC  H12A21853   3.580   2.135  10.909  0.7186 -0.0653 -0.1080
  190POPC  H12B21854   3.428   2.102  11.001  0.8577  1.5089 -0.4895
  190POPC   C1321855   3.531   1.973  11.198  0.2905 -0.7111  0.6293
  190POPC  H13A21856   3.450   1.916  11.154  0.2874 -1.4603  1.5896
  190POPC  H13B21857   3.594   1.911  11.259  2.1983  0.1346 -0.4370
  190POPC  H13C21858   3.492   2.050  11.263 -1.7879  0.1293 -1.5488
  190POPC   C1421859   3.717   1.938  11.039 -0.1287 -0.0703  0.0011
  190POPC  H14A21860   3.780   1.993  10.970 -1.8994  2.7510  0.5675
  190POPC  H14B21861   3.782   1.905  11.119  0.4955  0.5310 -0.2534
  190POPC  H14C21862   3.678   1.850  10.989  2.2723 -0.7200 -0.8153
  190POPC   C1521863   3.681   2.148  11.131  0.0208  0.0826 -0.0208
  190POPC  H15A21864   3.614   2.223  11.170  0.6510  1.0434 -0.7611
  190POPC  H15B21865   3.736   2.199  11.053  0.1521  1.3377  0.8795
  190POPC  H15C21866   3.752   2.119  11.207 -0.0185 -1.6538 -0.6249
  190POPC   C1121867   3.464   1.941  10.881  0.3915 -0.0677 -0.6062
  190POPC  H11A21868   3.547   1.888  10.830  0.6248 -0.6004  0.3228
  190POPC  H11B21869   3.392   1.977  10.804  2.3393  1.3275 -1.8311
  190POPC     P21870   3.248   1.808  10.949 -0.0415  0.0762 -0.0909
  190POPC   O1321871   3.169   1.924  10.920  0.6363 -0.2931  0.2965
  190POPC   O1421872   3.207   1.719  11.060 -0.1971  0.0708  0.2583
  190POPC   O1221873   3.394   1.851  10.973  0.2518 -0.5863  0.1025
  190POPC   O1121874   3.267   1.729  10.814 -0.2829 -0.0467 -0.0886
  190POPC    C121875   3.370   1.626  10.789 -0.2182 -0.1714 -0.0919
  190POPC    HA21876   3.367   1.541  10.861 -1.3128 -1.8808 -2.1009
  190POPC    HB21877   3.472   1.668  10.804 -1.4302  2.1118  1.9611
  190POPC    C221878   3.354   1.560  10.642  0.1206  0.7521 -0.2544
  190POPC    HS21879   3.445   1.503  10.612 -1.2033 -0.8229 -1.3209
  190POPC   O2121880   3.318   1.658  10.545  0.1661 -0.3047 -0.8349
  190POPC   C2121881   3.394   1.757  10.538 -0.3431 -0.6060 -0.3107
  190POPC   O2221882   3.510   1.766  10.578 -0.3974 -0.0807  0.2378
  190POPC   C2221883   3.313   1.870  10.465  0.4686  0.2572  0.9075
  190POPC   H2R21884   3.365   1.967  10.472  0.9936  0.0366  0.0157
  190POPC   H2S21885   3.230   1.890  10.537  0.2763  0.5994  0.5961
  190POPC    C321886   3.233   1.453  10.649  0.0803  0.0114  0.2404
  190POPC    HX21887   3.138   1.502  10.677  0.0288 -0.3780  0.7531
  190POPC    HY21888   3.258   1.373  10.722 -0.7235  0.0459  0.5465
  190POPC   O3121889   3.219   1.389  10.520 -0.3878 -0.3028 -0.1495
  190POPC   C3121890   3.121   1.426  10.438 -0.0374  0.5029 -0.4279
  190POPC   O3221891   3.036   1.511  10.453 -0.0118 -0.0146 -0.2326
  190POPC   C3221892   3.129   1.326  10.316  0.2061  0.5737 -0.2489
  190POPC   H2X21893   3.034   1.334  10.259 -0.3411 -0.0956  0.5458
  190POPC   H2Y21894   3.143   1.222  10.352 -2.5337 -0.6991 -2.5917
  190POPC   C2321895   3.270   1.836  10.323 -0.5612  0.0398 -0.5142
  190POPC   H3R21896   3.211   1.743  10.333 -1.9355  1.0796  1.2630
  190POPC   H3S21897   3.355   1.817  10.253 -1.3770 -0.4304 -1.3781
  190POPC   C2421898   3.169   1.944  10.273 -0.1650 -0.1446 -0.1585
  190POPC   H4R21899   3.211   2.047  10.283 -1.2372  0.2457  0.4664
  190POPC   H4S21900   3.078   1.944  10.336 -0.1510 -1.4631 -0.1276
  190POPC   C2521901   3.118   1.919  10.127  0.3524  0.0066  0.3503
  190POPC   H5R21902   3.053   1.829  10.133 -2.5244  2.0878  1.9848
  190POPC   H5S21903   3.202   1.895  10.059 -1.6005 -1.0081 -1.7586
  190POPC   C2621904   3.050   2.039  10.059  0.3780  0.2925  0.3228
  190POPC   H6R21905   3.127   2.117  10.038  0.4413  0.2832  0.5230
  190POPC   H6S21906   2.977   2.085  10.129 -1.6066  1.1671 -2.2316
  190POPC   C2721907   2.967   2.012   9.935  0.5254 -1.1398 -0.0901
  190POPC   H7R21908   2.906   1.921   9.958 -0.5681 -0.4712 -0.2788
  190POPC   H7S21909   3.037   1.991   9.852  1.7532  1.7848  0.1662
  190POPC   C2821910   2.872   2.133   9.897  1.0725 -0.3939 -0.4082
  190POPC   H8R21911   2.935   2.219   9.865  1.2422  0.1196  1.2630
  190POPC   H8S21912   2.826   2.179   9.987  2.1361 -0.5511  0.2276
  190POPC   C2921913   2.766   2.093   9.797 -0.3741  0.8398  0.5194
  190POPC   H9121914   2.668   2.077   9.845 -0.2432 -1.8650 -0.0417
  190POPC  C21021915   2.770   2.091   9.663 -0.3461  0.0277 -0.7523
  190POPC  H10121916   2.680   2.045   9.620 -1.3266 -0.1371  1.3758
  190POPC  C21121917   2.877   2.123   9.567 -0.3591  0.0710  0.8316
  190POPC  H11R21918   2.966   2.163   9.619 -0.8126  1.2026  0.7399
  190POPC  H11S21919   2.850   2.203   9.495  0.6515  0.1675  0.5433
  190POPC  C21221920   2.920   2.001   9.477 -0.3645 -0.4627 -0.6071
  190POPC  H12R21921   2.965   1.924   9.544 -0.3829 -1.6034 -1.8916
  190POPC  H12S21922   3.012   2.031   9.423 -1.6266 -0.4304 -2.7679
  190POPC  C21321923   2.809   1.955   9.381 -1.3063 -0.2636 -1.0995
  190POPC  H13R21924   2.764   2.044   9.333 -2.5407 -0.1985  0.1583
  190POPC  H13S21925   2.735   1.900   9.441 -0.0808 -0.1188  0.5843
  190POPC  C21421926   2.862   1.852   9.274 -0.0788  0.0395 -0.4839
  190POPC  H14R21927   2.895   1.761   9.329 -0.6105  0.4081  0.4450
  190POPC  H14S21928   2.945   1.895   9.213 -0.5745 -0.5709 -1.6094
  190POPC  C21521929   2.757   1.813   9.167  0.1738  1.1184 -0.7039
  190POPC  H15R21930   2.719   1.904   9.117 -1.1301 -1.6286 -4.9888
  190POPC  H15S21931   2.670   1.765   9.218 -1.1793  2.9729 -1.2012
  190POPC  C21621932   2.818   1.723   9.048  0.2140  0.2583 -0.0083
  190POPC  H16R21933   2.838   1.620   9.086 -0.8921 -0.0795 -0.3281
  190POPC  H16S21934   2.916   1.768   9.022  0.5032 -0.3229  0.0740
  190POPC  C21721935   2.730   1.711   8.920 -1.2097  0.6998 -0.1617
  190POPC  H17R21936   2.721   1.816   8.885  1.2664  0.5323 -1.3938
  190POPC  H17S21937   2.632   1.673   8.956 -0.4383  1.0035  2.3073
  190POPC  C21821938   2.804   1.619   8.821 -0.0069  0.8073  0.8274
  190POPC  H18R21939   2.777   1.514   8.846  0.4170  0.1572 -1.3380
  190POPC  H18S21940   2.914   1.624   8.831  0.1562 -1.0534  0.2883
  190POPC  H18T21941   2.771   1.626   8.715 -0.1793 -2.0786  0.6441
  190POPC   C3321942   3.239   1.375  10.213 -0.3293  0.3283 -0.7945
  190POPC   H3X21943   3.262   1.284  10.155  0.6174  1.0801 -1.6196
  190POPC   H3Y21944   3.333   1.406  10.265 -1.4798 -0.1492  1.6684
  190POPC   C3421945   3.190   1.481  10.120 -0.3696  0.1398 -0.0778
  190POPC   H4X21946   3.165   1.574  10.175 -2.3803  0.3380 -1.2844
  190POPC   H4Y21947   3.103   1.438  10.065 -1.3221  1.3365  0.4873
  190POPC   C3521948   3.296   1.514  10.016  0.1498 -0.3721  0.2472
  190POPC   H5X21949   3.334   1.429   9.955  0.5806 -0.0164  0.0133
  190POPC   H5Y21950   3.378   1.549  10.083 -1.8380  0.5914  2.2549
  190POPC   C3621951   3.247   1.629   9.925 -0.2452 -0.6264  0.0457
  190POPC   H6X21952   3.330   1.695   9.892 -0.2987  0.9336  2.8265
  190POPC   H6Y21953   3.160   1.691   9.957 -0.1654  0.2858 -1.4454
  190POPC   C3721954   3.197   1.579   9.789  0.1548 -0.4996  0.2388
  190POPC   H7X21955   3.168   1.665   9.726 -2.4668  0.6679  2.9070
  190POPC   H7Y21956   3.114   1.507   9.806  1.0696 -1.3640  1.1607
  190POPC   C3821957   3.306   1.493   9.717 -0.7273 -0.6438  0.2289
  190POPC   H8X21958   3.307   1.390   9.758 -2.2077 -1.2183 -1.1155
  190POPC   H8Y21959   3.399   1.550   9.735 -2.0874  1.9412 -0.5699
  190POPC   C3921960   3.283   1.464   9.565 -0.9641  0.5132  0.4813
  190POPC   H9X21961   3.176   1.451   9.541 -0.2151 -0.8935 -2.3162
  190POPC   H9Y21962   3.340   1.380   9.519  0.4793  0.6783  1.8954
  190POPC  C31021963   3.329   1.593   9.504 -0.0020 -0.7522 -0.3815
  190POPC  H10X21964   3.432   1.622   9.535 -0.1630 -0.7065  0.1059
  190POPC  H10Y21965   3.259   1.671   9.540 -1.1475 -0.7130 -2.6145
  190POPC  C31121966   3.332   1.588   9.347  0.0160  0.7465  0.3326
  190POPC  H11X21967   3.386   1.508   9.293 -1.5706  1.2759 -2.1150
  190POPC  H11Y21968   3.379   1.685   9.319 -1.0752  1.2839  0.3152
  190POPC  C31221969   3.194   1.565   9.283 -0.8558  0.4357 -0.2239
  190POPC  H12X21970   3.121   1.605   9.356 -0.7525  2.4675 -1.1922
  190POPC  H12Y21971   3.171   1.457   9.269 -2.7833  0.8890 -0.7249
  190POPC  C31321972   3.179   1.648   9.161 -0.4834  0.2194 -0.4200
  190POPC  H13X21973   3.159   1.754   9.186 -1.2068 -0.2043  0.8500
  190POPC  H13Y21974   3.090   1.616   9.103 -3.2646  1.7293  2.8551
  190POPC  C31421975   3.293   1.632   9.058  0.5831 -0.4963  0.2481
  190POPC  H14X21976   3.295   1.530   9.014 -0.6613  0.0661 -1.1590
  190POPC  H14Y21977   3.394   1.649   9.100  0.4196  0.2624  0.3377
  190POPC  C31521978   3.272   1.727   8.939  0.6391 -0.6126 -0.1903
  190POPC  H15X21979   3.249   1.833   8.962 -0.6939 -0.9021 -0.1651
  190POPC  H15Y21980   3.183   1.685   8.887 -0.1598 -0.0516  0.7167
  190POPC  C31621981   3.388   1.719   8.847 -0.8719  0.0644 -0.4354
  190POPC  H16X21982   3.372   1.769   8.749  2.8331 -0.0280 -1.1587
  190POPC  H16Y21983   3.418   1.612   8.836  0.7644  0.3405  1.2566
  190POPC  H16Z21984   3.468   1.773   8.901 -2.2495  0.9841  0.6940
  191POPC     N21985   3.482   3.574   6.184 -0.4479 -0.3877 -0.3194
  191POPC   C1221986   3.412   3.444   6.184  0.1205 -0.0175  0.3171
  191POPC  H12A21987   3.454   3.379   6.109 -0.1234  0.8398 -0.5660
  191POPC  H12B21988   3.312   3.464   6.150 -0.7817 -1.3254  2.1159
  191POPC   C1321989   3.631   3.550   6.204  0.5212 -1.0797 -0.7300
  191POPC  H13A21990   3.654   3.514   6.303 -0.9596 -2.7431 -0.9811
  191POPC  H13B21991   3.657   3.466   6.142  1.9533 -0.7889 -0.5535
  191POPC  H13C21992   3.682   3.639   6.171  0.2564  0.5149  2.8486
  191POPC   C1421993   3.477   3.631   6.044  0.2042  0.2999  0.7598
  191POPC  H14A21994   3.532   3.724   6.043  0.6759  0.0546  2.7741
  191POPC  H14B21995   3.534   3.571   5.975 -0.2687 -1.6182  1.9939
  191POPC  H14C21996   3.376   3.654   6.012  0.2391  3.6523  2.8214
  191POPC   C1521997   3.429   3.678   6.277  0.5596  0.1681 -0.1812
  191POPC  H15A21998   3.400   3.643   6.375 -1.0839 -2.6127 -1.6173
  191POPC  H15B21999   3.341   3.728   6.238 -0.7833 -2.2531 -0.3303
  191POPC  H15C22000   3.490   3.768   6.283 -0.2856  0.8365 -1.3270
  191POPC   C1122001   3.411   3.385   6.327 -0.4636 -0.4716  0.2400
  191POPC  H11A22002   3.330   3.311   6.343 -0.2015 -0.5606  1.2040
  191POPC  H11B22003   3.392   3.462   6.405 -1.2995 -0.3106 -0.1136
  191POPC     P22004   3.579   3.189   6.291 -0.2872 -0.2174  0.0536
  191POPC   O1322005   3.728   3.193   6.268  0.4219  0.7251  0.6781
  191POPC   O1422006   3.491   3.151   6.178 -0.3175 -0.3844  0.0968
  191POPC   O1222007   3.538   3.331   6.358  0.2728  0.1978  0.3646
  191POPC   O1122008   3.551   3.077   6.394 -0.2704 -0.1989  0.5938
  191POPC    C122009   3.480   3.083   6.510 -0.9369 -0.1021  0.5125
  191POPC    HA22010   3.406   3.000   6.509 -2.7710  1.4722 -0.0831
  191POPC    HB22011   3.416   3.174   6.523  0.3480  1.0924 -1.2980
  191POPC    C222012   3.570   3.067   6.638  0.1396 -0.6391  0.2035
  191POPC    HS22013   3.507   3.036   6.724  1.6179 -0.4347  1.3705
  191POPC   O2122014   3.643   3.190   6.660 -0.0079 -0.7602  0.3381
  191POPC   C2122015   3.689   3.216   6.782  0.1646 -0.1424  0.5528
  191POPC   O2222016   3.669   3.149   6.880 -0.0238 -0.5964 -0.6450
  191POPC   C2222017   3.763   3.350   6.793  0.5288  0.3795  0.2092
  191POPC   H2R22018   3.691   3.420   6.745  1.3092 -0.0787 -1.6983
  191POPC   H2S22019   3.844   3.347   6.716  0.5003  0.6405  0.1677
  191POPC    C322020   3.675   2.950   6.632 -0.6553  0.1275  1.0834
  191POPC    HX22021   3.759   2.964   6.560 -0.9841 -1.8977  0.2687
  191POPC    HY22022   3.621   2.856   6.606 -1.6508  1.2695 -1.1732
  191POPC   O3122023   3.739   2.923   6.754 -0.0176 -0.3533 -0.4052
  191POPC   C3122024   3.677   2.848   6.838  0.2545 -0.2925  0.4198
  191POPC   O3222025   3.568   2.798   6.828  0.3745  0.3160  0.2169
  191POPC   C3222026   3.766   2.832   6.966  0.1846  0.0225  0.0178
  191POPC   H2X22027   3.822   2.927   6.965  0.1863  0.0387 -2.3927
  191POPC   H2Y22028   3.831   2.741   6.962  1.9607  1.3525 -2.6278
  191POPC   C2322029   3.816   3.390   6.930  0.3121  0.2719 -0.2264
  191POPC   H3R22030   3.912   3.446   6.924  0.3145  0.2114 -0.7974
  191POPC   H3S22031   3.837   3.300   6.992 -0.2259 -0.3393 -0.9244
  191POPC   C2422032   3.710   3.489   6.993  0.1376 -0.2008 -0.8693
  191POPC   H4R22033   3.626   3.423   7.023  1.1741 -1.1297  0.0282
  191POPC   H4S22034   3.679   3.565   6.918  0.2900  0.2961 -0.4387
  191POPC   C2522035   3.780   3.561   7.108 -0.1729  0.0170 -0.0589
  191POPC   H5R22036   3.857   3.632   7.072  0.7435  0.4939  2.7037
  191POPC   H5S22037   3.832   3.487   7.173 -0.6135 -0.7545 -0.5732
  191POPC   C2622038   3.670   3.635   7.187  0.2774  0.7234  0.9902
  191POPC   H6R22039   3.604   3.568   7.246  0.5504 -0.3318  0.1153
  191POPC   H6S22040   3.610   3.695   7.115 -0.1118 -0.2392  0.5190
  191POPC   C2722041   3.729   3.732   7.292  0.1864  0.9117  0.1636
  191POPC   H7R22042   3.788   3.803   7.231  2.5463 -0.7784  0.4027
  191POPC   H7S22043   3.797   3.679   7.362  0.5264 -1.3201 -1.7890
  191POPC   C2822044   3.622   3.811   7.375  0.3390  0.2693  0.2896
  191POPC   H8R22045   3.578   3.747   7.454  2.2734  0.1621  1.3049
  191POPC   H8S22046   3.542   3.841   7.304  1.6086  1.5000 -0.6505
  191POPC   C2922047   3.680   3.937   7.430 -0.8198  1.1917  0.6890
  191POPC   H9122048   3.715   4.007   7.353 -2.0405  1.9117  0.7676
  191POPC  C21022049   3.691   3.979   7.556  0.1723 -0.5175  0.2421
  191POPC  H10122050   3.747   4.073   7.571  2.0492 -1.9866  2.9564
  191POPC  C21122051   3.641   3.910   7.677  0.1349  0.3074 -0.4643
  191POPC  H11R22052   3.571   3.827   7.657  1.7748 -1.0416 -0.7484
  191POPC  H11S22053   3.593   3.986   7.743 -1.0619 -0.5045 -0.4057
  191POPC  C21222054   3.757   3.837   7.755 -0.4738 -0.9698  0.2855
  191POPC  H12R22055   3.828   3.915   7.792  0.0087 -0.5600 -1.4885
  191POPC  H12S22056   3.817   3.773   7.688  1.2525  2.4462 -1.5460
  191POPC  C21322057   3.706   3.764   7.882 -0.1528 -0.0825 -0.2626
  191POPC  H13R22058   3.786   3.690   7.903  1.4820  1.6208 -0.4229
  191POPC  H13S22059   3.610   3.713   7.858 -1.1453  1.6043  0.0934
  191POPC  C21422060   3.680   3.869   8.000 -0.3192 -0.0337 -0.4692
  191POPC  H14R22061   3.631   3.962   7.964  1.0357  1.1744  0.7427
  191POPC  H14S22062   3.782   3.900   8.033 -0.9040  0.5698  0.8139
  191POPC  C21522063   3.596   3.826   8.122 -0.4675  0.1280  0.0543
  191POPC  H15R22064   3.628   3.732   8.172 -1.2992  1.4820  3.2619
  191POPC  H15S22065   3.502   3.794   8.073 -1.6221  1.7895  1.1172
  191POPC  C21622066   3.579   3.917   8.239  0.3897 -0.0748 -0.1896
  191POPC  H16R22067   3.544   4.021   8.217 -1.1584 -0.6475 -0.4567
  191POPC  H16S22068   3.673   3.932   8.297 -0.2184  2.1573  0.2924
  191POPC  C21722069   3.484   3.840   8.340 -0.1225  0.3862 -0.7155
  191POPC  H17R22070   3.543   3.755   8.383 -0.7705 -1.3150 -3.1056
  191POPC  H17S22071   3.393   3.802   8.289 -0.4016 -1.8660  1.3652
  191POPC  C21822072   3.451   3.927   8.459  0.1461  0.2299 -0.4604
  191POPC  H18R22073   3.542   3.974   8.503  0.3146 -0.3977 -0.1327
  191POPC  H18S22074   3.402   3.870   8.541  0.2104  0.8411  0.0001
  191POPC  H18T22075   3.386   4.008   8.420 -0.4296 -0.8802 -1.8916
  191POPC   C3322076   3.665   2.830   7.085  0.9328  0.3497 -0.6360
  191POPC   H3X22077   3.597   2.742   7.075  2.3900 -0.8466 -0.0949
  191POPC   H3Y22078   3.590   2.912   7.075 -1.4403 -1.8299 -1.4758
  191POPC   C3422079   3.725   2.847   7.224 -0.7307 -0.7199  0.1515
  191POPC   H4X22080   3.828   2.804   7.229 -0.7658 -0.8271 -0.0322
  191POPC   H4Y22081   3.680   2.798   7.313 -1.4834  0.5684  0.4929
  191POPC   C3522082   3.744   2.996   7.261  0.2896  0.1649  0.2815
  191POPC   H5X22083   3.644   3.044   7.270  1.8484  3.4688  1.0513
  191POPC   H5Y22084   3.803   3.044   7.179 -0.9020  2.6514  0.8268
  191POPC   C3622085   3.814   3.017   7.395 -0.6268  0.0518  0.0268
  191POPC   H6X22086   3.902   3.086   7.389 -0.5889  0.0429  0.4213
  191POPC   H6Y22087   3.867   2.922   7.415  0.4142  0.4189 -0.9035
  191POPC   C3722088   3.718   3.037   7.518  0.3621 -0.0200  0.4128
  191POPC   H7X22089   3.768   3.016   7.615 -0.1895  0.8349  0.8885
  191POPC   H7Y22090   3.639   2.962   7.496  3.3232 -2.8197 -1.0109
  191POPC   C3822091   3.666   3.177   7.525  0.0450  0.3083 -0.7115
  191POPC   H8X22092   3.581   3.195   7.594  0.5358  0.5766 -0.1687
  191POPC   H8Y22093   3.616   3.211   7.432 -0.7130  0.4970 -0.2401
  191POPC   C3922094   3.777   3.283   7.557 -0.8343 -0.2733 -0.4308
  191POPC   H9X22095   3.846   3.284   7.470 -0.0897 -0.2016  0.1662
  191POPC   H9Y22096   3.821   3.266   7.657 -1.1710  1.0176 -0.0516
  191POPC  C31022097   3.713   3.432   7.555  0.2105 -0.4586 -0.4448
  191POPC  H10X22098   3.667   3.447   7.455 -3.3550  0.4285  1.2730
  191POPC  H10Y22099   3.793   3.508   7.575  0.6867 -0.0866 -3.4838
  191POPC  C31122100   3.605   3.454   7.660 -0.3258  0.1986  0.1319
  191POPC  H11X22101   3.507   3.421   7.618  0.1598  1.0242 -1.6639
  191POPC  H11Y22102   3.592   3.563   7.680  1.4658  0.1598  1.6132
  191POPC  C31222103   3.629   3.384   7.794  0.2341 -0.7007  0.1027
  191POPC  H12X22104   3.727   3.424   7.828 -0.4180  1.5503 -0.5820
  191POPC  H12Y22105   3.639   3.274   7.779  3.1622 -0.5544  0.6330
  191POPC  C31322106   3.525   3.423   7.896  0.4036 -0.0769 -0.2829
  191POPC  H13X22107   3.439   3.353   7.901  0.5246 -0.0846  2.3217
  191POPC  H13Y22108   3.476   3.517   7.861 -3.2415 -1.6705  0.3019
  191POPC  C31422109   3.583   3.438   8.034  0.2003  0.4058 -0.2226
  191POPC  H14X22110   3.628   3.539   8.049  0.4144  0.0717  1.5324
  191POPC  H14Y22111   3.671   3.371   8.033 -0.8327 -0.9800  0.2787
  191POPC  C31522112   3.489   3.397   8.145 -0.0628 -0.0458  0.2228
  191POPC  H15X22113   3.464   3.290   8.130 -1.5402  0.6458 -2.5322
  191POPC  H15Y22114   3.400   3.460   8.122  0.0468 -0.4170 -1.2526
  191POPC  C31622115   3.540   3.419   8.281  0.5695 -0.2209  0.8084
  191POPC  H16X22116   3.564   3.523   8.310 -3.9365  0.9692  0.6081
  191POPC  H16Y22117   3.631   3.358   8.299 -1.3821 -3.1836  1.1167
  191POPC  H16Z22118   3.472   3.382   8.361 -0.6489  0.1161 -0.0529
  192POPC     N22119   2.052   5.219   6.288 -0.1694  0.1425  0.3460
  192POPC   C1222120   2.166   5.311   6.319  0.1939 -0.6371  0.2370
  192POPC  H12A22121   2.247   5.251   6.358 -0.4538 -0.6279  1.6108
  192POPC  H12B22122   2.133   5.381   6.394 -1.0718 -0.7644 -0.1993
  192POPC   C1322123   1.989   5.167   6.413  0.0055  0.3956  0.5140
  192POPC  H13A22124   2.065   5.143   6.486 -0.0874  0.1518  0.5304
  192POPC  H13B22125   1.932   5.240   6.468  0.1154  1.2936 -0.5649
  192POPC  H13C22126   1.933   5.076   6.396  0.2546  0.5476 -1.2337
  192POPC   C1422127   1.947   5.277   6.194 -0.6858 -0.3955 -0.1056
  192POPC  H14A22128   1.885   5.196   6.159 -0.9616 -0.3852  0.3533
  192POPC  H14B22129   1.882   5.344   6.248  0.9703  0.5591  0.7283
  192POPC  H14C22130   1.991   5.331   6.111 -0.5898  1.2002  0.9580
  192POPC   C1522131   2.124   5.098   6.242  0.3782  0.7779  0.3452
  192POPC  H15A22132   2.180   5.106   6.150  1.0533 -1.7834  0.4992
  192POPC  H15B22133   2.052   5.022   6.215  2.0999 -0.9037  0.3983
  192POPC  H15C22134   2.188   5.051   6.315 -0.3034  0.2062  0.5777
  192POPC   C1122135   2.240   5.378   6.200 -0.3661  0.2618  0.3166
  192POPC  H11A22136   2.313   5.315   6.146  1.3483  0.4393  2.3888
  192POPC  H11B22137   2.303   5.457   6.247 -1.2647  1.4589 -0.4503
  192POPC     P22138   2.109   5.593   6.132  0.0900  0.1983 -0.5164
  192POPC   O1322139   1.988   5.611   6.048  0.7912  0.0212 -1.1394
  192POPC   O1422140   2.222   5.684   6.105 -0.7296 -0.1726  0.1056
  192POPC   O1222141   2.151   5.439   6.112  0.2174  0.1830 -0.0614
  192POPC   O1122142   2.068   5.597   6.281 -0.4345  0.0952  0.0721
  192POPC    C122143   2.068   5.707   6.376 -0.4616  0.2124 -0.1771
  192POPC    HA22144   1.967   5.753   6.381  0.7116  2.7309  0.8201
  192POPC    HB22145   2.131   5.790   6.339  0.1906 -1.2519 -2.4482
  192POPC    C222146   2.098   5.647   6.518 -0.3865  0.7286  0.1653
  192POPC    HS22147   2.103   5.732   6.590 -0.9828  1.7936 -1.0276
  192POPC   O2122148   2.216   5.563   6.514 -0.0186  0.1441  0.4075
  192POPC   C2122149   2.332   5.627   6.524  0.5286 -0.0799  0.0461
  192POPC   O2222150   2.337   5.746   6.539  0.2099 -0.2768 -0.1779
  192POPC   C2222151   2.443   5.532   6.528  0.3544 -1.2423 -0.0251
  192POPC   H2R22152   2.486   5.534   6.425  0.8087 -0.3908  0.1751
  192POPC   H2S22153   2.406   5.435   6.567 -1.1453 -0.2571  1.0101
  192POPC    C322154   1.979   5.554   6.556 -0.9848  0.3865  0.1158
  192POPC    HX22155   1.974   5.467   6.487 -0.7155 -0.9805  1.7824
  192POPC    HY22156   1.885   5.612   6.543 -2.1378 -1.2035  1.0786
  192POPC   O3122157   1.988   5.501   6.688 -0.4070 -0.5663  0.9957
  192POPC   C3122158   1.954   5.587   6.783  0.2778  0.9521 -0.4934
  192POPC   O3222159   1.893   5.691   6.772 -0.1661 -0.7158 -0.0875
  192POPC   C3222160   2.025   5.535   6.911 -0.2722  0.3484  0.8647
  192POPC   H2X22161   1.940   5.520   6.980 -1.6320 -3.4101 -1.4746
  192POPC   H2Y22162   2.069   5.629   6.951  2.1417 -0.4248  0.0961
  192POPC   C2322163   2.551   5.590   6.622  0.1688 -0.0028 -0.4104
  192POPC   H3R22164   2.582   5.690   6.587  0.3949 -0.1412 -0.6101
  192POPC   H3S22165   2.635   5.517   6.618  0.1025 -0.1106  0.1943
  192POPC   C2422166   2.491   5.601   6.766 -0.5543  0.4210  0.5798
  192POPC   H4R22167   2.449   5.500   6.789 -0.2094  0.1386 -0.0328
  192POPC   H4S22168   2.411   5.678   6.766 -0.3234  0.7041  2.9863
  192POPC   C2522169   2.593   5.644   6.871  0.5630  0.5558 -0.5209
  192POPC   H5R22170   2.668   5.563   6.881 -1.1499 -0.7881  1.8681
  192POPC   H5S22171   2.547   5.655   6.972 -1.4668 -0.5979 -1.2779
  192POPC   C2622172   2.675   5.769   6.844 -0.1018  0.4626 -0.9217
  192POPC   H6R22173   2.612   5.846   6.792  0.0628  0.7060 -0.7631
  192POPC   H6S22174   2.761   5.740   6.780 -0.3110  1.6255 -1.7599
  192POPC   C2722175   2.724   5.835   6.979 -0.1885  0.0914  0.4759
  192POPC   H7R22176   2.759   5.756   7.048  0.9790 -0.1215 -0.3466
  192POPC   H7S22177   2.641   5.894   7.024  0.3316  0.9841  0.2791
  192POPC   C2822178   2.839   5.931   6.951 -0.7449 -0.7185 -0.3503
  192POPC   H8R22179   2.806   6.030   6.988 -1.3042 -0.5606 -1.2548
  192POPC   H8S22180   2.845   5.937   6.840  0.0728  2.4286 -0.1670
  192POPC   C2922181   2.973   5.885   6.991 -0.4491 -0.9150 -0.8448
  192POPC   H9122182   3.036   5.837   6.914  0.9806 -0.3315 -0.0624
  192POPC  C21022183   3.025   5.885   7.116 -0.0481 -0.5525  0.2990
  192POPC  H10122184   3.129   5.849   7.128 -0.5527 -1.3027  2.6912
  192POPC  C21122185   2.967   5.936   7.247  0.3354 -0.3041 -0.2664
  192POPC  H11R22186   2.998   5.864   7.326  1.0078 -1.5195 -1.6200
  192POPC  H11S22187   2.858   5.945   7.264  0.3740  2.1663 -1.0613
  192POPC  C21222188   3.033   6.077   7.290  0.3153  0.3309 -0.3282
  192POPC  H12R22189   2.990   6.161   7.232 -1.4331 -0.7338 -0.6135
  192POPC  H12S22190   3.144   6.076   7.288  0.3320 -1.3378  0.6047
  192POPC  C21322191   3.013   6.115   7.441  0.3150 -0.2130 -0.4373
  192POPC  H13R22192   2.905   6.142   7.449  0.5978  0.9345 -0.4160
  192POPC  H13S22193   3.075   6.205   7.456 -2.4556  1.6791  0.0246
  192POPC  C21422194   3.047   6.016   7.553  0.0862  0.5836 -0.4946
  192POPC  H14R22195   3.151   5.977   7.546 -0.6653 -1.8330  1.0309
  192POPC  H14S22196   2.978   5.929   7.547 -0.6134  1.1564 -0.8670
  192POPC  C21522197   3.028   6.086   7.689  0.3800  0.2593 -0.2589
  192POPC  H15R22198   3.061   6.191   7.675  1.9344 -0.0766  0.6530
  192POPC  H15S22199   3.090   6.054   7.776 -0.6129 -0.3823  0.2165
  192POPC  C21622200   2.880   6.088   7.735  0.2375  0.3393  0.0333
  192POPC  H16R22201   2.816   6.131   7.655 -1.9207 -0.5342  1.2260
  192POPC  H16S22202   2.865   6.158   7.821  1.3298 -1.2954  1.5832
  192POPC  C21722203   2.813   5.946   7.775  0.6903 -0.5575  0.3039
  192POPC  H17R22204   2.811   5.897   7.675  1.6225  0.2466 -0.1182
  192POPC  H17S22205   2.713   5.971   7.816  1.2767  2.1634  0.2005
  192POPC  C21822206   2.896   5.867   7.873 -0.0712  0.3082 -0.3491
  192POPC  H18R22207   2.905   5.929   7.965  1.7230  0.6527 -0.7402
  192POPC  H18S22208   2.999   5.851   7.836  0.0846 -1.4808  0.7730
  192POPC  H18T22209   2.859   5.766   7.901 -2.7693  1.0259 -1.1933
  192POPC   C3322210   2.121   5.421   6.895 -0.3459  0.8896 -0.1718
  192POPC   H3X22211   2.183   5.430   6.802 -0.4329 -0.1421 -0.3425
  192POPC   H3Y22212   2.063   5.327   6.881 -0.3327  0.9233 -0.4555
  192POPC   C3422213   2.226   5.407   7.007  0.6071 -0.0247  0.5453
  192POPC   H4X22214   2.284   5.501   7.013 -2.1312  1.9219 -2.1015
  192POPC   H4Y22215   2.300   5.328   6.985  1.2023  0.4595  0.8098
  192POPC   C3522216   2.157   5.368   7.137  0.3057 -0.4036 -0.9900
  192POPC   H5X22217   2.129   5.261   7.145  0.5414 -0.2695  2.1139
  192POPC   H5Y22218   2.058   5.418   7.133  1.3448  1.6988 -1.3588
  192POPC   C3622219   2.216   5.409   7.267 -0.3432  0.4518  0.1940
  192POPC   H6X22220   2.236   5.518   7.253 -0.1458  0.5026  0.8613
  192POPC   H6Y22221   2.306   5.346   7.281 -1.2955 -1.3779 -1.7237
  192POPC   C3722222   2.122   5.380   7.385  0.5181  0.5074 -0.0123
  192POPC   H7X22223   2.152   5.292   7.447 -1.0862 -0.9213 -1.2079
  192POPC   H7Y22224   2.017   5.356   7.357  0.0564  1.0954  1.1902
  192POPC   C3822225   2.104   5.499   7.487  0.3467  0.2310  0.4769
  192POPC   H8X22226   2.021   5.467   7.555 -1.3254  0.3007 -1.4909
  192POPC   H8Y22227   2.062   5.589   7.437  0.2553 -1.0075 -1.7025
  192POPC   C3922228   2.220   5.534   7.574 -0.0821  0.1121 -0.2964
  192POPC   H9X22229   2.295   5.567   7.499 -1.5373  1.1488 -1.3280
  192POPC   H9Y22230   2.256   5.440   7.620 -2.3371 -2.1461 -2.9843
  192POPC  C31022231   2.181   5.646   7.671 -0.4907  0.6026  0.4948
  192POPC  H10X22232   2.091   5.617   7.728 -0.9530 -0.0655 -0.5742
  192POPC  H10Y22233   2.158   5.739   7.614  1.2742  0.2286 -0.8889
  192POPC  C31122234   2.291   5.675   7.783  0.0000 -0.2326 -0.3759
  192POPC  H11X22235   2.390   5.683   7.733 -0.1312 -0.1043 -0.6125
  192POPC  H11Y22236   2.294   5.585   7.848 -0.8179 -0.7143 -0.9903
  192POPC  C31222237   2.267   5.805   7.869 -0.1452 -0.1068  0.4958
  192POPC  H12X22238   2.169   5.790   7.919 -0.2211  0.6053  0.5585
  192POPC  H12Y22239   2.269   5.896   7.807 -1.4134 -1.1101 -1.0555
  192POPC  C31322240   2.380   5.829   7.976 -0.1643  0.3792 -0.5863
  192POPC  H13X22241   2.369   5.938   7.994  3.0912  0.5221  0.9098
  192POPC  H13Y22242   2.479   5.798   7.936 -0.4531 -0.2274 -0.8441
  192POPC  C31422243   2.349   5.761   8.112 -0.1253  0.0246 -0.3349
  192POPC  H14X22244   2.342   5.650   8.114  0.6837 -0.0138  1.0592
  192POPC  H14Y22245   2.250   5.792   8.151  0.6341 -1.1742  2.6678
  192POPC  C31522246   2.446   5.819   8.223 -0.4596 -0.1051  0.1374
  192POPC  H15X22247   2.455   5.930   8.212  0.6920 -0.2211 -0.1267
  192POPC  H15Y22248   2.545   5.770   8.223 -0.7099 -0.6228 -1.1897
  192POPC  C31622249   2.387   5.797   8.368 -0.9045  0.2877 -0.5439
  192POPC  H16X22250   2.281   5.830   8.379 -0.5849  1.1897 -0.1127
  192POPC  H16Y22251   2.442   5.852   8.448 -1.5858  0.1710  0.0175
  192POPC  H16Z22252   2.425   5.701   8.408 -1.7634 -0.3358 -1.2269
  193SOD    SOD22253   0.032   3.277   6.065  0.3015 -0.1562 -0.3027
  194SOD    SOD22254   1.557   5.382  10.935  0.0938 -0.1665  0.0756
  195SOD    SOD22255   0.972   4.110  11.526  0.2325  0.0178 -0.1410
  196SOD    SOD22256   4.250   5.746   5.234 -0.2405  0.3502 -0.4367
  197SOD    SOD22257   0.823   4.491   3.026  0.0185 -0.0207  0.1494
  198SOD    SOD22258   6.539   0.437  14.453 -0.0207 -0.3095  0.6813
  199SOD    SOD22259   1.106   3.408   5.335 -0.5250 -0.1226  0.1026
  200SOD    SOD22260   4.297   1.826  11.491  0.3852  0.0636 -0.1003
  201SOD    SOD22261   1.783   4.695  11.658 -0.2625  0.0158 -0.2667
  202SOD    SOD22262   2.526   3.790  16.571  0.0237  0.0852  0.7667
  203SOD    SOD22263   2.757   2.091   0.396 -0.0274  0.3518  0.0274
  204SOD    SOD22264   1.855   0.338   2.753  0.3798 -0.1492 -0.1859
  205SOD    SOD22265   2.025   4.836   1.794  0.6928  0.2017 -0.1082
  206SOD    SOD22266   0.659   5.344   3.869  0.2941  0.2775 -0.1228
  207SOD    SOD22267   1.992   5.190   5.374 -0.1111 -0.3726 -0.3475
  208SOD    SOD22268   1.409   2.135  11.280  0.0937  0.1028  0.1105
  209SOD    SOD22269   3.171   1.214   0.666  0.1163 -0.1381 -0.0241
  210SOD    SOD22270   6.649   2.284   5.557 -0.5903  0.5357 -0.0178
  211SOD    SOD22271   1.033   0.568   5.983  0.3125 -0.1288  0.2863
  212SOD    SOD22272   1.909   1.678   6.594  0.0333  0.1282 -0.0595
  213SOD    SOD22273   2.988   1.915  10.764 -0.3230 -0.6632  0.8338
  214SOD    SOD22274   4.932   6.051  13.733  0.2259  0.4638 -0.0538
  215SOD    SOD22275   2.786   3.553   1.536 -0.1601 -0.1233 -0.2908
  216SOD    SOD22276   0.434   0.527   1.868 -0.0645 -0.3058 -0.2170
  217SOD    SOD22277   0.703   1.610   5.665  0.4446 -0.5859  0.1707
  218SOD    SOD22278   5.156   2.000  10.734  0.1949  0.4292  0.0068
  219SOD    SOD22279   2.386   1.345   1.487 -0.3302 -0.0379 -0.0373
  220SOD    SOD22280   3.624   2.184   2.639  0.0801 -0.0272 -0.4706
  221SOD    SOD22281   3.814   2.566   4.858  0.3899  0.3057  0.3458
  222SOD    SOD22282   1.398   6.526  11.091 -0.4916  0.7950  0.4405
  223SOD    SOD22283   2.054   2.309  15.825 -0.3079  0.1091  0.0029
  224SOD    SOD22284   3.306   4.984   2.455 -0.3000 -0.0750 -0.1284
  225SOD    SOD22285   2.824   0.023  15.096 -0.2790  0.3054  0.1404
  226SOD    SOD22286   4.520   6.086   4.581 -0.2396  0.0207 -0.0729
  227SOD    SOD22287   3.413   5.981   4.183  0.1461 -0.1028  0.2407
  228SOD    SOD22288   6.073   3.722  12.528 -0.5442  0.5450 -0.4856
  229SOD    SOD22289   3.636   6.600  11.746 -0.2074  0.7164  0.6579
  230SOD    SOD22290   1.634   0.771  15.816 -0.3206  0.5168  0.2314
  231SOD    SOD22291   0.720   4.766  15.560  0.4761 -0.2669  0.4034
  232SOD    SOD22292   5.836   4.797   1.366 -0.5036 -0.5728 -0.0398
  233SOD    SOD22293   5.515   0.861  14.054  0.6365 -0.0267 -0.3488
  234SOD    SOD22294   4.765   3.855  10.599  0.0509 -0.4885  0.2657
  235SOD    SOD22295   1.409   3.391  11.324 -0.8795  0.7862  0.0583
  236SOD    SOD22296   6.760   5.507  10.752 -0.0634 -0.0686  0.2586
  237SOD    SOD22297   3.506   3.925   3.460 -0.1311  0.4908 -0.3378
  238SOD    SOD22298   1.425   1.155  11.539  0.2296 -0.0697 -0.0069
  239SOD    SOD22299   4.546   6.375   1.487 -0.0917  0.1888 -0.0092
  240SOD    SOD22300   5.753   6.728   1.781  0.0601 -0.2907 -0.2367
  241SOD    SOD22301   4.622   6.463  13.530 -0.1248  0.1657 -0.2106
  242SOD    SOD22302   5.099   3.381  16.656 -0.1178  0.4340 -0.1698
  243SOD    SOD22303   1.980   4.050  14.881 -0.0725  0.4113  0.4436
  244SOD    SOD22304   2.772   2.454   3.959 -0.3752  0.0040 -0.1373
  245SOD    SOD22305   3.306   2.974  13.610 -0.2680  0.1267 -0.2114
  246SOD    SOD22306   4.388   6.397   4.780 -0.0175  0.3354 -0.1853
  247SOD    SOD22307   3.768   4.177   0.811  0.1444  0.3927  0.3350
  248SOD    SOD22308   4.850   1.522  17.037 -0.0468 -0.4064  0.2084
  249SOD    SOD22309   0.097   5.212  13.951 -0.5052  0.0471 -0.4428
  250SOD    SOD22310   1.350   5.526   0.181  0.0597 -0.0372 -0.1971
  251SOD    SOD22311   1.397   0.843  12.813 -0.5377  0.1794 -0.0504
  252SOD    SOD22312   6.072   1.886  11.687  0.2421  0.3706  0.1153
  253SOD    SOD22313   1.934   2.864  11.377  0.0625  0.2894 -0.1209
  254SOD    SOD22314   3.506   3.805   2.359  0.4671  0.2484 -0.5305
  255SOD    SOD22315   3.886   4.706  10.826  0.1545 -0.0005  0.3344
  256SOD    SOD22316   1.271   6.743   2.402 -0.1851  0.0324  0.4369
  257SOD    SOD22317   4.263   6.740   0.526 -0.2833 -0.3286  0.1729
  258SOD    SOD22318   1.579   3.840   6.396  0.4254 -0.1064  0.0070
  259SOD    SOD22319   3.722   1.860  12.894  0.0971  0.4239  0.4755
  260SOD    SOD22320   6.508   2.357   3.418 -0.3619 -0.0474  0.3810
  261SOD    SOD22321   2.678   1.281  13.864 -0.0513  0.4218  0.1167
  262SOD    SOD22322   3.502   5.917  14.238 -0.3942 -0.0162 -0.0427
  263SOD    SOD22323   1.669   6.614   1.325  0.1573 -0.3915 -0.3351
  264SOD    SOD22324   4.559   6.437   2.589 -0.3067  0.2661  0.5671
  265SOD    SOD22325   6.079   3.660  10.818 -0.3829 -0.1600 -0.3408
  266SOD    SOD22326   2.771   4.157  13.878 -0.4350 -0.1341  0.2165
  267SOD    SOD22327   0.725   1.131  14.716 -0.0291 -0.3101  0.3902
  268SOD    SOD22328   6.386   2.668  16.619 -0.3565  1.0934  0.2026
  269SOD    SOD22329   1.493   5.315   0.766 -0.0019 -0.0834  0.4432
  270CLA    CLA22330   5.505   5.996   5.141  0.0502  0.1613  0.0354
  271CLA    CLA22331   2.300   3.754  14.411 -0.6364  0.2275  0.4313
  272CLA    CLA22332   2.336   4.624  16.602 -0.1856 -0.1422 -0.2155
  273CLA    CLA22333   0.449   2.068  12.500  0.2016  0.0961  0.0795
  274CLA    CLA22334   5.460   0.624   2.727 -0.2307 -0.0866 -0.1142
  275CLA    CLA22335   1.573   5.363   4.455  0.4064 -0.4947 -0.0400
  276CLA    CLA22336   2.269   2.171   2.819  0.0348  0.3896  0.0035
  277CLA    CLA22337   6.204   5.348  15.373  0.4404  0.2648  0.3811
  278CLA    CLA22338   3.752   5.428  14.932 -0.0176 -0.0085  0.3423
  279CLA    CLA22339   3.988   1.574  13.299  0.2603  0.3171  0.6178
  280CLA    CLA22340   3.768   5.517   1.459  0.0037  0.3796  0.2358
  281CLA    CLA22341   0.679   5.107  15.784 -0.1328 -0.0963 -0.2728
  282CLA    CLA22342   5.701   1.910   3.759 -0.2148 -0.1668  0.0638
  283CLA    CLA22343   4.776   0.765  14.891  0.0182 -0.0546  0.6405
  284CLA    CLA22344   3.606   3.760  14.222 -0.2055 -0.0106  0.2088
  285CLA    CLA22345   1.909   0.378   1.424  0.5132 -0.1192  0.2037
  286CLA    CLA22346   2.658   4.042   0.006 -0.4337  0.3420 -0.0666
  287CLA    CLA22347   5.787   4.226  12.585  0.2212  0.1856 -0.1144
  288CLA    CLA22348   3.696   3.732   2.735  0.2549  0.4769 -0.1231
  289CLA    CLA22349   1.408   6.464  13.734 -0.1571 -0.3169  0.2142
  290CLA    CLA22350   0.603   0.515  15.324 -0.2653  0.1447 -0.1082
  291CLA    CLA22351   0.228   4.938   3.750 -0.0183  0.0196  0.0912
  292CLA    CLA22352   1.001   3.343  11.642 -0.2490  0.0862 -0.0182
  293CLA    CLA22353   0.152   5.345   2.009 -0.1909 -0.0597 -0.1876
  294CLA    CLA22354   3.306   5.241  15.045 -0.0006 -0.4471  0.1866
  295CLA    CLA22355   4.752   6.289  11.155  0.0655 -0.1055 -0.1481
  296CLA    CLA22356   3.556   0.206  13.760 -0.3006  0.4366 -0.3476
  297CLA    CLA22357   3.070   0.899   2.116  0.4430  0.0315  0.0802
  298CLA    CLA22358   2.573   6.005  13.703  0.2045  0.2053  0.1715
  299CLA    CLA22359   5.558   5.717  13.697 -0.0384  0.3901 -0.0595
  300CLA    CLA22360   5.845   3.673  13.559  0.4893  0.1034  0.2909
  301CLA    CLA22361   2.935   0.674  15.619 -0.0133 -0.0885 -0.1843
  302CLA    CLA22362   6.469   0.343   3.463  0.2183  0.0355  0.2312
  303CLA    CLA22363   1.036   0.962  13.155 -0.2062  0.6229 -0.0594
  304CLA    CLA22364   0.797   0.049   1.871 -0.3262  0.0435  0.3429
  305CLA    CLA22365   3.792   0.827  15.347 -0.2820  0.1476 -0.2876
  306CLA    CLA22366   1.156   2.960   5.266  0.4995  0.0287 -0.0569
  307CLA    CLA22367   6.303   1.897  16.488  0.1812 -0.5547  0.4321
  308CLA    CLA22368   0.700   4.926  15.096 -0.6193  0.2135  0.1707
  309CLA    CLA22369   5.459   1.068  14.243  0.1817  0.0344 -0.0204
  310CLA    CLA22370   3.769   3.429   0.395  0.5132 -0.1796  0.2096
  311CLA    CLA22371   5.895   6.538  12.313 -0.1203  0.3648 -0.2385
  312CLA    CLA22372   5.229   0.344   1.524 -0.0255 -0.4312 -0.2418
  313CLA    CLA22373   4.911   4.955   0.937  0.0662 -0.3017 -0.0642
  314CLA    CLA22374   4.802   4.613   2.596  0.3119 -0.0544  0.3273
  315CLA    CLA22375   3.224   5.679  17.044 -0.1939  0.2142  0.0233
  316CLA    CLA22376   3.272   2.685   0.281  0.1849 -0.0179  0.1276
  317CLA    CLA22377   0.553   4.337  11.937  0.1342  0.2774 -0.3271
  318CLA    CLA22378   1.826   0.365  13.486  0.0630 -0.5891  0.2058
  319CLA    CLA22379   2.853   2.525   0.905 -0.1817 -0.6219  0.1109
  320CLA    CLA22380   6.509   4.748  13.779 -0.5394 -0.1014 -0.0850
  321CLA    CLA22381   6.232   2.653  15.246  0.0181  0.1347  0.0978
  322CLA    CLA22382   1.785   0.765   2.622 -0.2139  0.0994 -0.0506
  323TIP3   OH222383   4.033   1.483  13.636 -0.2307  0.1069  0.2948
  323TIP3    H122384   4.091   1.553  13.665 -1.0935  1.0783 -0.2921
  323TIP3    H222385   4.068   1.456  13.551 -0.3740  0.3943  0.1424
  324TIP3   OH222386   3.972   4.751  13.883  0.2951  0.2911 -0.1822
  324TIP3    H122387   3.941   4.806  13.955  0.5078  1.5706 -1.0516
  324TIP3    H222388   3.900   4.752  13.819 -0.0137 -1.0828  0.1452
  325TIP3   OH222389   5.839   2.074   2.375 -0.1997  0.3173  0.3095
  325TIP3    H122390   5.833   1.999   2.433 -2.6592  0.5719  0.4411
  325TIP3    H222391   5.763   2.066   2.317  0.4976  1.7344 -0.8498
  326TIP3   OH222392   3.972   2.937  17.157  0.3943 -0.1773  1.0583
  326TIP3    H122393   4.025   2.932  17.236  1.4831  1.6912  0.4695
  326TIP3    H222394   4.029   2.978  17.092 -0.8234 -0.7540 -0.4174
  327TIP3   OH222395   1.116   4.051  16.487 -0.4687 -0.0646  0.4165
  327TIP3    H122396   1.174   4.114  16.530  1.3526 -1.3052 -0.1686
  327TIP3    H222397   1.168   3.971  16.482 -0.6036  0.0312 -4.0818
  328TIP3   OH222398   4.255   2.260   2.427 -0.3521  0.5359  0.4894
  328TIP3    H122399   4.328   2.256   2.489  0.3720  0.2643 -0.3867
  328TIP3    H222400   4.255   2.351   2.398 -1.0138  0.7915  1.2649
  329TIP3   OH222401   2.902   6.774   0.471 -0.1929  0.3596 -0.0959
  329TIP3    H122402   2.978   6.794   0.525 -0.6604  0.9500  0.3627
  329TIP3    H222403   2.844   6.850   0.484 -1.7100 -0.9692  1.1075
  330TIP3   OH222404   5.200   0.481  17.212  0.3376  0.2061 -0.3825
  330TIP3    H122405   5.247   0.548  17.162  1.2719 -0.6860 -0.6925
  330TIP3    H222406   5.148   0.434  17.147  1.8692 -1.2247 -0.5966
  331TIP3   OH222407   2.674   2.240  15.972  0.2236 -0.2212  0.0526
  331TIP3    H122408   2.725   2.225  16.052  0.8863  1.3255 -0.0733
  331TIP3    H222409   2.729   2.297  15.919 -0.8526 -0.0448 -0.8859
  332TIP3   OH222410   2.724   0.902   1.532  0.2737 -0.1083  0.0687
  332TIP3    H122411   2.764   0.979   1.572  0.5081  0.2021 -0.7496
  332TIP3    H222412   2.646   0.886   1.584  0.4921  0.3812  0.5561
  333TIP3   OH222413   1.434   0.595  13.241 -0.1467  0.4589 -0.0162
  333TIP3    H122414   1.448   0.592  13.336  2.2859 -0.4980 -0.3679
  333TIP3    H222415   1.407   0.506  13.218  0.0112  0.4866 -0.3115
  334TIP3   OH222416   5.483   6.020   1.399 -0.3142 -0.2306  0.4097
  334TIP3    H122417   5.421   5.960   1.358 -0.8907  0.9161 -0.4269
  334TIP3    H222418   5.568   5.977   1.389 -0.3101  0.3870 -2.7882
  335TIP3   OH222419   6.122   2.343   2.042 -0.5150 -0.3059 -0.2980
  335TIP3    H122420   6.213   2.330   2.067 -0.5666 -2.3447 -1.0630
  335TIP3    H222421   6.071   2.297   2.109 -1.1987  3.9264  2.2104
  336TIP3   OH222422   3.926   4.982   1.662  0.3281 -0.3828  0.4573
  336TIP3    H122423   3.847   5.023   1.698 -0.1974 -1.4632  0.5648
  336TIP3    H222424   3.906   4.969   1.569  1.1584  1.1662  0.0585
  337TIP3   OH222425   3.337   0.227  11.441 -0.5506 -0.4017  0.5358
  337TIP3    H122426   3.304   0.301  11.390 -0.6137 -0.8586 -0.0924
  337TIP3    H222427   3.282   0.225  11.519 -0.7666  0.0066  0.3965
  338TIP3   OH222428   1.579   1.620  15.876  0.3563  0.4045 -0.4853
  338TIP3    H122429   1.603   1.711  15.897  0.4077  0.0340  1.0569
  338TIP3    H222430   1.605   1.610  15.784  1.5975  1.5423 -0.2866
  339TIP3   OH222431   0.710   1.442  13.488  0.1139 -0.1834  0.3071
  339TIP3    H122432   0.659   1.483  13.557 -0.0829 -0.4373  0.3140
  339TIP3    H222433   0.751   1.515  13.441  0.0942 -0.0032  0.5719
  340TIP3   OH222434   2.345   4.120   3.903 -0.0089  0.1710 -0.4720
  340TIP3    H122435   2.258   4.094   3.931  0.6445  0.1386  1.6178
  340TIP3    H222436   2.401   4.045   3.922  0.6842  0.6137 -0.7048
  341TIP3   OH222437   3.195   6.062  15.149 -0.3346  0.2024  0.0991
  341TIP3    H122438   3.262   6.022  15.205 -0.9400 -0.5927  0.2792
  341TIP3    H222439   3.175   5.994  15.084  0.0031  0.9354 -0.7813
  342TIP3   OH222440   6.046   2.772   0.128  0.2600 -0.5114 -0.7858
  342TIP3    H122441   6.032   2.696   0.185  0.4774 -0.7488 -1.0467
  342TIP3    H222442   6.104   2.830   0.179 -0.5765 -0.1423 -0.2550
  343TIP3   OH222443   4.857   2.244  10.608 -0.5770 -0.2330  0.2381
  343TIP3    H122444   4.896   2.310  10.550  0.6679  0.7009  2.1058
  343TIP3    H222445   4.768   2.233  10.574  0.0487  0.4337 -1.7214
  344TIP3   OH222446   0.273   4.497   1.343 -0.0683 -0.2463 -0.4914
  344TIP3    H122447   0.325   4.479   1.421  0.2067  0.7017 -0.4479
  344TIP3    H222448   0.184   4.472   1.366 -0.2462  1.3770  0.6147
  345TIP3   OH222449   5.652   6.718  15.706  0.3135  0.0376  0.0308
  345TIP3    H122450   5.580   6.728  15.769 -0.1134  1.9405 -0.7035
  345TIP3    H222451   5.609   6.723  15.620  1.0938 -0.8569 -0.4230
  346TIP3   OH222452   1.799   3.138  15.438  0.6468  0.2341 -0.1464
  346TIP3    H122453   1.839   3.135  15.351  1.5545 -1.4154  0.3078
  346TIP3    H222454   1.863   3.097  15.496  0.0396  1.2889  1.3104
  347TIP3   OH222455   0.685   5.618   4.768 -0.5611 -0.2229  0.5480
  347TIP3    H122456   0.653   5.555   4.833  1.1967 -1.3991  0.2887
  347TIP3    H222457   0.774   5.590   4.748 -0.3042  1.4187 -0.7629
  348TIP3   OH222458   1.476   4.601   4.479 -0.5280 -0.2985  0.1883
  348TIP3    H122459   1.560   4.598   4.524 -1.3111  0.1820  1.7237
  348TIP3    H222460   1.468   4.515   4.437  0.1191 -0.8384  1.1544
  349TIP3   OH222461   4.696   4.122   0.032 -0.1770  0.1911  0.1713
  349TIP3    H122462   4.612   4.085   0.059  0.6421 -0.0842  2.3898
  349TIP3    H222463   4.692   4.214   0.059  0.2844  0.1544  0.3621
  350TIP3   OH222464   0.912   3.674   2.091 -0.4826 -0.2070 -0.6418
  350TIP3    H122465   0.900   3.693   2.184  3.8153  1.7458 -0.3268
  350TIP3    H222466   0.885   3.583   2.081 -0.7383 -0.5405  2.5996
  351TIP3   OH222467   2.025   4.430  16.962  0.2198 -0.8748  0.0634
  351TIP3    H122468   2.097   4.423  16.899  0.8609 -2.0864  0.9213
  351TIP3    H222469   2.012   4.525  16.973 -0.3227 -0.6385 -2.3393
  352TIP3   OH222470   0.818   6.292  11.447  0.2533 -0.4567  0.0632
  352TIP3    H122471   0.876   6.256  11.514  2.8102 -0.2459 -1.9529
  352TIP3    H222472   0.833   6.238  11.370 -2.6693 -0.7244 -0.4048
  353TIP3   OH222473   0.954   0.582   4.273  0.4476  0.0199  0.4537
  353TIP3    H122474   1.004   0.621   4.201 -0.9747  1.5782  0.2979
  353TIP3    H222475   0.975   0.636   4.349 -0.1654  0.0200  0.6234
  354TIP3   OH222476   4.216   2.087  14.656  0.4016 -0.1619 -0.0327
  354TIP3    H122477   4.142   2.121  14.606  1.2958  0.7438 -0.7634
  354TIP3    H222478   4.178   2.021  14.714 -0.9234  0.0762 -0.6193
  355TIP3   OH222479   2.523   3.485   4.434  0.3221 -0.9089  0.5450
  355TIP3    H122480   2.491   3.433   4.360  2.5603 -1.1180 -0.3168
  355TIP3    H222481   2.573   3.556   4.393 -1.4061  1.0845  1.7598
  356TIP3   OH222482   1.876   6.360  11.531  0.0311 -0.1000  0.4750
  356TIP3    H122483   1.860   6.306  11.453  1.9490 -0.2955  0.1884
  356TIP3    H222484   1.816   6.325  11.597 -1.7927  0.2284 -0.9698
  357TIP3   OH222485   3.505   1.710  16.317  0.3812  0.1848  0.0001
  357TIP3    H122486   3.573   1.666  16.368  1.3600  1.2687 -0.3586
  357TIP3    H222487   3.552   1.776  16.267 -0.7528  0.0266 -1.2986
  358TIP3   OH222488   4.618   3.729  15.660  0.2121  0.2169 -0.5179
  358TIP3    H122489   4.635   3.713  15.753 -0.3570 -1.0713 -0.6303
  358TIP3    H222490   4.678   3.800  15.637 -0.2964  1.1864  1.0527
  359TIP3   OH222491   0.510   0.985  12.009  0.3001 -0.2542 -0.2589
  359TIP3    H122492   0.488   0.955  11.921  2.2219 -0.7563 -0.5771
  359TIP3    H222493   0.572   1.057  11.996  1.5181 -1.1113  0.7105
  360TIP3   OH222494   4.149   6.427  13.751 -0.2355  0.0955 -0.7077
  360TIP3    H122495   4.158   6.519  13.775  0.0081 -0.5158  1.6453
  360TIP3    H222496   4.195   6.379  13.820 -0.1554 -1.7821 -2.0208
  361TIP3   OH222497   3.432   4.697   3.121  0.0633  0.4397 -0.0346
  361TIP3    H122498   3.448   4.612   3.160 -2.6671 -0.8723 -1.6298
  361TIP3    H222499   3.424   4.757   3.196  0.1787 -1.0096  1.1580
  362TIP3   OH222500   6.763   6.079  13.471 -0.0091  0.1235 -0.2456
  362TIP3    H122501   6.789   5.991  13.499  0.3831  0.5511  0.7552
  362TIP3    H222502   6.788   6.083  13.379 -0.8078 -1.1090 -0.5326
  363TIP3   OH222503   6.473   2.483  15.113  0.5082  0.1818  0.7585
  363TIP3    H122504   6.530   2.559  15.121  1.0488  0.0495 -1.5323
  363TIP3    H222505   6.385   2.517  15.130  0.8725  1.0786  0.8904
  364TIP3   OH222506   5.076   3.875   4.958 -0.1052  0.5555  0.3681
  364TIP3    H122507   5.155   3.920   4.989 -0.1011  1.0475 -0.3514
  364TIP3    H222508   5.056   3.916   4.874 -0.2252 -0.6250 -0.2023
  365TIP3   OH222509   1.346   6.145  11.094 -0.1522 -0.6056 -0.3187
  365TIP3    H122510   1.381   6.194  11.020 -0.9912 -0.3091 -0.5260
  365TIP3    H222511   1.253   6.134  11.073 -0.2507 -1.0894  0.3757
  366TIP3   OH222512   0.960   3.361   3.916 -0.2400  0.1700 -0.1325
  366TIP3    H122513   0.952   3.389   4.007  0.1954 -0.4024  0.0799
  366TIP3    H222514   0.885   3.303   3.903  1.0693 -1.7291  0.5938
  367TIP3   OH222515   5.867   3.947   1.635 -0.5020  0.0446 -0.5043
  367TIP3    H122516   5.920   3.940   1.555 -0.6830  0.2956 -0.6487
  367TIP3    H222517   5.922   3.997   1.696 -1.6048  2.7128 -1.5798
  368TIP3   OH222518   6.138   6.039   0.068 -0.4543 -0.1794  0.5636
  368TIP3    H122519   6.218   5.990   0.086 -0.7650 -0.0443  2.3572
  368TIP3    H222520   6.079   6.016   0.140 -1.5022  0.8766  0.0534
  369TIP3   OH222521   2.317   1.886  15.102 -0.3319 -0.2118 -0.1543
  369TIP3    H122522   2.389   1.882  15.039 -1.1172  0.5172 -1.1104
  369TIP3    H222523   2.359   1.902  15.186  0.5054  1.8329 -0.9571
  370TIP3   OH222524   4.926   3.915  15.309 -0.6028 -0.0119 -0.5110
  370TIP3    H122525   4.917   3.972  15.232  1.8714  0.5813 -0.3982
  370TIP3    H222526   4.900   3.970  15.383 -0.9287  0.0963 -0.7055
  371TIP3   OH222527   1.861   4.330  13.435  0.0081 -0.7248 -0.2424
  371TIP3    H122528   1.836   4.397  13.499 -0.5920  0.6262 -1.8469
  371TIP3    H222529   1.952   4.350  13.413 -0.5036  0.2930 -1.5457
  372TIP3   OH222530   5.975   5.725   3.961 -0.5323 -0.1435 -0.0638
  372TIP3    H122531   5.890   5.759   3.986 -0.7057 -0.3932 -0.3070
  372TIP3    H222532   6.015   5.697   4.043 -0.2829  0.8776  0.1660
  373TIP3   OH222533   3.893   3.267  13.247  0.2163  0.7505  0.2715
  373TIP3    H122534   3.848   3.296  13.167  1.4222  2.6064  0.2379
  373TIP3    H222535   3.827   3.215  13.294 -1.3090  1.7384 -0.7233
  374TIP3   OH222536   5.602   1.397  13.960  0.3322 -0.0792 -0.1565
  374TIP3    H122537   5.557   1.430  13.882  0.1909  0.6305  0.2235
  374TIP3    H222538   5.639   1.313  13.933 -0.6399 -0.3436 -0.6748
  375TIP3   OH222539   2.040   4.506  14.201 -0.6913  0.0280  0.1056
  375TIP3    H122540   2.102   4.495  14.129 -1.5927 -0.1327 -0.6487
  375TIP3    H222541   2.054   4.429  14.256 -0.7096 -0.3665 -0.4356
  376TIP3   OH222542   5.174   0.446  11.563 -0.2712 -0.3425 -0.1897
  376TIP3    H122543   5.193   0.516  11.625  1.9774 -2.3925  1.5531
  376TIP3    H222544   5.258   0.429  11.520 -1.7032  0.7908 -3.6394
  377TIP3   OH222545   0.526   4.821   6.363  0.0520 -0.7395  0.3777
  377TIP3    H122546   0.456   4.757   6.353 -0.2190 -0.2537 -0.9720
  377TIP3    H222547   0.502   4.892   6.304  1.4367 -0.3503  0.2638
  378TIP3   OH222548   0.439   1.449   0.114  0.1654 -0.0696  0.5210
  378TIP3    H122549   0.484   1.371   0.082 -1.0171 -0.4267 -0.3051
  378TIP3    H222550   0.418   1.429   0.205 -0.9175 -1.0790  0.0607
  379TIP3   OH222551   5.560   2.559  13.327 -0.1260  0.2418  0.0061
  379TIP3    H122552   5.516   2.602  13.254 -1.5670 -0.6849  0.3046
  379TIP3    H222553   5.631   2.509  13.287 -0.2331  0.6135 -0.6455
  380TIP3   OH222554   2.329   6.522   1.286  0.9275  0.2000 -0.0855
  380TIP3    H122555   2.293   6.441   1.323 -0.1673  1.0570  0.7643
  380TIP3    H222556   2.371   6.565   1.361  1.3545  0.5018 -0.5000
  381TIP3   OH222557   5.053   4.904   2.211  0.8355 -0.6975  0.6410
  381TIP3    H122558   5.002   4.827   2.238  1.9673 -1.3642  0.9285
  381TIP3    H222559   4.992   4.977   2.218  0.7335 -1.0393  3.7592
  382TIP3   OH222560   4.134   3.104  11.244 -0.3690 -1.1851  0.4405
  382TIP3    H122561   4.173   3.093  11.158  1.0983 -1.3139  1.1032
  382TIP3    H222562   4.168   3.187  11.276 -0.6216 -1.3092  1.0444
  383TIP3   OH222563   5.885   0.070  13.288 -0.0494  0.4151  0.4297
  383TIP3    H122564   5.941  -0.002  13.316  2.1593  2.9801  2.9021
  383TIP3    H222565   5.849   0.106  13.369 -1.0220  2.1490 -0.7422
  384TIP3   OH222566   3.719   3.631   4.441  1.5071  0.1495 -0.0747
  384TIP3    H122567   3.763   3.666   4.518  3.2827 -0.7491 -0.6685
  384TIP3    H222568   3.738   3.695   4.372  0.4746  0.6111  0.0589
  385TIP3   OH222569   5.336   1.951  13.361 -0.3656 -0.2661  0.0422
  385TIP3    H122570   5.381   1.912  13.286 -1.6522  0.2652 -1.0302
  385TIP3    H222571   5.337   2.045  13.344  0.6558 -0.0138  1.4529
  386TIP3   OH222572   5.590   1.736  12.843  0.4010 -0.1631  0.0342
  386TIP3    H122573   5.635   1.819  12.858  0.3715 -0.1472  0.0354
  386TIP3    H222574   5.637   1.673  12.897  0.3723 -0.1311  0.0949
  387TIP3   OH222575   3.055   2.888  14.273  0.3010 -0.2936  0.2300
  387TIP3    H122576   2.984   2.857  14.329  0.6728  0.4422  1.1251
  387TIP3    H222577   3.088   2.967  14.317  2.0560 -0.9437  0.1341
  388TIP3   OH222578   2.844   1.917   4.938 -0.0304 -0.3946  0.3206
  388TIP3    H122579   2.869   1.910   4.846 -0.2881 -3.0869  0.4397
  388TIP3    H222580   2.902   1.985   4.973  1.7293 -1.0352 -1.2639
  389TIP3   OH222581   0.702   3.884   3.240  0.0740  0.4215 -0.3221
  389TIP3    H122582   0.646   3.810   3.265  1.0149  0.4558  2.0566
  389TIP3    H222583   0.646   3.961   3.252  0.2645  0.3711  0.9292
  390TIP3   OH222584   3.453   0.296   2.182  0.5034  0.3810 -0.2179
  390TIP3    H122585   3.366   0.295   2.140  0.1741 -1.4394  0.4621
  390TIP3    H222586   3.434   0.303   2.275  1.0087 -1.9468  0.0790
  391TIP3   OH222587   3.251   1.410   1.026 -0.0045 -0.4113  0.0215
  391TIP3    H122588   3.344   1.387   1.030  0.8601  2.7334 -0.3709
  391TIP3    H222589   3.229   1.437   1.115 -0.1976  0.1282 -0.1905
  392TIP3   OH222590   2.617   3.648  15.914  0.1471  0.3144 -0.2852
  392TIP3    H122591   2.545   3.691  15.960 -0.7423  0.1819 -1.5209
  392TIP3    H222592   2.662   3.720  15.868 -1.4883 -0.0412 -2.5513
  393TIP3   OH222593   1.974   1.970   2.511 -0.1340  0.3161 -0.4821
  393TIP3    H122594   2.024   2.048   2.485  1.1668 -0.1812  0.4893
  393TIP3    H222595   1.884   2.002   2.519 -0.1008  1.0901 -2.8507
  394TIP3   OH222596   0.455   5.349  15.495 -0.1925  0.1086 -0.8474
  394TIP3    H122597   0.488   5.296  15.423  0.8376 -0.3185 -0.0785
  394TIP3    H222598   0.395   5.292  15.542 -1.3463  0.5904 -1.7211
  395TIP3   OH222599   1.726   6.557   6.573 -0.0663 -0.0185  0.7113
  395TIP3    H122600   1.660   6.489   6.556 -0.6649  0.5450  0.7778
  395TIP3    H222601   1.708   6.585   6.663  0.5360 -0.1589  0.8773
  396TIP3   OH222602   5.730   1.389  13.630 -0.2429  0.5943  0.1605
  396TIP3    H122603   5.811   1.437  13.649 -0.3538  1.1849 -0.8579
  396TIP3    H222604   5.715   1.402  13.537 -0.3266 -1.3552 -0.1342
  397TIP3   OH222605   3.597   5.797   5.184  0.1174  0.0906  0.3336
  397TIP3    H122606   3.666   5.818   5.121  1.1299 -0.5028  1.2372
  397TIP3    H222607   3.516   5.824   5.140  0.7493 -0.8849 -1.4812
  398TIP3   OH222608   2.129   1.237  11.451 -0.0033  0.3709  0.2851
  398TIP3    H122609   2.211   1.286  11.442  1.1053 -1.2004  1.6434
  398TIP3    H222610   2.089   1.272  11.530 -0.4341  0.8277 -0.1340
  399TIP3   OH222611   0.193   0.518   0.729  0.3310 -0.3005 -0.8115
  399TIP3    H122612   0.139   0.443   0.755  1.3113 -1.2227 -1.3797
  399TIP3    H222613   0.249   0.536   0.804  0.6247 -0.6289 -0.9510
  400TIP3   OH222614   0.596   0.517   0.736  0.5086 -0.0204  0.0276
  400TIP3    H122615   0.553   0.548   0.816 -0.5381 -0.3891 -0.3792
  400TIP3    H222616   0.532   0.535   0.667  1.1870 -0.2032 -0.6444
  401TIP3   OH222617   0.440   0.142  10.349 -0.2288 -0.4019  0.0145
  401TIP3    H122618   0.421   0.217  10.293 -1.2527 -0.8006 -0.1809
  401TIP3    H222619   0.533   0.151  10.370 -0.7179  1.8734  1.4045
  402TIP3   OH222620   6.379   6.167   0.204 -0.0138  0.1071  0.3642
  402TIP3    H122621   6.457   6.222   0.197 -0.8014  1.2933  0.8779
  402TIP3    H222622   6.325   6.191   0.129 -0.1083 -0.3706  0.2769
  403TIP3   OH222623   0.625   0.116   6.303  0.2179 -0.4084  0.0033
  403TIP3    H122624   0.615   0.174   6.227 -1.9719  0.3017  0.8075
  403TIP3    H222625   0.712   0.137   6.338  0.6784  0.2302 -1.4850
  404TIP3   OH222626   2.171   3.491   0.579 -0.0293  0.4457  0.0915
  404TIP3    H122627   2.230   3.520   0.510 -0.0987 -0.3534 -0.3034
  404TIP3    H222628   2.224   3.491   0.659  1.0552 -2.1849 -0.5949
  405TIP3   OH222629   3.995   5.916   4.453 -0.3687 -0.4506 -0.0856
  405TIP3    H122630   3.954   5.932   4.538  0.3817 -0.4168  0.2703
  405TIP3    H222631   3.924   5.927   4.390 -1.1298 -1.3844  0.6014
  406TIP3   OH222632   3.523   1.141  14.145 -0.0246  0.2710 -0.0366
  406TIP3    H122633   3.472   1.149  14.226  2.7175  0.8729  1.7154
  406TIP3    H222634   3.576   1.221  14.142  0.7117 -0.2661 -1.8390
  407TIP3   OH222635   1.113   0.719   0.410  0.0527  0.1671 -0.4776
  407TIP3    H122636   1.034   0.772   0.401  0.0468  0.3987  0.8412
  407TIP3    H222637   1.176   0.777   0.454 -0.3934 -1.3125  2.2382
  408TIP3   OH222638   6.511   3.582  16.702  0.1886 -0.0942  0.4482
  408TIP3    H122639   6.461   3.543  16.630 -0.0307 -0.3699  0.7451
  408TIP3    H222640   6.602   3.569  16.677  0.1157  0.4370 -0.1117
  409TIP3   OH222641   5.436   3.880   5.500  0.1788  0.3187  0.3444
  409TIP3    H122642   5.512   3.855   5.448 -0.4728  0.5168 -0.7227
  409TIP3    H222643   5.453   3.844   5.587  1.1604 -0.2479 -0.0798
  410TIP3   OH222644   1.281   1.261   0.412  0.3862 -0.2451  0.3090
  410TIP3    H122645   1.327   1.214   0.343 -2.1123 -2.0821 -0.1612
  410TIP3    H222646   1.335   1.338   0.429  3.3530 -2.0848 -0.5286
  411TIP3   OH222647   6.545   6.204  12.535 -0.3751  0.4419  0.4569
  411TIP3    H122648   6.545   6.164  12.622  1.9269  2.4417  1.4509
  411TIP3    H222649   6.467   6.259  12.534 -1.8522 -1.6028  0.2377
  412TIP3   OH222650   3.109   6.095   4.442  1.0263  0.4881  0.4544
  412TIP3    H122651   3.179   6.029   4.445 -0.6710 -1.3783  0.0941
  412TIP3    H222652   3.076   6.101   4.531 -0.6469 -1.2078 -0.0184
  413TIP3   OH222653   4.761   0.389   0.971 -0.3012  0.7767  0.3552
  413TIP3    H122654   4.809   0.434   1.040  2.9315 -1.2532 -0.4752
  413TIP3    H222655   4.829   0.351   0.915 -2.8856 -1.9550 -1.0630
  414TIP3   OH222656   0.375   0.131  17.000 -0.5718 -1.2870  0.2451
  414TIP3    H122657   0.339   0.187  17.069  1.2193 -0.3917  0.4857
  414TIP3    H222658   0.300   0.108  16.946 -1.5687  0.1935  0.9737
  415TIP3   OH222659   6.134   4.939   4.879 -0.4084 -0.1142 -0.2041
  415TIP3    H122660   6.213   4.912   4.926 -0.2752  1.1853  0.3283
  415TIP3    H222661   6.164   4.960   4.791 -0.0743  0.8555  0.1380
  416TIP3   OH222662   2.105   0.312   0.806  0.2551  0.2365  0.2612
  416TIP3    H122663   2.147   0.227   0.787  1.6923  0.5585  1.9126
  416TIP3    H222664   2.178   0.374   0.811 -0.7703  1.5674 -0.7481
  417TIP3   OH222665   1.689   2.430  13.739  0.3993  0.3443  0.1283
  417TIP3    H122666   1.606   2.385  13.755 -0.0973  0.8759 -0.8707
  417TIP3    H222667   1.727   2.384  13.664 -0.2808  1.7845 -1.1249
  418TIP3   OH222668   6.238   5.619   3.098  0.5175  0.3571 -0.3689
  418TIP3    H122669   6.238   5.629   3.003  1.3923  1.6309 -0.2474
  418TIP3    H222670   6.195   5.698   3.131  2.8219  1.3393  0.3975
  419TIP3   OH222671   6.179   1.829  12.826  0.2427 -1.1790 -0.2521
  419TIP3    H122672   6.264   1.798  12.857  0.1884 -0.5423  0.5566
  419TIP3    H222673   6.186   1.828  12.731  1.7214  0.3881 -0.1817
  420TIP3   OH222674   2.944   6.343  12.797 -0.1337 -0.4499  0.4928
  420TIP3    H122675   3.036   6.353  12.822 -1.0026 -1.7575  4.5800
  420TIP3    H222676   2.908   6.432  12.802  0.5729 -0.1527  0.3121
  421TIP3   OH222677   2.948   3.543  14.678 -0.6225 -0.3503  0.5060
  421TIP3    H122678   2.880   3.608  14.699  0.1570  0.4214  0.6826
  421TIP3    H222679   3.023   3.569  14.732  0.8652  0.6660 -1.9825
  422TIP3   OH222680   2.120   1.321   4.407 -0.0283  0.6763 -0.0675
  422TIP3    H122681   2.128   1.399   4.353  0.8421  1.4140  1.0946
  422TIP3    H222682   2.196   1.267   4.383  0.0842  0.7753  0.0685
  423TIP3   OH222683   3.297   1.118   4.917 -0.4478  0.4826  0.0499
  423TIP3    H122684   3.271   1.209   4.906 -2.1673 -0.0732 -0.7418
  423TIP3    H222685   3.260   1.092   5.001 -1.5688  0.0063 -0.5718
  424TIP3   OH222686   1.273   0.861  12.117  0.4690 -0.0205 -0.4960
  424TIP3    H122687   1.284   0.774  12.155  1.3575 -0.0735 -0.8680
  424TIP3    H222688   1.307   0.921  12.183 -0.3817  0.0729 -0.1304
  425TIP3   OH222689   3.914   3.455  17.042 -0.2102 -0.0034 -0.4814
  425TIP3    H122690   3.829   3.447  17.086 -0.3651 -0.4372 -0.8501
  425TIP3    H222691   3.900   3.415  16.956  0.1023  0.7950 -0.9023
  426TIP3   OH222692   0.982   6.353   2.879 -0.8614 -0.0703 -0.4594
  426TIP3    H122693   0.982   6.331   2.785 -0.4732  0.9533 -0.7061
  426TIP3    H222694   0.935   6.280   2.920 -2.5741  0.3162 -1.6527
  427TIP3   OH222695   1.217   5.271  11.862  0.7568 -0.1841  0.1683
  427TIP3    H122696   1.185   5.312  11.942  0.9284  2.0966 -0.8854
  427TIP3    H222697   1.138   5.250  11.812  0.7246  0.6880 -0.1530
  428TIP3   OH222698   3.263   4.204   4.034 -0.3547 -0.1721  0.1464
  428TIP3    H122699   3.290   4.283   3.988 -1.9074  0.9922  1.1579
  428TIP3    H222700   3.175   4.185   4.000 -1.5300  0.7018  2.5303
  429TIP3   OH222701   5.294   3.187   1.431  0.0318  0.0169  0.5646
  429TIP3    H122702   5.385   3.167   1.453 -0.5911 -1.5937  1.7343
  429TIP3    H222703   5.271   3.123   1.364 -0.6548 -0.4622  1.2495
  430TIP3   OH222704   0.208   3.366  15.274 -0.0084  0.0677  0.0480
  430TIP3    H122705   0.117   3.366  15.303  0.1267  1.1607  0.5153
  430TIP3    H222706   0.259   3.352  15.354  0.3441  2.4725  0.2803
  431TIP3   OH222707   6.703   0.351   0.558  0.2006  0.6348 -0.5895
  431TIP3    H122708   6.675   0.404   0.632  0.5906  0.2743 -0.1872
  431TIP3    H222709   6.622   0.309   0.527  0.2541 -0.2335  0.4387
  432TIP3   OH222710   0.273   2.229   4.626  0.1580  0.8053 -0.0807
  432TIP3    H122711   0.252   2.139   4.654  0.9086  0.8577  0.6982
  432TIP3    H222712   0.223   2.284   4.687 -1.9062  0.9392 -1.8295
  433TIP3   OH222713   3.643   2.626  11.193  0.5159  0.2871  0.1534
  433TIP3    H122714   3.730   2.641  11.231  0.6015 -0.4178  0.2357
  433TIP3    H222715   3.605   2.556  11.246  0.4276 -0.3370 -0.7297
  434TIP3   OH222716   1.419   0.680  13.731  0.1873  0.0641  0.2570
  434TIP3    H122717   1.421   0.588  13.756  0.6951 -0.2651 -0.9476
  434TIP3    H222718   1.346   0.688  13.670  1.9558 -0.1876 -1.9681
  435TIP3   OH222719   6.747   5.633   6.118 -0.4655 -0.1662 -0.3987
  435TIP3    H122720   6.779   5.707   6.068 -0.9423  2.3500  2.8245
  435TIP3    H222721   6.825   5.592   6.154 -0.3440  1.1709  0.9468
  436TIP3   OH222722   6.105   3.556  16.436 -0.2416 -0.4189 -0.3332
  436TIP3    H122723   6.139   3.495  16.502 -2.0197  0.9989  1.9571
  436TIP3    H222724   6.177   3.616  16.418  0.9720 -2.1281 -1.3726
  437TIP3   OH222725   0.600   1.515  16.706 -0.2983  0.1857 -0.7705
  437TIP3    H122726   0.676   1.492  16.759 -1.2258 -1.2106  0.0072
  437TIP3    H222727   0.599   1.610  16.705  1.1142  0.2202 -0.2914
  438TIP3   OH222728   6.025   2.740  15.965 -0.1516 -0.1025 -0.0995
  438TIP3    H122729   5.943   2.747  15.916  0.8399  0.2248 -1.7600
  438TIP3    H222730   6.009   2.671  16.030 -1.8046  0.1243 -0.2492
  439TIP3   OH222731   0.083   6.456   2.083 -1.1718  0.0622  0.4234
  439TIP3    H122732   0.131   6.388   2.035 -1.9967 -1.1266  1.2321
  439TIP3    H222733   0.147   6.491   2.145  0.1694  2.2413 -2.0756
  440TIP3   OH222734   0.235   1.887   3.835 -0.0528 -0.4742 -0.1543
  440TIP3    H122735   0.270   1.954   3.775  0.7503 -1.9398 -1.3540
  440TIP3    H222736   0.182   1.831   3.779 -0.8968 -0.7366  0.8921
  441TIP3   OH222737   3.423   3.998   5.026 -0.2273  0.2860 -0.2442
  441TIP3    H122738   3.362   3.980   4.955 -0.2529 -0.1094 -0.1233
  441TIP3    H222739   3.499   4.037   4.983  0.4207 -1.4156 -0.6945
  442TIP3   OH222740   2.047   2.184  10.648  0.2023  0.7356  0.2012
  442TIP3    H122741   2.130   2.230  10.643  0.2294  1.1273  3.2433
  442TIP3    H222742   2.069   2.099  10.687 -0.5812  0.1877 -0.5409
  443TIP3   OH222743   6.264   1.130  13.845  0.3915 -0.5937 -0.1233
  443TIP3    H122744   6.328   1.060  13.832  0.3170 -0.8360  0.7724
  443TIP3    H222745   6.214   1.133  13.764  0.9287 -1.0317 -0.4740
  444TIP3   OH222746   0.813   2.615   1.566 -0.0764  0.0573 -0.2537
  444TIP3    H122747   0.727   2.641   1.533  0.3603 -0.8854 -2.2518
  444TIP3    H222748   0.796   2.583   1.654 -1.5251  1.3442 -0.0257
  445TIP3   OH222749   4.577   5.598   6.233 -0.2995 -0.1337  0.3283
  445TIP3    H122750   4.627   5.668   6.191 -1.0974 -0.0704 -0.5218
  445TIP3    H222751   4.501   5.585   6.176  0.4212 -2.4779 -0.1721
  446TIP3   OH222752   5.859   2.055  11.591  0.5403  0.0014 -0.4161
  446TIP3    H122753   5.811   2.138  11.592  0.0330 -0.2325 -2.6647
  446TIP3    H222754   5.879   2.040  11.498  0.3740 -2.5561 -0.0705
  447TIP3   OH222755   4.658   2.529  16.865 -0.4920  0.2765  0.1585
  447TIP3    H122756   4.604   2.564  16.793 -0.0031  0.8561  0.0695
  447TIP3    H222757   4.619   2.567  16.944  0.2312  1.2823  0.0375
  448TIP3   OH222758   5.313   1.316  15.874  0.2651 -0.2723  0.3187
  448TIP3    H122759   5.219   1.307  15.891 -0.4303  1.7300 -2.1586
  448TIP3    H222760   5.320   1.326  15.779  2.9850 -0.1995  0.4796
  449TIP3   OH222761   0.957   4.307   5.077  0.7096 -0.1130 -0.3009
  449TIP3    H122762   0.876   4.329   5.031 -1.2579 -1.4335  2.4105
  449TIP3    H222763   1.006   4.254   5.014 -0.4786  0.7815 -2.0277
  450TIP3   OH222764   1.227   4.545  11.505 -0.4626 -0.1110 -0.0997
  450TIP3    H122765   1.232   4.541  11.409 -1.9517 -3.0483 -0.1126
  450TIP3    H222766   1.308   4.503  11.535 -0.6300 -0.4286 -0.0884
  451TIP3   OH222767   2.203   4.911   2.070  0.0473 -0.1577  0.0855
  451TIP3    H122768   2.137   4.972   2.103 -1.7003 -1.3732 -1.0725
  451TIP3    H222769   2.268   4.905   2.140 -0.7117  1.5888  0.9605
  452TIP3   OH222770   3.901   3.498   5.201  0.0636 -0.3220  0.1147
  452TIP3    H122771   3.925   3.526   5.289 -0.5109  1.9691 -0.4250
  452TIP3    H222772   3.834   3.431   5.214 -1.2978  1.2518  1.4142
  453TIP3   OH222773   0.457   1.371  11.650 -0.4510 -0.0025 -0.2784
  453TIP3    H122774   0.395   1.439  11.627 -0.8672 -0.8044 -1.5701
  453TIP3    H222775   0.414   1.322  11.721 -1.3848 -0.6759 -1.2980
  454TIP3   OH222776   4.166   2.799  13.145  0.1902  0.1261 -0.0898
  454TIP3    H122777   4.249   2.818  13.188 -0.1577  1.8182 -0.1259
  454TIP3    H222778   4.104   2.788  13.217  0.2996 -0.4337 -0.0794
  455TIP3   OH222779   0.265   3.571   4.983 -0.6228 -0.3859  0.6170
  455TIP3    H122780   0.208   3.648   4.972  1.7309  1.3668  0.2472
  455TIP3    H222781   0.254   3.546   5.075 -0.9649  0.7675  0.8982
  456TIP3   OH222782   5.022   4.374  12.497  0.4697 -0.2655  0.1368
  456TIP3    H122783   5.020   4.470  12.502 -1.3743 -0.3781  2.3432
  456TIP3    H222784   4.935   4.347  12.527  0.8775 -2.6455 -0.7407
  457TIP3   OH222785   1.473   5.858   0.366  0.4990  0.0559  0.2720
  457TIP3    H122786   1.380   5.879   0.370  0.3895 -0.4989  0.6551
  457TIP3    H222787   1.479   5.786   0.303  0.2375 -2.1923  2.6959
  458TIP3   OH222788   5.948   3.299  12.377 -0.1581 -0.1308 -0.2187
  458TIP3    H122789   5.867   3.269  12.418  0.3417  0.0794  0.9693
  458TIP3    H222790   5.989   3.354  12.444  1.0674 -0.4032 -0.7344
  459TIP3   OH222791   5.301   3.216  15.562  0.3318  0.6826  0.1501
  459TIP3    H122792   5.207   3.197  15.556  0.6592 -2.4977  3.7233
  459TIP3    H222793   5.344   3.137  15.530  1.7624  0.8718  1.5235
  460TIP3   OH222794   1.225   3.521   2.800 -0.4291 -0.3594 -0.1642
  460TIP3    H122795   1.276   3.496   2.723 -0.7467 -2.6059  0.3069
  460TIP3    H222796   1.278   3.587   2.845  0.2638  0.1387 -1.7140
  461TIP3   OH222797   3.801   2.928   1.202 -0.4675  0.1097 -0.1378
  461TIP3    H122798   3.788   2.895   1.113  1.6108 -0.4523 -0.2566
  461TIP3    H222799   3.855   2.862   1.244 -0.6163  0.8606  1.2453
  462TIP3   OH222800   2.422   3.737   1.171 -0.1487  0.3718 -0.0993
  462TIP3    H122801   2.345   3.730   1.116  0.3290 -1.0558 -0.6035
  462TIP3    H222802   2.493   3.701   1.118  0.6981  0.8967  0.6697
  463TIP3   OH222803   3.278   3.598   0.486 -0.2627 -0.1631 -0.1977
  463TIP3    H122804   3.354   3.544   0.465 -0.2997 -1.2809  2.3468
  463TIP3    H222805   3.204   3.537   0.487 -0.8529  0.5287 -0.5667
  464TIP3   OH222806   3.290   1.091  13.893  0.2844  0.1310  0.1119
  464TIP3    H122807   3.376   1.056  13.869  0.4170  0.4851  0.0621
  464TIP3    H222808   3.252   1.025  13.950  0.7818  0.1880  0.5080
  465TIP3   OH222809   6.330   5.852   4.797  0.3760 -0.2097 -0.0832
  465TIP3    H122810   6.323   5.888   4.709 -0.7100  0.6896  0.3591
  465TIP3    H222811   6.423   5.831   4.808  0.6393  0.4039 -1.1525
  466TIP3   OH222812   6.612   4.387  16.557 -0.0331  0.0579  0.3259
  466TIP3    H122813   6.632   4.294  16.553 -0.7834 -0.1987  1.9233
  466TIP3    H222814   6.694   4.431  16.535 -0.2685 -0.9494 -2.8533
  467TIP3   OH222815   0.319   5.833   2.119 -0.5600 -0.3197  0.2497
  467TIP3    H122816   0.414   5.834   2.132 -0.2653  1.0140 -1.9137
  467TIP3    H222817   0.284   5.874   2.198  0.5255 -2.2757  1.8137
  468TIP3   OH222818   3.354   2.876   2.204  0.5369 -0.5027 -0.1264
  468TIP3    H122819   3.371   2.841   2.117  0.0714 -0.9010 -0.0619
  468TIP3    H222820   3.437   2.867   2.250  0.7176 -0.5173 -0.4528
  469TIP3   OH222821   2.690   4.176  14.712 -0.5050  0.0085 -0.0385
  469TIP3    H122822   2.666   4.190  14.803 -1.9601 -1.8551 -0.1135
  469TIP3    H222823   2.737   4.093  14.712  3.0021  1.8938 -0.4374
  470TIP3   OH222824   6.357   5.841   5.315 -0.4503 -0.0158 -0.2582
  470TIP3    H122825   6.301   5.763   5.322 -0.4692  0.1047  0.9622
  470TIP3    H222826   6.349   5.867   5.223 -1.2631 -0.8471 -0.4370
  471TIP3   OH222827   4.253   5.009  12.846 -0.1069  0.1675  0.1711
  471TIP3    H122828   4.342   5.016  12.881 -0.2815  1.7572  0.3513
  471TIP3    H222829   4.262   4.958  12.766  1.3473  2.2028 -1.0283
  472TIP3   OH222830   4.995   2.608  15.645  0.2468 -0.0101  0.6250
  472TIP3    H122831   5.054   2.682  15.633  1.5501 -1.2572 -0.8028
  472TIP3    H222832   5.029   2.540  15.587 -2.8871 -0.6048 -0.6162
  473TIP3   OH222833   4.638   6.717   4.813  0.1773  0.0697  0.3008
  473TIP3    H122834   4.722   6.671   4.821  0.6209  0.7646 -0.3323
  473TIP3    H222835   4.626   6.761   4.897  0.8248  0.6004  0.1162
  474TIP3   OH222836   0.571   4.378  16.462 -0.2555  0.1928  0.1728
  474TIP3    H122837   0.609   4.318  16.399 -0.5265  1.8176 -1.6056
  474TIP3    H222838   0.567   4.462  16.416 -3.1026  0.7812  1.3646
  475TIP3   OH222839   3.967   0.174   5.560  0.0509 -0.6749 -0.2732
  475TIP3    H122840   3.928   0.089   5.577  0.2629 -0.2838  2.4069
  475TIP3    H222841   4.060   0.155   5.545 -0.1519 -1.0423 -1.0938
  476TIP3   OH222842   3.244   4.605   3.685 -0.5624  0.0604 -0.3861
  476TIP3    H122843   3.237   4.700   3.693 -0.0544  0.1471 -0.9076
  476TIP3    H222844   3.288   4.591   3.601 -0.5062 -0.6289 -0.2468
  477TIP3   OH222845   3.405   0.518  12.013  0.2191  0.2999 -0.2106
  477TIP3    H122846   3.487   0.537  12.059 -0.0559  1.0748 -0.0293
  477TIP3    H222847   3.366   0.446  12.062  1.6454 -1.2930 -1.3517
  478TIP3   OH222848   3.493   5.713   1.501  0.2139 -0.4123 -0.5042
  478TIP3    H122849   3.470   5.803   1.522  0.3806 -0.5128  0.1089
  478TIP3    H222850   3.577   5.698   1.545  0.2369 -0.8339 -0.6852
  479TIP3   OH222851   2.571   5.561  14.021  0.5050  0.3370  0.3312
  479TIP3    H122852   2.550   5.642  13.975 -1.2360 -0.0956  0.3388
  479TIP3    H222853   2.539   5.491  13.965  0.3077 -0.2799  1.1996
  480TIP3   OH222854   4.637   2.345   2.288  0.2145  0.2052 -0.2150
  480TIP3    H122855   4.563   2.387   2.244  1.2748  0.7178 -1.5392
  480TIP3    H222856   4.710   2.355   2.227  1.5559  0.3366  1.3773
  481TIP3   OH222857   1.141   6.355  12.185 -0.0431 -0.7036 -0.2320
  481TIP3    H122858   1.185   6.331  12.267 -0.5677 -1.4081 -0.1411
  481TIP3    H222859   1.184   6.301  12.119  0.7626  0.2867 -0.5111
  482TIP3   OH222860   5.637   0.571  13.606 -0.5171 -0.0039  0.0024
  482TIP3    H122861   5.650   0.666  13.607 -1.3418  0.1143 -0.1419
  482TIP3    H222862   5.692   0.539  13.678 -0.2885  0.5861  0.0956
  483TIP3   OH222863   2.557   5.078  13.859  0.2688  0.2779  0.5198
  483TIP3    H122864   2.553   4.984  13.842  2.2682  0.4049 -0.8210
  483TIP3    H222865   2.526   5.088  13.949  0.3401 -1.6818  0.7724
  484TIP3   OH222866   3.240   2.210  10.920 -0.3694  0.0193 -0.0550
  484TIP3    H122867   3.150   2.242  10.926 -0.3133  0.0732  0.4839
  484TIP3    H222868   3.231   2.116  10.905 -0.5121 -0.0294  0.3332
  485TIP3   OH222869   0.451   3.942   5.910 -0.2935 -0.6179  0.5675
  485TIP3    H122870   0.462   3.852   5.941 -2.7517 -1.0262  0.3800
  485TIP3    H222871   0.379   3.977   5.962 -0.0999  0.8820 -0.1411
  486TIP3   OH222872   1.801   5.010  13.597  0.0959  0.0882 -0.0731
  486TIP3    H122873   1.831   5.057  13.674 -2.5394  2.0377 -0.1674
  486TIP3    H222874   1.876   5.010  13.537  1.5191  0.2712  1.6711
  487TIP3   OH222875   6.755   2.321  12.143 -0.8390 -0.4009 -0.1880
  487TIP3    H122876   6.735   2.343  12.234 -1.4638 -1.6938  0.0085
  487TIP3    H222877   6.670   2.323  12.098 -0.1532  3.2297 -1.4511
  488TIP3   OH222878   4.252   5.411  17.164 -0.0397  0.0057 -0.2781
  488TIP3    H122879   4.341   5.446  17.165  0.9077 -2.2834 -0.8203
  488TIP3    H222880   4.234   5.387  17.255 -1.1600  2.9392  0.3201
  489TIP3   OH222881   0.074   2.681   5.739  0.1257  0.2096 -0.1882
  489TIP3    H122882  -0.014   2.704   5.767 -0.8781 -0.8187 -2.3692
  489TIP3    H222883   0.131   2.740   5.788 -1.8646  2.0558 -0.0400
  490TIP3   OH222884   2.820   4.683  14.678 -0.0540 -0.2591  0.8951
  490TIP3    H122885   2.822   4.591  14.705  0.0523 -0.7801 -0.8363
  490TIP3    H222886   2.911   4.703  14.654 -0.2472  0.0259  0.3973
  491TIP3   OH222887   3.898   3.728   4.635 -0.5980 -0.1561 -0.4095
  491TIP3    H122888   3.848   3.761   4.710 -0.2968  1.1820 -0.7782
  491TIP3    H222889   3.977   3.782   4.633  0.2266 -1.3389 -0.6587
  492TIP3   OH222890   4.687   2.200   3.824 -0.1147  0.0151 -0.1342
  492TIP3    H122891   4.665   2.285   3.787  0.2006  0.1726  0.0441
  492TIP3    H222892   4.782   2.193   3.816 -0.2514 -0.7956 -1.1694
  493TIP3   OH222893   2.278   1.573  14.046  0.0404  0.3819  0.3400
  493TIP3    H122894   2.223   1.546  14.119  0.4264  0.5509  0.6934
  493TIP3    H222895   2.367   1.572  14.081  0.3716 -0.8636 -0.5151
  494TIP3   OH222896   4.686   6.151  12.335 -0.2413  0.5648  0.9007
  494TIP3    H122897   4.723   6.229  12.293  1.2268 -0.2448  0.6372
  494TIP3    H222898   4.697   6.168  12.429  0.3206  0.5670  0.8380
  495TIP3   OH222899   6.681   5.624  14.645  0.0680 -0.1133 -0.6529
  495TIP3    H122900   6.607   5.617  14.706  0.5152  0.1847 -0.0645
  495TIP3    H222901   6.753   5.657  14.699  0.5012  0.0538 -1.3241
  496TIP3   OH222902   5.973   5.469   5.212 -0.2128 -0.1701 -0.3508
  496TIP3    H122903   5.993   5.421   5.292 -1.1752  0.7443  0.4549
  496TIP3    H222904   5.966   5.560   5.240 -0.3557  0.1834 -1.5155
  497TIP3   OH222905   5.124   5.377   1.429 -0.3664  0.0877 -0.2429
  497TIP3    H122906   5.119   5.365   1.524  1.3834  0.4186 -0.0940
  497TIP3    H222907   5.041   5.341   1.396 -0.8006 -0.4268  1.3613
  498TIP3   OH222908   0.654   5.704  13.015  0.6620 -0.9139 -0.3537
  498TIP3    H122909   0.631   5.717  12.923  0.2267 -2.0963 -0.4245
  498TIP3    H222910   0.575   5.668  13.055  0.0984  1.7716  1.0137
  499TIP3   OH222911   5.726   2.908  16.114 -0.3175 -0.3626  0.0382
  499TIP3    H122912   5.779   2.856  16.053  0.9419 -1.6931  2.2091
  499TIP3    H222913   5.646   2.856  16.126 -1.3399  0.7264 -1.7482
  500TIP3   OH222914   3.991   1.005   4.999  0.0617  0.2102 -0.1079
  500TIP3    H122915   4.010   1.050   4.917 -0.9329 -0.3324 -0.6394
  500TIP3    H222916   3.914   1.049   5.034  0.7686  0.7588  0.7893
  501TIP3   OH222917   2.840   0.765  14.747  0.5226 -0.0339  0.3201
  501TIP3    H122918   2.928   0.734  14.768  0.4206 -0.4272  0.1789
  501TIP3    H222919   2.850   0.858  14.730  1.4808 -0.6644 -2.9198
  502TIP3   OH222920   5.501   1.831  12.599  0.0656 -0.2968 -0.0692
  502TIP3    H122921   5.479   1.761  12.538 -0.3932 -0.2992  0.1024
  502TIP3    H222922   5.549   1.787  12.669 -1.0863 -0.6022  0.5412
  503TIP3   OH222923   3.037   5.119  14.490 -0.2997 -0.3918  0.4791
  503TIP3    H122924   3.122   5.122  14.445 -2.4469  0.9206 -3.7364
  503TIP3    H222925   3.027   5.207  14.526 -1.2923  0.5265 -1.9413
  504TIP3   OH222926   0.603   1.323   2.164 -0.0274 -0.1499  0.3140
  504TIP3    H122927   0.576   1.357   2.079  0.5885  0.7822  0.4883
  504TIP3    H222928   0.630   1.233   2.147 -0.4725 -0.1519 -0.3711
  505TIP3   OH222929   5.425   1.700  11.085 -0.2739  0.0228  0.1476
  505TIP3    H122930   5.473   1.697  11.002  0.0973  0.3345  0.3504
  505TIP3    H222931   5.377   1.783  11.081 -2.2537 -1.1254 -0.8642
  506TIP3   OH222932   0.961   1.728  12.894 -0.2245  0.7646 -0.9541
  506TIP3    H122933   0.982   1.818  12.869  0.9446  0.5391 -0.8152
  506TIP3    H222934   0.900   1.737  12.968 -0.1850  1.4404 -0.9991
  507TIP3   OH222935   1.695   1.636  12.860 -0.4906  0.2113 -0.4470
  507TIP3    H122936   1.665   1.647  12.951  0.4722 -1.7770  0.1438
  507TIP3    H222937   1.616   1.615  12.811 -0.7182 -0.8734  0.3494
  508TIP3   OH222938   6.502   0.244  14.324 -0.3822 -0.1248 -0.1895
  508TIP3    H122939   6.534   0.251  14.234 -0.2172  1.5786 -0.0105
  508TIP3    H222940   6.500   0.150  14.342  2.1607 -0.3724 -1.0532
  509TIP3   OH222941   3.294   3.984  10.913  0.2878 -0.3730 -0.1962
  509TIP3    H122942   3.251   3.939  10.841  0.4297  0.8543 -1.0823
  509TIP3    H222943   3.268   4.076  10.902  2.0842  0.1765 -0.0061
  510TIP3   OH222944   3.429   1.681   5.110 -0.4243 -0.0837  0.4436
  510TIP3    H122945   3.508   1.647   5.067 -1.7394 -0.3657 -1.8446
  510TIP3    H222946   3.396   1.608   5.162  0.1943 -0.3246  0.4933
  511TIP3   OH222947   4.420   3.624  17.111  0.6783 -0.4063  0.2963
  511TIP3    H122948   4.444   3.636  17.019 -1.0931 -1.6296 -0.3689
  511TIP3    H222949   4.469   3.691  17.158  0.5844  1.1241 -1.7135
  512TIP3   OH222950   2.031   3.263   0.653  0.8090  0.2461  0.3432
  512TIP3    H122951   2.060   3.173   0.670  1.3079  0.4412  0.5164
  512TIP3    H222952   2.106   3.306   0.612 -0.3880 -0.2318 -2.5036
  513TIP3   OH222953   3.890   0.675   0.521  0.0488 -0.2951 -0.1636
  513TIP3    H122954   3.960   0.706   0.464  1.0985  0.5611  1.5423
  513TIP3    H222955   3.935   0.645   0.600 -1.5026  0.3031  0.9748
  514TIP3   OH222956   2.590   6.640  15.751  0.2240  0.6349 -0.3208
  514TIP3    H122957   2.632   6.671  15.831  1.3466 -1.2855 -0.1392
  514TIP3    H222958   2.524   6.706  15.731 -0.0561  1.1533  2.1791
  515TIP3   OH222959   5.501   2.650  13.583 -0.4318 -0.0452 -0.0719
  515TIP3    H122960   5.535   2.598  13.510  0.8775 -1.9313  1.7962
  515TIP3    H222961   5.406   2.652  13.570 -0.4617 -2.4884 -0.5160
  516TIP3   OH222962   0.249   3.898   4.207 -0.2790 -0.2962  0.2761
  516TIP3    H122963   0.194   3.830   4.244 -0.5336 -0.5502 -0.5431
  516TIP3    H222964   0.310   3.921   4.277  0.5661 -2.2009  0.1909
  517TIP3   OH222965   2.757   1.511  10.847 -0.5953  0.3147  0.2334
  517TIP3    H122966   2.696   1.498  10.920 -1.1298 -1.2546 -0.4468
  517TIP3    H222967   2.704   1.491  10.769  0.0145  1.7751 -0.5661
  518TIP3   OH222968   2.983   5.811   3.550  0.2335 -0.4421  0.0269
  518TIP3    H122969   3.032   5.875   3.498 -2.0953  0.0151 -1.6604
  518TIP3    H222970   3.039   5.733   3.552  1.9645  0.7786 -0.0465
  519TIP3   OH222971   4.985   2.091   4.435 -0.1475  0.4036  0.2822
  519TIP3    H122972   4.924   2.036   4.483 -0.8639  1.4141  0.5443
  519TIP3    H222973   4.930   2.141   4.374  0.5957  0.1337 -0.6205
  520TIP3   OH222974   2.960   0.970  11.148  0.2196 -0.4138  0.0032
  520TIP3    H122975   2.926   0.892  11.104 -1.3705  1.1260 -1.5844
  520TIP3    H222976   2.914   1.043  11.107 -0.0334  1.2259  3.0471
  521TIP3   OH222977   1.617   1.458   3.155 -0.4660 -0.1486  1.0575
  521TIP3    H122978   1.595   1.551   3.164 -1.8437 -0.4175  0.4567
  521TIP3    H222979   1.687   1.444   3.220 -0.8483  1.1044  1.7547
  522TIP3   OH222980   2.286   5.021   2.574 -0.2138  0.1088  0.4191
  522TIP3    H122981   2.196   5.032   2.605  0.0158  1.5926  0.5894
  522TIP3    H222982   2.340   5.061   2.642  0.4725  0.6499 -0.4297
  523TIP3   OH222983   6.452   1.696  11.869  0.1433  0.1100 -0.7676
  523TIP3    H122984   6.394   1.770  11.887  0.0506 -0.0683 -0.3182
  523TIP3    H222985   6.538   1.735  11.857 -0.0794  0.3824 -1.4953
  524TIP3   OH222986   4.109   1.544  15.468 -0.3807  0.0805  0.2081
  524TIP3    H122987   4.097   1.538  15.563  1.9276  2.1331  0.6842
  524TIP3    H222988   4.103   1.637  15.449 -1.4939 -0.3676 -1.7982
  525TIP3   OH222989   0.627   3.936   3.725  0.3468 -0.6036  0.3224
  525TIP3    H122990   0.612   3.852   3.682 -1.8464  1.8107 -4.0020
  525TIP3    H222991   0.721   3.952   3.715  0.6629 -2.2427  0.5980
  526TIP3   OH222992   6.138   1.178   0.516  0.0090  0.5170  0.5185
  526TIP3    H122993   6.124   1.172   0.421 -0.9927  0.7113  0.6473
  526TIP3    H222994   6.219   1.228   0.525  0.5603 -0.2328 -0.2563
  527TIP3   OH222995   3.929   1.484  14.051 -0.6840  0.4119  0.6310
  527TIP3    H122996   3.934   1.443  14.137 -2.6082 -0.9379  0.1424
  527TIP3    H222997   3.948   1.576  14.067  0.8105 -0.1433  2.2124
  528TIP3   OH222998   4.293   5.764  13.404  0.1095  0.1889  0.0197
  528TIP3    H122999   4.257   5.809  13.480  1.3851 -0.9345  1.3337
  528TIP3    H223000   4.386   5.789  13.403  0.3518 -0.6806 -0.4903
  529TIP3   OH223001   2.815   5.659   1.606 -0.2561 -0.3682 -0.1013
  529TIP3    H123002   2.755   5.696   1.670 -2.0621 -2.1529 -0.7248
  529TIP3    H223003   2.779   5.686   1.521  0.8360  0.0377 -0.4467
  530TIP3   OH223004   5.372   4.396  16.941  0.0678  0.1740 -0.2097
  530TIP3    H123005   5.288   4.350  16.950 -0.3195  1.2550  2.0376
  530TIP3    H223006   5.348   4.488  16.941  1.2939  0.5068  1.1293
  531TIP3   OH223007   2.261   4.903  14.661  0.5098  0.0645 -0.1400
  531TIP3    H123008   2.238   4.841  14.592 -1.6918  0.1969  0.4387
  531TIP3    H223009   2.256   4.852  14.742 -0.7031  0.8122  0.2750
  532TIP3   OH223010   0.485   0.763   0.248  0.4083 -0.2390  0.6815
  532TIP3    H123011   0.535   0.801   0.320  1.0309 -0.7122  0.5023
  532TIP3    H223012   0.549   0.747   0.179 -0.1663  0.1290  0.0469
  533TIP3   OH223013   2.261   0.236  12.393  0.7354  0.3868 -0.0702
  533TIP3    H123014   2.234   0.205  12.480  1.0266  1.4736  0.4087
  533TIP3    H223015   2.318   0.310  12.411  0.4860  0.8563 -1.2140
  534TIP3   OH223016   4.692   0.354  13.127  0.1792 -0.3344  0.2862
  534TIP3    H123017   4.645   0.415  13.183  0.2874  3.1169 -3.2182
  534TIP3    H223018   4.625   0.318  13.068  1.0321  0.9435 -1.5289
  535TIP3   OH223019   0.162   4.049  10.975 -0.3360  0.2776 -0.2560
  535TIP3    H123020   0.197   3.973  10.928  0.7129 -0.0689  1.0457
  535TIP3    H223021   0.228   4.117  10.962 -0.3014  0.3433  0.2602
  536TIP3   OH223022   1.795   1.726   1.864 -0.2761 -0.5444  0.0185
  536TIP3    H123023   1.749   1.703   1.783  0.7595 -0.8576 -0.4983
  536TIP3    H223024   1.864   1.660   1.872  0.4302  0.2325  0.4751
  537TIP3   OH223025   1.589   2.326  16.005 -0.5575 -0.9697 -0.2470
  537TIP3    H123026   1.541   2.251  15.971  0.1211 -1.2355 -0.6240
  537TIP3    H223027   1.571   2.325  16.099 -0.9305 -1.3276 -0.3230
  538TIP3   OH223028   3.129   2.489  12.341  0.0536  0.1392 -0.1557
  538TIP3    H123029   3.062   2.445  12.393  0.4098 -1.7467 -1.2333
  538TIP3    H223030   3.114   2.459  12.251 -0.5231  3.2932 -1.1924
  539TIP3   OH223031   2.165   1.023   2.785 -0.6864  0.7481 -0.3444
  539TIP3    H123032   2.103   0.982   2.845  0.8335  0.3110  0.9511
  539TIP3    H223033   2.149   0.980   2.701 -0.8949 -0.6533  0.3945
  540TIP3   OH223034   6.671   4.847  15.975 -0.0806  0.0059  0.2936
  540TIP3    H123035   6.765   4.849  15.992  0.2543 -0.9475 -1.2724
  540TIP3    H223036   6.659   4.908  15.902 -0.4145 -1.0883 -0.5782
  541TIP3   OH223037   3.401   0.237  12.507 -0.8620 -0.0483  0.3573
  541TIP3    H123038   3.337   0.306  12.486 -1.0667 -0.6288 -0.9788
  541TIP3    H223039   3.448   0.222  12.425 -1.5575 -2.2554  0.3345
  542TIP3   OH223040   0.380   3.028   2.665 -0.3679 -0.1843  0.0202
  542TIP3    H123041   0.356   3.116   2.696  0.9320 -0.5096  2.0695
  542TIP3    H223042   0.451   3.043   2.602  0.9352  0.1645  1.5426
  543TIP3   OH223043   3.314   6.297  15.767  0.0851 -0.1055 -0.4592
  543TIP3    H123044   3.371   6.339  15.703  0.1162  0.3478 -0.1370
  543TIP3    H223045   3.238   6.355  15.773 -0.1143 -0.3684 -0.4010
  544TIP3   OH223046   1.750   4.621  12.941  0.6244 -0.0885 -0.1137
  544TIP3    H123047   1.801   4.676  12.881  0.1881 -0.5486 -0.8997
  544TIP3    H223048   1.749   4.671  13.023 -1.2538  1.9018 -1.3226
  545TIP3   OH223049   3.779   4.953   4.375 -0.3264  0.2726  1.1015
  545TIP3    H123050   3.763   5.030   4.321 -2.6373 -1.1584 -0.2941
  545TIP3    H223051   3.761   4.983   4.464 -1.2815  1.3220  0.5716
  546TIP3   OH223052   1.111   5.797   1.520 -0.2736 -0.2604 -0.6387
  546TIP3    H123053   1.096   5.747   1.439  0.5922 -2.6265  0.6055
  546TIP3    H223054   1.128   5.730   1.586 -0.7254  1.6560  1.4667
  547TIP3   OH223055   6.044   6.098  16.947  0.3220 -0.9067 -0.1487
  547TIP3    H123056   6.001   6.148  17.017  0.7054 -0.1225 -0.4752
  547TIP3    H223057   5.978   6.035  16.919 -1.1900  1.2974 -1.7160
  548TIP3   OH223058   3.966   5.052  13.468  0.0869  0.6561 -0.4499
  548TIP3    H123059   3.899   5.113  13.501 -1.1583 -1.0841  0.3081
  548TIP3    H223060   3.934   5.027  13.381 -0.4706 -0.4581  0.0597
  549TIP3   OH223061   3.554   5.215   1.507 -0.2517 -0.0398 -0.1894
  549TIP3    H123062   3.462   5.240   1.499 -0.4493 -0.7312 -0.0928
  549TIP3    H223063   3.602   5.285   1.462 -0.7529  0.8586  0.6422
  550TIP3   OH223064   1.278   5.996  15.406  0.2165  0.0367 -0.3042
  550TIP3    H123065   1.328   6.019  15.484 -0.7197  0.3130  0.2255
  550TIP3    H223066   1.344   5.988  15.337  0.7671  2.7307 -0.1423
  551TIP3   OH223067   4.877   1.490   3.563 -0.1739 -0.1531 -0.9129
  551TIP3    H123068   4.888   1.408   3.613 -1.1629  0.3274  0.1134
  551TIP3    H223069   4.918   1.557   3.618 -1.5346  0.4317 -0.6012
  552TIP3   OH223070   6.090   4.843  13.453  0.8686 -0.1139 -0.1777
  552TIP3    H123071   6.107   4.841  13.359 -0.9050  0.5495 -0.5307
  552TIP3    H223072   6.098   4.935  13.478  2.0053 -0.3708  0.4697
  553TIP3   OH223073   1.159   5.768   2.341  0.5791 -0.2171  0.5183
  553TIP3    H123074   1.072   5.747   2.377 -0.1484 -0.0464 -1.0959
  553TIP3    H223075   1.206   5.685   2.342 -0.4049 -0.7961 -0.7397
  554TIP3   OH223076   0.590   6.688   4.491 -0.0718 -0.2272 -0.1840
  554TIP3    H123077   0.580   6.612   4.433  2.6819  0.6081 -1.8564
  554TIP3    H223078   0.538   6.757   4.449 -0.4261 -0.4355 -0.0906
  555TIP3   OH223079   6.440   5.093   4.123 -0.2235  0.3016  0.1224
  555TIP3    H123080   6.406   5.034   4.190  0.3883 -0.3641 -0.1371
  555TIP3    H223081   6.518   5.048   4.089  0.2023  1.2152 -0.1437
  556TIP3   OH223082   5.619   6.317   5.406 -0.3339  0.2109  0.2579
  556TIP3    H123083   5.690   6.276   5.455 -1.3993 -1.2083  0.6726
  556TIP3    H223084   5.612   6.264   5.326  0.4457  1.6281 -0.7690
  557TIP3   OH223085   6.380   0.599  15.618  0.0562 -0.5717  0.3703
  557TIP3    H123086   6.398   0.692  15.628 -0.3131 -0.2531 -1.6803
  557TIP3    H223087   6.457   0.564  15.574  0.1125 -1.1997  0.9572
  558TIP3   OH223088   5.247   4.840  14.820 -0.1634  0.4708 -0.6526
  558TIP3    H123089   5.229   4.903  14.890 -1.2084 -1.0375  0.4671
  558TIP3    H223090   5.164   4.832  14.773  0.5866  1.6116 -2.1874
  559TIP3   OH223091   1.560   6.115   0.362  0.0384  0.3776  0.8935
  559TIP3    H123092   1.528   6.025   0.375  1.5521 -0.0405  1.8576
  559TIP3    H223093   1.588   6.143   0.449  2.5725  0.6056  0.0261
  560TIP3   OH223094   0.603   5.947  14.305 -0.1374  0.2330  0.1111
  560TIP3    H123095   0.661   5.873  14.322 -0.4765 -0.7393 -2.6548
  560TIP3    H223096   0.552   5.957  14.385 -0.0261 -2.4873  0.5656
  561TIP3   OH223097   3.911   3.764  15.608  0.3857 -0.3789  0.1194
  561TIP3    H123098   3.988   3.807  15.646  1.1895 -0.2875 -1.5438
  561TIP3    H223099   3.932   3.671  15.614  1.3180 -0.3047 -1.6921
  562TIP3   OH223100   2.832   3.520   2.958  0.2412  0.4093 -0.1804
  562TIP3    H123101   2.849   3.465   2.882 -0.2752  0.7378 -0.5390
  562TIP3    H223102   2.841   3.461   3.033  1.6471  0.2854 -0.4317
  563TIP3   OH223103   3.508   2.661  12.414 -0.1081  0.4258  0.7586
  563TIP3    H123104   3.495   2.636  12.322 -0.8350  0.1195  0.9456
  563TIP3    H223105   3.591   2.709  12.414 -1.7678  3.3999 -0.6496
  564TIP3   OH223106   3.072   1.080  11.966 -0.4694  0.5758  0.0113
  564TIP3    H123107   3.069   1.167  11.928 -1.0361  0.7129  0.3559
  564TIP3    H223108   3.148   1.038  11.926  0.8867  1.8524  1.1827
  565TIP3   OH223109   0.648   3.168  14.248  0.1333 -0.2331  0.0766
  565TIP3    H123110   0.574   3.227  14.238 -0.4405 -0.5090  2.3833
  565TIP3    H223111   0.724   3.221  14.223 -0.6723  0.5370 -0.7687
  566TIP3   OH223112   2.712   1.876   4.521 -0.0217  0.2576 -0.2524
  566TIP3    H123113   2.667   1.946   4.474  0.9337  0.6351 -0.6293
  566TIP3    H223114   2.642   1.820   4.555 -0.7888  1.2804 -0.1229
  567TIP3   OH223115   1.348   3.272   0.610  0.2830  0.0491 -0.5103
  567TIP3    H123116   1.260   3.241   0.635 -0.8292  3.5458  0.2207
  567TIP3    H223117   1.380   3.317   0.688  0.6168  3.1177 -2.3241
  568TIP3   OH223118   5.730   6.483   4.731 -0.4822  0.1614  0.1783
  568TIP3    H123119   5.762   6.402   4.770 -2.4520 -1.5324 -1.6399
  568TIP3    H223120   5.808   6.539   4.727  1.0112 -1.7910  1.0137
  569TIP3   OH223121   2.165   6.501   5.162 -0.6293 -0.5032 -0.3208
  569TIP3    H123122   2.114   6.436   5.211 -1.4728  1.4214  1.4381
  569TIP3    H223123   2.138   6.488   5.071 -1.1133 -2.3026  0.0545
  570TIP3   OH223124   2.385   3.572  12.910  0.1265 -0.4971 -0.3242
  570TIP3    H123125   2.473   3.595  12.940 -0.2861 -0.2399  0.7166
  570TIP3    H223126   2.336   3.555  12.991 -0.5251 -1.5537 -0.9387
  571TIP3   OH223127   2.859   5.821   5.813  0.5285  0.0956  0.1208
  571TIP3    H123128   2.918   5.889   5.780 -0.8046  0.4365 -1.6565
  571TIP3    H223129   2.914   5.743   5.821  1.6802  0.9289  0.5150
  572TIP3   OH223130   5.107   2.242  13.242  0.4835 -0.6694  0.0312
  572TIP3    H123131   5.176   2.308  13.243  0.4991 -0.6885  0.9752
  572TIP3    H223132   5.082   2.232  13.334 -1.7518  0.3485 -0.4347
  573TIP3   OH223133   6.051   0.234  14.137 -0.3630  0.1175  0.4077
  573TIP3    H123134   6.108   0.231  14.214 -1.4607  0.0421  1.2369
  573TIP3    H223135   6.107   0.208  14.064  0.9413  1.1458  1.0291
  574TIP3   OH223136   0.783   3.567   4.280  0.8054 -0.1248  0.1299
  574TIP3    H123137   0.691   3.541   4.287  0.6180  0.6464  0.6254
  574TIP3    H223138   0.793   3.635   4.347  1.0928  1.5714 -1.6115
  575TIP3   OH223139   0.617   0.852  13.260  0.4172 -0.5159 -0.0550
  575TIP3    H123140   0.680   0.780  13.269  0.8277 -0.1267  0.2259
  575TIP3    H223141   0.557   0.840  13.334  0.6662 -0.3972  0.1706
  576TIP3   OH223142   0.542   1.849  13.047  0.1341  0.2656 -0.2506
  576TIP3    H123143   0.572   1.907  12.977 -0.4346 -0.4230 -1.0894
  576TIP3    H223144   0.458   1.884  13.074  0.6071  0.8485  0.4744
  577TIP3   OH223145   2.567   4.193  14.024  0.8995  0.0516  0.0207
  577TIP3    H123146   2.477   4.190  13.991  1.6030  0.9788 -2.0489
  577TIP3    H223147   2.566   4.135  14.100 -1.4342  0.0001 -0.0130
  578TIP3   OH223148   3.125   6.783   5.405 -0.4265 -0.1558  0.5872
  578TIP3    H123149   3.169   6.818   5.482 -1.7371  1.9466  0.4027
  578TIP3    H223150   3.035   6.768   5.434 -0.0993 -2.6603  0.4309
  579TIP3   OH223151   1.701   4.124  12.539 -0.4381 -0.3223 -0.2039
  579TIP3    H123152   1.749   4.207  12.535 -1.2432  0.1920  0.5490
  579TIP3    H223153   1.741   4.069  12.472  0.8157  0.3070  0.0155
  580TIP3   OH223154   3.044   4.214   0.580 -0.2463 -0.4790  0.0924
  580TIP3    H123155   2.990   4.137   0.564 -0.3005 -0.1371 -1.4212
  580TIP3    H223156   3.134   4.182   0.571 -0.0645 -1.3826  4.0553
  581TIP3   OH223157   1.662   5.375   6.307 -0.0093  0.3590 -0.2147
  581TIP3    H123158   1.695   5.426   6.232  1.7740  0.0334  0.3107
  581TIP3    H223159   1.653   5.439   6.377 -2.8519  0.8904 -1.0172
  582TIP3   OH223160   6.114   2.314   3.924  0.0841  0.2160 -0.4403
  582TIP3    H123161   6.049   2.244   3.918 -0.0599  0.4180 -1.2078
  582TIP3    H223162   6.071   2.391   3.885  0.5457  0.5157 -0.3640
  583TIP3   OH223163   5.697   2.987   5.223 -0.4801 -0.4998 -0.2119
  583TIP3    H123164   5.700   2.928   5.298  2.3238 -1.8995 -1.3622
  583TIP3    H223165   5.727   3.071   5.258 -1.8593 -0.4268  0.8281
  584TIP3   OH223166   0.583   2.757  15.507  0.0693  0.2242  0.5885
  584TIP3    H123167   0.649   2.779  15.441  0.3932  1.3588  1.2764
  584TIP3    H223168   0.547   2.841  15.535 -1.7634 -0.3817  0.1520
  585TIP3   OH223169   4.572   4.595  12.904  0.1347  0.4468  0.1064
  585TIP3    H123170   4.513   4.576  12.978 -1.3799  2.0480 -0.6641
  585TIP3    H223171   4.659   4.580  12.940 -0.6537 -0.4185  1.7546
  586TIP3   OH223172   2.600   4.898  10.710 -0.0475  0.1637  0.4045
  586TIP3    H123173   2.552   4.980  10.701 -1.6801 -0.7886  0.2433
  586TIP3    H223174   2.658   4.896  10.634  0.1690  1.2778  0.5382
  587TIP3   OH223175   2.288   2.068   1.700  0.1980 -0.0639  0.1001
  587TIP3    H123176   2.352   2.138   1.712  0.7524 -0.4305 -0.7597
  587TIP3    H223177   2.313   2.025   1.619 -1.1150 -0.2293 -0.2357
  588TIP3   OH223178   0.993   6.127   1.654 -0.3303 -0.2118  0.3435
  588TIP3    H123179   1.019   6.085   1.736 -0.9111 -2.7623 -0.7032
  588TIP3    H223180   0.954   6.210   1.679  3.7114  1.2340  2.3482
  589TIP3   OH223181   0.198   2.641  14.590  0.0993  0.7942  0.0598
  589TIP3    H123182   0.114   2.613  14.626 -0.1832  1.7456  0.1763
  589TIP3    H223183   0.256   2.650  14.666 -0.2264  1.8940  0.1903
  590TIP3   OH223184   3.793   6.701  15.241 -0.0573  0.3592 -0.4530
  590TIP3    H123185   3.841   6.767  15.191  0.2999 -0.4694 -1.2015
  590TIP3    H223186   3.701   6.726  15.231  0.0928  0.9148 -0.4817
  591TIP3   OH223187   1.174   6.616  13.148  0.1275 -0.1395  0.1620
  591TIP3    H123188   1.254   6.640  13.101  1.2163 -0.7929  1.6515
  591TIP3    H223189   1.121   6.696  13.145  1.6364  0.9208  0.7764
  592TIP3   OH223190   2.312   5.338  10.669  0.5898 -0.9970  0.0058
  592TIP3    H123191   2.264   5.421  10.676  2.6475  0.1345  1.1242
  592TIP3    H223192   2.281   5.286  10.744 -0.1970 -0.9931 -0.3087
  593TIP3   OH223193   2.986   4.677   1.504 -0.1737  0.1375 -0.0596
  593TIP3    H123194   3.005   4.728   1.425 -0.4954 -0.4613 -0.5311
  593TIP3    H223195   3.072   4.659   1.542  0.1976 -1.9380 -1.7950
  594TIP3   OH223196   0.437   0.268   4.177 -0.0968  0.5521  0.7456
  594TIP3    H123197   0.485   0.342   4.215  0.6887  1.6718 -2.2914
  594TIP3    H223198   0.357   0.306   4.143 -0.7439 -0.4114  1.1651
  595TIP3   OH223199   3.272   4.741   2.479  0.2040  0.2582  0.3302
  595TIP3    H123200   3.180   4.716   2.488  0.1149  0.4097 -0.1501
  595TIP3    H223201   3.317   4.661   2.454  0.1301  0.2853  0.1109
  596TIP3   OH223202   5.797   0.001  11.595  0.0468 -0.7365 -0.3997
  596TIP3    H123203   5.755   0.083  11.622 -0.4216 -1.6181  1.7073
  596TIP3    H223204   5.729  -0.066  11.606  0.9217 -1.6502 -0.4016
  597TIP3   OH223205   4.963   1.313  14.187 -0.3568  0.3357  0.1989
  597TIP3    H123206   4.893   1.367  14.150  0.0424 -0.0995 -1.2437
  597TIP3    H223207   5.036   1.374  14.199 -1.4405  1.1146  3.1525
  598TIP3   OH223208   5.820   1.067  13.764  0.4738  0.0361  0.2528
  598TIP3    H123209   5.734   1.090  13.730  0.0812 -1.9956 -0.1868
  598TIP3    H223210   5.814   1.082  13.858 -0.5292 -0.5611  0.2931
  599TIP3   OH223211   6.149   2.634  12.123 -0.3622 -0.2041  0.0899
  599TIP3    H123212   6.204   2.677  12.188  2.3370 -0.8280 -1.6953
  599TIP3    H223213   6.176   2.542  12.126 -0.3619 -0.2823 -1.7282
  600TIP3   OH223214   5.250   1.576   2.224  0.2277  0.0097  0.0066
  600TIP3    H123215   5.262   1.481   2.223 -1.1816 -0.2072  1.4323
  600TIP3    H223216   5.166   1.590   2.181  0.7145  0.6594 -0.7350
  601TIP3   OH223217   1.661   5.234   1.846 -0.4142  0.0317 -0.2033
  601TIP3    H123218   1.696   5.321   1.863  0.5766 -0.2765 -0.6604
  601TIP3    H223219   1.661   5.226   1.751  1.6370 -1.3195 -0.1163
  602TIP3   OH223220   3.709   3.212  15.639  0.1625  0.2047 -0.5625
  602TIP3    H123221   3.643   3.142  15.642  1.8440 -1.4644 -0.9194
  602TIP3    H223222   3.729   3.221  15.546  0.1964  0.9461 -0.4825
  603TIP3   OH223223   5.816   0.365   1.684 -0.4313 -0.1004 -0.5143
  603TIP3    H123224   5.748   0.420   1.645 -0.9721  0.2435  0.8744
  603TIP3    H223225   5.890   0.425   1.697 -0.3885 -0.1230 -0.6533
  604TIP3   OH223226   2.763   3.105   1.767  0.0787 -0.2553  0.2275
  604TIP3    H123227   2.802   3.132   1.684  0.2096 -0.5843  0.1818
  604TIP3    H223228   2.819   3.033   1.797 -0.4879 -0.7266  0.1652
  605TIP3   OH223229   6.670   3.681   1.508  0.5744 -0.1618 -0.2325
  605TIP3    H123230   6.754   3.639   1.526  1.6114  2.3996  1.1976
  605TIP3    H223231   6.629   3.690   1.594  1.3124  3.5466 -0.1792
  606TIP3   OH223232   4.196   6.757  11.244 -0.6104 -0.2522  0.3508
  606TIP3    H123233   4.117   6.777  11.293 -1.9661  0.9275 -2.2355
  606TIP3    H223234   4.233   6.843  11.222  0.5315 -0.7828  0.1333
  607TIP3   OH223235   1.001   3.602  12.001 -0.6193  0.3668 -0.0377
  607TIP3    H123236   1.007   3.608  12.097  1.5211 -0.6502 -0.0745
  607TIP3    H223237   0.961   3.517  11.985  0.3670 -0.1085 -0.0457
  608TIP3   OH223238   0.640   2.087  11.259 -0.0641 -0.2413  0.0308
  608TIP3    H123239   0.657   2.024  11.189 -0.6485  1.8798 -2.0524
  608TIP3    H223240   0.626   2.170  11.215  0.1745  1.2969  2.7088
  609TIP3   OH223241   1.622   5.961   1.008 -0.1166  0.0738  0.1062
  609TIP3    H123242   1.643   6.054   1.012 -0.2564  0.0906  0.5931
  609TIP3    H223243   1.646   5.928   1.095 -0.9792 -0.1381  0.2707
  610TIP3   OH223244   0.773   5.143   5.589 -0.0405 -0.0182  0.0399
  610TIP3    H123245   0.820   5.067   5.623 -1.8381 -1.8114 -1.3057
  610TIP3    H223246   0.745   5.191   5.666 -1.6434 -2.5028  1.0848
  611TIP3   OH223247   3.899   1.789   4.834  0.1575  0.6460  0.5493
  611TIP3    H123248   3.948   1.821   4.759 -1.0842 -1.9494 -1.4667
  611TIP3    H223249   3.957   1.725   4.875  0.4769  1.3985  1.2868
  612TIP3   OH223250   0.203   0.734   2.315  0.8166 -0.4746 -0.3945
  612TIP3    H123251   0.208   0.638   2.314 -0.2792 -0.6580  3.4798
  612TIP3    H223252   0.113   0.752   2.341  2.0430  1.5542  2.5926
  613TIP3   OH223253   5.754   1.689  11.089  0.6701  0.5286 -0.0749
  613TIP3    H123254   5.799   1.605  11.094  2.9886  1.7471  0.3121
  613TIP3    H223255   5.806   1.740  11.026 -1.0459  1.4705 -0.7537
  614TIP3   OH223256   1.692   2.463   6.373 -0.1973  0.3699 -0.4165
  614TIP3    H123257   1.654   2.397   6.315  0.8919  0.5910 -1.3956
  614TIP3    H223258   1.641   2.542   6.358 -0.9087  0.0073  0.0726
  615TIP3   OH223259   3.268   3.505   4.025  0.6533  0.0871 -0.4319
  615TIP3    H123260   3.243   3.588   3.984 -0.0601 -0.6054 -1.4170
  615TIP3    H223261   3.352   3.483   3.986 -0.0113 -0.5578 -1.5402
  616TIP3   OH223262   3.699   2.980   4.237  0.0408 -0.2077 -0.2937
  616TIP3    H123263   3.651   3.054   4.274 -0.3611 -1.2967  1.4071
  616TIP3    H223264   3.653   2.959   4.156 -0.5950  0.5937 -0.1429
  617TIP3   OH223265   4.741   3.398   3.347 -0.3368 -0.8417 -0.1086
  617TIP3    H123266   4.796   3.476   3.359  0.3243 -1.2733 -0.3139
  617TIP3    H223267   4.803   3.326   3.337 -0.9483 -1.5251  0.8967
  618TIP3   OH223268   0.186   0.063  16.824  0.1979 -0.8145 -0.4353
  618TIP3    H123269   0.097   0.080  16.792  0.1494  0.4301  0.3196
  618TIP3    H223270   0.232   0.028  16.747 -0.2708  0.9117 -1.5517
  619TIP3   OH223271   0.384   4.618   6.607  0.0573  0.1172  0.4887
  619TIP3    H123272   0.346   4.653   6.526 -2.6686  0.6802  1.9488
  619TIP3    H223273   0.392   4.695   6.665  0.5574 -0.5367  1.3001
  620TIP3   OH223274   2.196   1.087  12.213  0.4502  0.2347 -0.0272
  620TIP3    H123275   2.282   1.123  12.237  0.6385 -0.8897  1.0087
  620TIP3    H223276   2.215   1.020  12.148  0.5430 -1.2614  1.5028
  621TIP3   OH223277   6.050   1.065   2.402 -0.1134 -0.3009 -0.5459
  621TIP3    H123278   5.998   1.055   2.481 -0.2266 -1.1086 -0.7200
  621TIP3    H223279   5.986   1.072   2.331 -0.0650  2.3907 -0.3715
  622TIP3   OH223280   2.012   5.040   2.617 -0.4708 -0.1291 -0.4050
  622TIP3    H123281   1.941   4.975   2.619 -0.0858 -0.5426 -0.0476
  622TIP3    H223282   1.969   5.123   2.636 -1.0301 -0.2245 -1.2408
  623TIP3   OH223283   6.276   0.743   0.027 -0.6395 -0.0635  0.4300
  623TIP3    H123284   6.209   0.675   0.035 -1.7175  1.1295  1.9033
  623TIP3    H223285   6.274   0.768  -0.065 -2.1261 -0.1576  0.4254
  624TIP3   OH223286   2.738   2.370  15.560 -0.0582 -0.1099  0.0517
  624TIP3    H123287   2.767   2.337  15.645 -0.3507 -1.0495 -0.2120
  624TIP3    H223288   2.723   2.292  15.507  0.6571  0.4823 -1.0455
  625TIP3   OH223289   3.327   3.959   3.315 -0.0920  0.2389 -0.2724
  625TIP3    H123290   3.262   3.888   3.304 -0.3437  0.6012 -1.1525
  625TIP3    H223291   3.341   3.992   3.227  0.7196  0.6859  0.0239
  626TIP3   OH223292   3.309   2.056  15.749  0.0773  0.5726  0.7573
  626TIP3    H123293   3.301   1.961  15.753  1.9423  0.2355 -2.0607
  626TIP3    H223294   3.225   2.085  15.712 -0.4689  0.0335  1.5531
  627TIP3   OH223295   2.411   5.773   2.105 -0.1854  0.0169 -0.7296
  627TIP3    H123296   2.486   5.811   2.150 -1.1837 -0.5533  1.4888
  627TIP3    H223297   2.336   5.821   2.140 -0.7677  2.0233 -4.4419
  628TIP3   OH223298   2.122   3.617   1.197 -0.3514  0.0983 -0.0234
  628TIP3    H123299   2.037   3.636   1.238 -0.9532 -0.8869 -0.7821
  628TIP3    H223300   2.102   3.613   1.103  0.6942  0.6762 -0.2722
  629TIP3   OH223301   0.547   5.356   4.675  0.1046 -0.1199 -0.3965
  629TIP3    H123302   0.536   5.442   4.634 -0.9527  0.0199  0.1693
  629TIP3    H223303   0.561   5.375   4.768 -0.1168 -0.5512 -0.2718
  630TIP3   OH223304   2.595   1.907   5.952 -0.1746  0.4406 -0.3281
  630TIP3    H123305   2.616   1.924   5.860 -1.1834 -0.5447 -0.7437
  630TIP3    H223306   2.501   1.893   5.953  0.0893 -1.3867  0.5628
  631TIP3   OH223307   1.954   0.397   3.675 -0.4237 -0.2368 -0.3811
  631TIP3    H123308   1.996   0.442   3.747 -0.4012 -0.0710 -0.4987
  631TIP3    H223309   1.987   0.307   3.680 -2.1394 -0.8255  1.1956
  632TIP3   OH223310   2.698   1.905   3.020 -0.3593  0.0365 -0.1777
  632TIP3    H123311   2.684   1.978   3.080 -1.0011  0.4533 -0.8281
  632TIP3    H223312   2.635   1.919   2.950  0.7498 -0.1608 -1.2269
  633TIP3   OH223313   5.290   3.284   3.317 -0.8602 -0.3526 -0.1456
  633TIP3    H123314   5.345   3.215   3.280 -0.5747  0.2172 -0.7808
  633TIP3    H223315   5.276   3.257   3.408  4.7550  2.0975  1.6502
  634TIP3   OH223316   2.402   2.538   3.446  0.1714  0.5295  0.0337
  634TIP3    H123317   2.423   2.544   3.352 -1.5214  1.2283 -0.3193
  634TIP3    H223318   2.363   2.452   3.456  0.7191  0.2967  0.1767
  635TIP3   OH223319   3.548   0.185  12.282  0.4549  0.4503 -0.3985
  635TIP3    H123320   3.613   0.191  12.352  0.0865 -0.5719  0.0402
  635TIP3    H223321   3.516   0.095  12.287 -1.6491  1.2058 -0.0544
  636TIP3   OH223322   1.308   5.814   5.590  0.1211  0.5167 -0.0111
  636TIP3    H123323   1.242   5.861   5.539  0.2712  0.0838 -0.6174
  636TIP3    H223324   1.279   5.822   5.681 -1.0236 -0.0819 -0.3171
  637TIP3   OH223325   2.727   4.317   1.813  0.2542  0.0199 -0.2992
  637TIP3    H123326   2.765   4.389   1.762 -2.2437  0.3043 -1.8289
  637TIP3    H223327   2.715   4.353   1.901  1.4273  0.6057 -0.3591
  638TIP3   OH223328   0.755   0.729  15.752  0.2251  0.0492  0.9765
  638TIP3    H123329   0.827   0.788  15.728  1.2972 -0.7751  2.1265
  638TIP3    H223330   0.759   0.658  15.688 -2.1821  2.0393 -1.5352
  639TIP3   OH223331   2.338   3.347   4.603  0.5487  0.3626  0.4031
  639TIP3    H123332   2.417   3.376   4.557  0.5782  1.0750  0.8967
  639TIP3    H223333   2.371   3.307   4.684  0.3506  1.6997  1.1547
  640TIP3   OH223334   1.317   6.208  13.912  0.3639  0.0240  0.3391
  640TIP3    H123335   1.320   6.267  13.837  0.8990  1.0524  1.1488
  640TIP3    H223336   1.234   6.229  13.955  0.7136  0.4365  0.8187
  641TIP3   OH223337   2.547   2.833  14.997  0.1191 -0.4271  0.4734
  641TIP3    H123338   2.502   2.854  15.078  0.0541  1.3619 -0.0009
  641TIP3    H223339   2.640   2.842  15.017  0.2508 -2.9875  1.1455
  642TIP3   OH223340   6.626   4.426  12.896  0.2614 -0.3650 -0.1613
  642TIP3    H123341   6.719   4.437  12.917  0.3047  1.9381 -1.3471
  642TIP3    H223342   6.583   4.502  12.937 -0.4761  0.8966 -3.0846
  643TIP3   OH223343   5.887   1.606   5.350 -0.0799 -0.1082 -0.0117
  643TIP3    H123344   5.903   1.642   5.263 -0.4684  2.5976  0.9889
  643TIP3    H223345   5.793   1.590   5.353 -0.2341  0.8217  0.2684
  644TIP3   OH223346   2.818   2.573  13.156 -0.3995 -0.2818  0.2791
  644TIP3    H123347   2.739   2.597  13.205  0.6413 -0.1607  1.9412
  644TIP3    H223348   2.883   2.554  13.223  1.3096  0.6813 -1.0509
  645TIP3   OH223349   6.766   4.526  16.809 -0.3361  0.0556  0.5984
  645TIP3    H123350   6.813   4.609  16.807  0.2136 -0.1435  2.9875
  645TIP3    H223351   6.800   4.476  16.735  0.6619  1.2625  0.2455
  646TIP3   OH223352   2.601   1.586  12.644 -0.0180  0.0135  0.4238
  646TIP3    H123353   2.524   1.596  12.588  0.1817 -0.3301  0.0860
  646TIP3    H223354   2.645   1.508  12.611 -1.2453 -1.6847  2.6928
  647TIP3   OH223355   2.614   1.694   3.232 -0.4236 -0.1050 -0.8887
  647TIP3    H123356   2.619   1.761   3.165 -2.7012 -0.2216 -1.2208
  647TIP3    H223357   2.681   1.718   3.296 -0.7505  2.1032 -1.3505
  648TIP3   OH223358   1.857   4.551  11.471  0.1552  0.0491 -0.0093
  648TIP3    H123359   1.892   4.596  11.394 -1.4643  0.5597 -0.4609
  648TIP3    H223360   1.828   4.466  11.437  0.3015 -0.0939  0.2234
  649TIP3   OH223361   5.024   6.505  12.119 -0.0337 -0.6531 -0.1238
  649TIP3    H123362   5.055   6.562  12.049 -0.2012 -0.1030  0.2517
  649TIP3    H223363   5.101   6.489  12.173  0.0635 -0.9638 -0.3505
  650TIP3   OH223364   3.497   0.829   3.945 -0.3641 -0.3036 -0.3269
  650TIP3    H123365   3.463   0.867   4.026  1.4135 -0.8012  0.6663
  650TIP3    H223366   3.497   0.735   3.961  0.8967 -0.3481 -0.5264
  651TIP3   OH223367   4.666   2.568   0.757 -0.1145 -0.1080  0.1843
  651TIP3    H123368   4.721   2.647   0.756 -1.0045  0.5327  1.0436
  651TIP3    H223369   4.652   2.547   0.665 -0.8145  1.4063 -0.0734
  652TIP3   OH223370   0.701   0.773  16.918  0.2515 -0.2715 -0.1321
  652TIP3    H123371   0.630   0.709  16.917  0.7073 -0.7786  0.0372
  652TIP3    H223372   0.656   0.858  16.907 -0.2515 -0.6902 -1.4832
  653TIP3   OH223373   4.477   5.842   2.232  0.3448  0.1990  0.1172
  653TIP3    H123374   4.462   5.906   2.302 -1.6460 -1.5587  1.3635
  653TIP3    H223375   4.507   5.763   2.276  0.9635 -0.3370 -1.2217
  654TIP3   OH223376   4.692   5.877  14.336  0.2472  0.5480 -0.6540
  654TIP3    H123377   4.768   5.934  14.331  0.2001  0.7185  0.5667
  654TIP3    H223378   4.700   5.833  14.420 -0.1441 -0.6561 -1.2287
  655TIP3   OH223379   2.716   0.006   3.504 -0.3188  0.0023  0.0586
  655TIP3    H123380   2.728  -0.024   3.413  1.7067 -0.2950  0.4017
  655TIP3    H223381   2.641  -0.045   3.535 -0.8613 -0.1047 -1.3506
  656TIP3   OH223382   0.563   3.628   0.329 -0.5554  0.0118  0.4455
  656TIP3    H123383   0.486   3.645   0.384  0.2156 -1.5272  2.0580
  656TIP3    H223384   0.599   3.547   0.364  1.3003  0.2496 -0.8741
  657TIP3   OH223385   5.105   2.797  15.914  0.2483  0.2896  0.1611
  657TIP3    H123386   5.028   2.801  15.857  2.1520 -2.2088 -2.6911
  657TIP3    H223387   5.157   2.874  15.890 -0.8314  1.4537  1.4273
  658TIP3   OH223388   0.259   5.349  14.066  0.6229 -0.6078 -0.6198
  658TIP3    H123389   0.247   5.290  14.141  0.1448 -1.4429 -1.3522
  658TIP3    H223390   0.330   5.407  14.093 -0.1483 -0.3143  0.8413
  659TIP3   OH223391   4.304   1.352   4.993  0.3062  0.1308 -0.8140
  659TIP3    H123392   4.324   1.275   4.939  0.4615 -1.5676  1.5673
  659TIP3    H223393   4.229   1.392   4.951 -0.9986 -2.4553 -1.0770
  660TIP3   OH223394   1.604   3.931   2.891  0.3308  0.4628  0.2618
  660TIP3    H123395   1.658   3.928   2.971  0.1291  3.4152  0.5761
  660TIP3    H223396   1.645   3.999   2.838 -1.7110  1.1100 -0.5238
  661TIP3   OH223397   2.348   4.256  12.542 -0.1655  0.0733 -0.3340
  661TIP3    H123398   2.359   4.343  12.505  0.7824 -0.4826 -1.4061
  661TIP3    H223399   2.410   4.201  12.493  0.2789 -0.9200  1.2968
  662TIP3   OH223400   6.237   6.751  13.458 -0.7206 -0.0965 -0.1959
  662TIP3    H123401   6.218   6.817  13.526 -1.8103 -1.5966  0.9754
  662TIP3    H223402   6.270   6.676  13.507 -0.1873 -0.7017 -1.4751
  663TIP3   OH223403   2.486   6.485  15.548  0.6596 -0.5058 -0.8182
  663TIP3    H123404   2.410   6.433  15.575  1.8885 -2.4438 -0.9922
  663TIP3    H223405   2.510   6.534  15.626  0.1350 -1.0317 -0.3215
  664TIP3   OH223406   3.781   2.412  10.941 -0.3720  0.2377 -0.5041
  664TIP3    H123407   3.721   2.478  10.976  0.7171  0.4200  1.0781
  664TIP3    H223408   3.868   2.441  10.968  0.1954 -1.4218 -0.4572
  665TIP3   OH223409   0.253   5.262   4.426 -0.5277 -0.0276 -0.0575
  665TIP3    H123410   0.197   5.204   4.374  0.0763 -0.4556 -0.2296
  665TIP3    H223411   0.233   5.350   4.394  1.7286 -0.4694 -2.8546
  666TIP3   OH223412   5.880   4.969   5.895  0.3640 -0.2833 -0.1468
  666TIP3    H123413   5.965   4.992   5.857  0.0551  0.8593 -0.1560
  666TIP3    H223414   5.818   5.027   5.852 -0.3153 -0.5793  0.4276
  667TIP3   OH223415   6.674   0.851   2.560 -1.4227  0.1853  0.3348
  667TIP3    H123416   6.700   0.887   2.645 -1.5453  0.6754  0.1692
  667TIP3    H223417   6.656   0.928   2.506 -0.1538 -0.0830 -0.5107
  668TIP3   OH223418   0.291   3.145  14.589  0.4680  0.5470  0.3349
  668TIP3    H123419   0.346   3.076  14.625  0.7854  0.8049  0.3486
  668TIP3    H223420   0.315   3.224  14.639  0.7168  0.8468 -0.2608
  669TIP3   OH223421   0.778   6.572   3.648  0.5201 -0.8189  0.0817
  669TIP3    H123422   0.771   6.517   3.726  0.3184  1.9426  2.0655
  669TIP3    H223423   0.872   6.581   3.633  0.5616 -2.7697 -1.0967
  670TIP3   OH223424   4.655   2.860   0.675  0.3369 -0.7704 -0.4147
  670TIP3    H123425   4.685   2.944   0.642 -3.1273  0.6955 -0.0152
  670TIP3    H223426   4.627   2.812   0.597  0.4887 -0.7939 -0.4548
  671TIP3   OH223427   1.672   0.935  15.964 -0.1972  0.0988 -0.5454
  671TIP3    H123428   1.761   0.955  15.991 -0.4571 -0.5325  0.8425
  671TIP3    H223429   1.618   0.998  16.012 -0.7072 -1.3868  0.8960
  672TIP3   OH223430   5.975   2.520   0.232  0.4733 -0.0663 -0.0141
  672TIP3    H123431   5.898   2.486   0.276 -0.1846  2.0280  0.5008
  672TIP3    H223432   6.039   2.449   0.237 -0.7803 -1.1305  1.2089
  673TIP3   OH223433   4.654   2.511  11.026 -0.3213 -0.3487 -0.5217
  673TIP3    H123434   4.676   2.539  11.115 -1.3142 -1.3081  0.0369
  673TIP3    H223435   4.629   2.592  10.981 -1.7156 -0.1099  0.6432
  674TIP3   OH223436   5.794   2.671   4.512 -0.7959 -0.1719 -0.0768
  674TIP3    H123437   5.771   2.754   4.554  0.2190  0.4305 -0.6764
  674TIP3    H223438   5.828   2.616   4.583  1.8659  1.2000 -0.2395
  675TIP3   OH223439   2.063   1.216  13.236 -0.3916 -0.2647 -0.4485
  675TIP3    H123440   2.074   1.130  13.196  1.3485 -0.8053  1.1426
  675TIP3    H223441   2.103   1.276  13.173 -0.6806 -0.7272 -1.0846
  676TIP3   OH223442   1.121   4.089  12.678  0.5145  0.0395 -0.4191
  676TIP3    H123443   1.095   4.170  12.635  0.5751  0.1464 -0.2561
  676TIP3    H223444   1.160   4.036  12.608  4.3190  1.7854  0.2145
  677TIP3   OH223445   2.665   2.025  13.254 -0.8882 -0.0384 -0.7187
  677TIP3    H123446   2.704   1.977  13.327 -1.9167  1.6218  0.9682
  677TIP3    H223447   2.723   2.100  13.242 -1.7749  0.7102 -0.3482
  678TIP3   OH223448   6.566   2.208   3.595  0.5627  0.3236 -0.2559
  678TIP3    H123449   6.645   2.183   3.643  0.3018  1.0428  0.5447
  678TIP3    H223450   6.502   2.229   3.662 -0.0743  0.5021 -0.9132
  679TIP3   OH223451   2.230   2.198   2.196 -0.5409  0.5825 -0.8665
  679TIP3    H123452   2.141   2.190   2.229 -0.2127 -0.4214 -0.2121
  679TIP3    H223453   2.220   2.207   2.101 -1.2845 -0.7959 -0.9265
  680TIP3   OH223454   0.251   1.493   5.580 -0.1189  0.0276  0.5486
  680TIP3    H123455   0.158   1.479   5.559  0.9661 -3.7890 -2.2250
  680TIP3    H223456   0.260   1.461   5.670 -1.3167 -0.2586  0.5789
  681TIP3   OH223457   2.447   1.172  16.623 -0.9803 -0.0446 -0.7285
  681TIP3    H123458   2.412   1.098  16.672  0.2116 -0.3653 -0.3332
  681TIP3    H223459   2.540   1.175  16.648 -1.2382  2.2251  0.0658
  682TIP3   OH223460   1.689   5.892  15.890  0.4734 -0.9781 -0.3853
  682TIP3    H123461   1.753   5.822  15.907 -1.3838 -2.8759 -0.9864
  682TIP3    H223462   1.632   5.855  15.823 -1.1316  0.7739  0.0052
  683TIP3   OH223463   3.322   2.450   2.081 -0.3647 -0.3537  0.1603
  683TIP3    H123464   3.380   2.488   2.147  0.2271 -0.5794 -0.2246
  683TIP3    H223465   3.317   2.357   2.104 -0.7507 -0.2946  0.3209
  684TIP3   OH223466   2.639   6.102  11.491  0.0540  0.0484  0.0251
  684TIP3    H123467   2.595   6.185  11.510  1.1926  0.6776 -0.0555
  684TIP3    H223468   2.609   6.078  11.403 -2.0035 -0.7708  0.9040
  685TIP3   OH223469   6.281   4.738   3.855  0.2072  0.3357 -0.1639
  685TIP3    H123470   6.353   4.691   3.813  0.0954  1.0915 -1.2438
  685TIP3    H223471   6.314   4.828   3.865 -0.3104  0.5072  0.0085
  686TIP3   OH223472   4.345   2.553   5.648 -0.0911  0.0008  0.5156
  686TIP3    H123473   4.385   2.586   5.728 -0.5533  1.7523  0.0523
  686TIP3    H223474   4.266   2.606   5.637  0.8680  0.9677 -1.9975
  687TIP3   OH223475   3.953   5.189   3.936 -0.4673  0.2388  0.1623
  687TIP3    H123476   3.959   5.209   3.842 -1.8848  0.4320  0.1097
  687TIP3    H223477   3.984   5.269   3.979  0.5053  0.0334 -0.1348
  688TIP3   OH223478   5.978   2.351   5.845  0.3339  0.1578 -0.1196
  688TIP3    H123479   5.939   2.300   5.773 -1.4628  0.7775  0.3917
  688TIP3    H223480   5.903   2.393   5.887  1.5477  1.0758  1.1320
  689TIP3   OH223481   2.338   1.022  14.279  0.4531  0.3119  0.2096
  689TIP3    H123482   2.428   1.052  14.270  0.2523  0.9138  0.1903
  689TIP3    H223483   2.318   0.981  14.195 -0.2825  2.8668 -0.9171
  690TIP3   OH223484   0.110   5.699   5.282 -0.1958  0.3408  0.6789
  690TIP3    H123485   0.060   5.694   5.201  0.8325  0.4434  0.0212
  690TIP3    H223486   0.139   5.790   5.287  1.8992 -0.2439 -0.1863
  691TIP3   OH223487   1.543   6.497  12.117  0.3132 -0.0972  0.0309
  691TIP3    H123488   1.507   6.457  12.197  1.3763 -1.1456 -0.0033
  691TIP3    H223489   1.617   6.549  12.148 -0.2384  0.7729 -0.0946
  692TIP3   OH223490   0.454   1.960  14.179  0.2830 -0.0305  0.0093
  692TIP3    H123491   0.425   1.868  14.181  0.6504 -0.1435  0.2865
  692TIP3    H223492   0.455   1.983  14.086 -2.3846  0.5230  0.0675
  693TIP3   OH223493   6.356   0.853  12.932  0.6321  1.2314  0.4166
  693TIP3    H123494   6.287   0.882  12.872 -0.5637  1.3476  1.8047
  693TIP3    H223495   6.404   0.786  12.884 -2.0645 -0.7166  0.3059
  694TIP3   OH223496   4.940   2.986  10.426 -0.0937  0.0376  0.1891
  694TIP3    H123497   4.852   3.010  10.457 -0.6429 -0.2356 -1.1412
  694TIP3    H223498   4.963   3.056  10.365  1.4310  1.1357  1.9710
  695TIP3   OH223499   5.100   6.232  12.361 -0.5958  0.2314 -0.1082
  695TIP3    H123500   5.073   6.303  12.420 -2.8157  0.1301 -0.9794
  695TIP3    H223501   5.029   6.224  12.298  0.6850 -1.2517 -1.4026
  696TIP3   OH223502   2.406   4.209   2.926  0.3267  0.1169  0.2037
  696TIP3    H123503   2.492   4.187   2.891 -0.3660  0.1283 -1.5338
  696TIP3    H223504   2.398   4.155   3.004  1.8456  0.0087  0.3029
  697TIP3   OH223505   2.956   2.324   0.003 -0.2092  0.1714  0.2000
  697TIP3    H123506   2.980   2.234  -0.019 -0.9348  0.1180 -0.3848
  697TIP3    H223507   3.037   2.363   0.036  1.1197  0.4466 -3.1655
  698TIP3   OH223508   2.841   5.596   1.063  0.2965  0.4516  0.0957
  698TIP3    H123509   2.774   5.606   0.996  0.6104 -0.9048 -0.4377
  698TIP3    H223510   2.910   5.658   1.039 -0.0505  0.7018 -0.2494
  699TIP3   OH223511   3.936   1.816   1.670  0.0276  0.1476 -0.1370
  699TIP3    H123512   3.955   1.908   1.689 -2.3575  0.2590  1.9001
  699TIP3    H223513   3.845   1.816   1.642  0.0292 -1.6248 -0.1925
  700TIP3   OH223514   1.707   3.865  12.398 -0.1941  0.2549  0.8192
  700TIP3    H123515   1.790   3.844  12.355 -0.8016  0.6295 -0.5457
  700TIP3    H223516   1.729   3.866  12.491  1.3397  0.3379  0.4806
  701TIP3   OH223517   1.956   5.607   2.229 -0.4305  0.1212 -0.1023
  701TIP3    H123518   1.951   5.532   2.288 -1.4645  1.1239  1.1273
  701TIP3    H223519   2.035   5.592   2.177  0.2556 -1.0172  1.2345
  702TIP3   OH223520   0.777   3.244   2.734 -0.5876 -0.1713 -0.1905
  702TIP3    H123521   0.710   3.214   2.795 -0.5580 -0.8028 -0.4590
  702TIP3    H223522   0.845   3.176   2.738 -0.0102  0.4087  0.0063
  703TIP3   OH223523   0.126   2.130   2.974 -0.4629  0.7472  0.3258
  703TIP3    H123524   0.103   2.104   2.885  0.7154 -0.5187  0.3713
  703TIP3    H223525   0.211   2.088   2.989 -0.6416  0.9880  2.0252
  704TIP3   OH223526   3.687   2.638  16.574  0.0338  1.0354  0.1698
  704TIP3    H123527   3.734   2.605  16.651  1.4359  0.3251 -0.9699
  704TIP3    H223528   3.749   2.699  16.533  0.0823 -0.1085 -1.4937
  705TIP3   OH223529   2.460   6.326   1.620  0.1229  0.5439 -0.4090
  705TIP3    H123530   2.437   6.235   1.638 -0.6700  0.5538 -1.2753
  705TIP3    H223531   2.381   6.363   1.579  0.4448  1.6077 -0.0941
  706TIP3   OH223532   5.566   1.402  12.678 -0.6102 -0.0740  0.2557
  706TIP3    H123533   5.492   1.422  12.737  0.1293 -1.5504  1.7432
  706TIP3    H223534   5.643   1.423  12.730  0.0425  1.2145 -1.2098
  707TIP3   OH223535   1.520   3.471  13.354  0.2379 -0.5891 -0.1380
  707TIP3    H123536   1.567   3.392  13.325  0.6359 -0.0714 -0.9148
  707TIP3    H223537   1.503   3.520  13.273  0.7700  0.5525  0.4352
  708TIP3   OH223538   0.448   4.554   6.210  0.0478  0.0000  0.8157
  708TIP3    H123539   0.377   4.587   6.265  0.1046 -0.5177  1.2017
  708TIP3    H223540   0.517   4.530   6.272  0.0263 -0.7989  0.5376
  709TIP3   OH223541   1.106   2.970   4.458  0.3588 -0.9204 -0.0993
  709TIP3    H123542   1.052   2.898   4.424  1.6444 -0.6772 -2.7840
  709TIP3    H223543   1.196   2.938   4.449  0.9026  0.7160 -0.6056
  710TIP3   OH223544   2.285   6.583  12.615 -0.1081 -0.1345 -0.3395
  710TIP3    H123545   2.254   6.549  12.531  0.8698  1.6146 -1.4532
  710TIP3    H223546   2.218   6.557  12.678 -2.6050  1.4323 -2.2395
  711TIP3   OH223547   3.230   1.617   0.387  0.2029  0.1886  0.0874
  711TIP3    H123548   3.156   1.650   0.437 -0.5589  0.4163 -1.1755
  711TIP3    H223549   3.301   1.679   0.405  0.1124 -0.0497  1.3186
  712TIP3   OH223550   5.518   6.280  12.880 -0.0745 -0.0807 -0.0184
  712TIP3    H123551   5.443   6.338  12.893  0.9630  1.0894  0.8826
  712TIP3    H223552   5.576   6.329  12.822  0.0908 -0.8970 -0.5543
  713TIP3   OH223553   0.845   1.192  14.143  0.0089 -0.2950  0.1350
  713TIP3    H123554   0.938   1.213  14.139 -0.1797  0.1057 -2.4272
  713TIP3    H223555   0.805   1.270  14.182  0.3746  0.8000 -1.6171
  714TIP3   OH223556   0.682   3.715  14.602  0.7084 -0.4469  0.0493
  714TIP3    H123557   0.716   3.770  14.673 -1.9322 -0.1873  1.1696
  714TIP3    H223558   0.654   3.776  14.535 -0.0598 -0.5161  0.3011
  715TIP3   OH223559   1.639   3.462  12.964  0.4847  0.5118  0.1128
  715TIP3    H123560   1.575   3.457  12.893 -0.4514 -0.5999  1.0222
  715TIP3    H223561   1.717   3.417  12.929  0.5861  1.3515 -0.7740
  716TIP3   OH223562   0.764   1.306  12.652  0.3522  0.2175  0.1243
  716TIP3    H123563   0.745   1.240  12.719 -1.2253  0.9307  0.3876
  716TIP3    H223564   0.799   1.380  12.701  2.5939 -0.5571 -0.2173
  717TIP3   OH223565   3.876   0.194  13.832  0.0252 -0.0640  0.0310
  717TIP3    H123566   3.793   0.148  13.818  0.7679 -1.0356 -1.3063
  717TIP3    H223567   3.942   0.136  13.794  1.4707  0.1218  2.1199
  718TIP3   OH223568   6.399   5.468   4.851 -0.2676 -0.0007  0.8181
  718TIP3    H123569   6.433   5.401   4.792  0.4115  0.5601  0.5766
  718TIP3    H223570   6.334   5.421   4.904 -0.6813 -0.5738 -0.1712
  719TIP3   OH223571   6.129   3.396  12.166  0.0201  0.5048  0.2118
  719TIP3    H123572   6.088   3.339  12.230 -0.0629 -0.3423 -0.5800
  719TIP3    H223573   6.134   3.343  12.086  1.8194  0.8901  0.0364
  720TIP3   OH223574   0.488   1.272  12.466 -1.3204  0.2015  0.3830
  720TIP3    H123575   0.465   1.351  12.416 -2.9597 -0.1798  0.5083
  720TIP3    H223576   0.496   1.303  12.556 -0.9743  0.4159  0.2761
  721TIP3   OH223577   1.236   4.347   1.828  0.1244 -0.0366  0.2944
  721TIP3    H123578   1.310   4.300   1.790  0.6228  0.5257  0.5606
  721TIP3    H223579   1.206   4.291   1.900 -0.0876 -0.5478 -0.1934
  722TIP3   OH223580   4.084   4.810  14.391  0.3890  0.3122  0.0463
  722TIP3    H123581   4.080   4.726  14.344  0.4263  0.4976 -0.2908
  722TIP3    H223582   4.121   4.871  14.327  0.2013  0.6228  0.2356
  723TIP3   OH223583   3.382   6.232  11.356  0.2859 -0.0903  0.3295
  723TIP3    H123584   3.431   6.153  11.377 -0.2732  0.0002  1.9946
  723TIP3    H223585   3.352   6.217  11.266  0.2502 -1.7520  0.5912
  724TIP3   OH223586   2.423   1.535   5.371  0.2917 -0.4244  0.2218
  724TIP3    H123587   2.443   1.624   5.341  0.2437 -0.7028 -0.6704
  724TIP3    H223588   2.499   1.508   5.422 -0.9422  1.2390  3.0581
  725TIP3   OH223589   5.928   2.347   4.198 -0.1083  0.4898 -0.3615
  725TIP3    H123590   6.005   2.368   4.146 -0.5908  1.0937 -0.8262
  725TIP3    H223591   5.920   2.252   4.192  1.6069  0.2347  1.1009
  726TIP3   OH223592   4.349   0.939  10.766  0.1302  0.0271 -0.5115
  726TIP3    H123593   4.319   0.855  10.732 -1.7152 -0.0603  1.2281
  726TIP3    H223594   4.409   0.916  10.838 -0.8526  0.1617  0.3704
  727TIP3   OH223595   3.750   4.618   4.619  0.2269 -0.1020  0.4026
  727TIP3    H123596   3.781   4.698   4.662  0.6990  0.2824 -0.6454
  727TIP3    H223597   3.783   4.547   4.674 -0.2408  0.4147  1.3695
  728TIP3   OH223598   4.039   5.574  15.259 -0.4515 -0.0838 -0.2960
  728TIP3    H123599   4.108   5.522  15.218  0.1479  0.6213 -0.1901
  728TIP3    H223600   4.041   5.549  15.351 -0.5085 -0.2568 -0.3425
  729TIP3   OH223601   0.811   3.424   2.112 -0.4874  0.2568 -0.9680
  729TIP3    H123602   0.840   3.344   2.068 -0.5419 -0.2027 -0.1758
  729TIP3    H223603   0.720   3.436   2.083 -0.7130 -0.3664 -0.5262
  730TIP3   OH223604   1.057   1.763  16.692  0.4622 -0.2383 -0.5097
  730TIP3    H123605   0.992   1.823  16.656  0.5341  0.2736  0.2027
  730TIP3    H223606   1.008   1.708  16.753  0.2860 -1.2900 -1.5887
  731TIP3   OH223607   3.971   4.608   5.693  0.4688  0.1474 -0.1405
  731TIP3    H123608   3.989   4.609   5.787 -0.8253  1.3316  0.1142
  731TIP3    H223609   3.892   4.661   5.684  1.0715  0.7413 -2.0008
  732TIP3   OH223610   1.094   3.843   6.139 -0.3136  0.0562  0.6201
  732TIP3    H123611   1.081   3.846   6.234  1.5907  1.6350  0.8611
  732TIP3    H223612   1.053   3.761   6.112 -3.6580  1.0862  2.3308
  733TIP3   OH223613   1.328   4.128   2.549 -0.7131 -0.5498 -0.2023
  733TIP3    H123614   1.310   4.087   2.465  1.4145 -1.0042 -0.4694
  733TIP3    H223615   1.343   4.055   2.609  1.1016 -0.2057 -0.2161
  734TIP3   OH223616   6.771   4.825   5.445 -0.4898 -0.3589 -0.5323
  734TIP3    H123617   6.740   4.915   5.461  0.1606 -0.0190 -1.1525
  734TIP3    H223618   6.856   4.821   5.489  1.2328  0.5320 -3.6161
  735TIP3   OH223619   0.503   4.311  17.183 -0.5847  0.1039  0.1002
  735TIP3    H123620   0.542   4.292  17.098  1.6411  0.1269  1.0836
  735TIP3    H223621   0.487   4.225  17.222 -1.0674  0.1026 -0.0967
  736TIP3   OH223622   5.493   1.964  11.558  0.3250  1.1529  0.1205
  736TIP3    H123623   5.480   1.927  11.645 -1.0505  0.8265 -0.1998
  736TIP3    H223624   5.576   1.927  11.528 -1.0754 -1.9059 -0.2506
  737TIP3   OH223625   2.543   5.569  15.562 -0.1813  0.0732 -0.0786
  737TIP3    H123626   2.492   5.507  15.509  1.4283 -2.6640  1.4787
  737TIP3    H223627   2.509   5.559  15.651  1.2360  0.1857  0.4851
  738TIP3   OH223628   5.549   1.950   5.316 -0.6259  0.2890  0.5525
  738TIP3    H123629   5.492   1.952   5.240  1.5495  1.9854 -1.1099
  738TIP3    H223630   5.553   2.041   5.346  0.5735  0.0790  1.0893
  739TIP3   OH223631   1.618   4.828  11.326 -0.4051 -0.2709  0.2396
  739TIP3    H123632   1.570   4.910  11.316  0.2082  0.3290  2.0964
  739TIP3    H223633   1.600   4.800  11.416  2.1755 -0.3616  0.7632
  740TIP3   OH223634   0.664   0.090  17.237  0.2300 -0.5582  0.4459
  740TIP3    H123635   0.598   0.033  17.196 -0.2337  0.3235 -0.0357
  740TIP3    H223636   0.642   0.089  17.330  0.6192 -1.6874  0.5363
  741TIP3   OH223637   2.879   5.228  14.108  0.1747  0.2159 -0.2876
  741TIP3    H123638   2.973   5.220  14.123  0.4622 -0.5361 -2.3256
  741TIP3    H223639   2.870   5.313  14.064 -0.1732  0.5842  0.4970
  742TIP3   OH223640   0.546   4.184   4.364 -0.1245 -0.0260  0.2973
  742TIP3    H123641   0.587   4.097   4.363  0.7908  0.3976 -0.3542
  742TIP3    H223642   0.497   4.188   4.282 -0.5224 -0.0847  0.5286
  743TIP3   OH223643   2.302   4.366  16.775  0.2400 -0.4419  0.2058
  743TIP3    H123644   2.334   4.450  16.740  0.7859  0.6297  3.1043
  743TIP3    H223645   2.382   4.317  16.794  0.0747  0.1295  2.5166
  744TIP3   OH223646   2.196   4.330  10.302  0.2483  0.3761 -0.5569
  744TIP3    H123647   2.249   4.388  10.356 -0.1738  0.2057  0.0497
  744TIP3    H223648   2.118   4.313  10.354 -0.1256  0.1361 -1.1880
  745TIP3   OH223649   1.129   4.190   3.497  0.2339  0.0421 -0.2336
  745TIP3    H123650   1.128   4.129   3.423  1.4987  1.6316 -1.5882
  745TIP3    H223651   1.186   4.261   3.469  1.4095  0.2914  2.6077
  746TIP3   OH223652   5.459   6.552   2.389  0.4013 -0.1266  0.6058
  746TIP3    H123653   5.417   6.637   2.388 -0.2533 -0.4364 -1.9250
  746TIP3    H223654   5.502   6.545   2.303  0.4901 -2.2974  0.7894
  747TIP3   OH223655   2.923   3.311   4.428 -0.4155 -0.0974  0.1551
  747TIP3    H123656   2.905   3.332   4.337 -1.7101 -0.7014  0.2642
  747TIP3    H223657   3.018   3.304   4.432 -0.4560 -2.8137 -1.7939
  748TIP3   OH223658   6.440   3.959  17.150 -0.9458  0.3810  0.1317
  748TIP3    H123659   6.486   4.034  17.112 -4.8066  3.5787  1.4851
  748TIP3    H223660   6.384   3.926  17.079  0.5366 -1.1539 -0.3747
  749TIP3   OH223661   5.312   4.787   3.068 -0.1212  0.2282  0.2144
  749TIP3    H123662   5.330   4.879   3.087 -1.1746  0.7404 -1.1992
  749TIP3    H223663   5.301   4.783   2.973 -1.8190 -1.0330  0.4307
  750TIP3   OH223664   4.843   3.652  15.392  0.0902 -0.7846 -0.1202
  750TIP3    H123665   4.909   3.610  15.337 -0.1478 -1.2153 -0.0800
  750TIP3    H223666   4.868   3.745  15.393  0.9957 -1.0223  0.3220
  751TIP3   OH223667   2.124   1.833   0.857  0.3509 -0.2981  0.9212
  751TIP3    H123668   2.134   1.896   0.929  0.4120 -0.5752  1.1541
  751TIP3    H223669   2.193   1.856   0.796  0.2290  0.0114  0.8956
  752TIP3   OH223670   5.977   3.547  15.574 -0.0338 -0.0833  0.0925
  752TIP3    H123671   5.883   3.566  15.575  0.1336  0.7933 -0.3460
  752TIP3    H223672   6.018   3.629  15.544  1.0507  0.3533  2.6257
  753TIP3   OH223673   6.246   4.354   2.729 -0.2933  0.6847 -0.0089
  753TIP3    H123674   6.160   4.372   2.766 -0.2974 -1.1174  0.9465
  753TIP3    H223675   6.295   4.316   2.802 -0.4031 -3.2799 -1.8825
  754TIP3   OH223676   2.091   4.521   3.905 -0.1952 -0.7251 -0.3602
  754TIP3    H123677   2.125   4.533   3.994  0.2139 -2.2113 -0.2983
  754TIP3    H223678   2.008   4.474   3.918 -0.0394 -1.1153 -0.7641
  755TIP3   OH223679   4.209   1.492   4.264 -0.3882  0.8009  0.0608
  755TIP3    H123680   4.240   1.470   4.352 -0.8354 -0.5756 -0.1113
  755TIP3    H223681   4.208   1.587   4.262 -0.0174  0.8448  1.4246
  756TIP3   OH223682   3.384   3.262   5.960 -0.2229  0.1309 -0.1965
  756TIP3    H123683   3.432   3.227   6.034 -0.8839 -0.3794 -0.0073
  756TIP3    H223684   3.344   3.186   5.918  0.0659  0.4199 -1.0273
  757TIP3   OH223685   3.894   3.658  14.296 -0.1472 -0.1895 -0.4174
  757TIP3    H123686   3.800   3.674  14.295  0.0114  0.7639 -1.3403
  757TIP3    H223687   3.932   3.735  14.253  1.0509 -0.5656 -0.0562
  758TIP3   OH223688   3.103   3.572   6.204 -0.2269  0.0309 -0.0575
  758TIP3    H123689   3.136   3.629   6.275  4.0118  1.1698 -2.7600
  758TIP3    H223690   3.131   3.484   6.229 -0.5324  0.1400  0.6784
  759TIP3   OH223691   5.682   6.776  16.472  0.4114 -0.2426  0.0723
  759TIP3    H123692   5.731   6.809  16.397 -0.6803  0.4708 -0.3299
  759TIP3    H223693   5.612   6.723  16.434 -0.6938  0.8644  0.5361
  760TIP3   OH223694   3.615   2.898   2.634  1.0807 -0.0304  0.4035
  760TIP3    H123695   3.670   2.967   2.671  1.3410  0.1665 -0.3572
  760TIP3    H223696   3.616   2.829   2.700  1.3006  0.4440  0.9018
  761TIP3   OH223697   2.420   3.352  10.952  0.4158  0.0151  0.1867
  761TIP3    H123698   2.458   3.266  10.972 -1.5523 -0.3481  2.6389
  761TIP3    H223699   2.495   3.408  10.934  1.8400 -1.8053  0.3568
  762TIP3   OH223700   2.278   6.536  15.948  0.2741 -0.1151  0.2401
  762TIP3    H123701   2.303   6.444  15.937  0.2868 -0.2076  0.9968
  762TIP3    H223702   2.183   6.537  15.939  0.3821 -0.0255 -0.9214
  763TIP3   OH223703   5.587   5.375  15.836  0.8882  0.1898  0.1024
  763TIP3    H123704   5.579   5.365  15.931  0.4993 -0.4540  0.0100
  763TIP3    H223705   5.604   5.468  15.822 -1.8123  0.8149  0.6492
  764TIP3   OH223706   4.117   5.060   6.270 -0.1380  0.7361  0.5140
  764TIP3    H123707   4.169   4.987   6.238  1.6289  2.3889 -0.4838
  764TIP3    H223708   4.182   5.123   6.304 -1.4715  2.7543 -0.5829
  765TIP3   OH223709   2.334   0.132  11.874 -0.3040 -0.3115  0.2977
  765TIP3    H123710   2.263   0.098  11.927 -0.6527 -1.8785 -1.1347
  765TIP3    H223711   2.382   0.055  11.845  0.5980  0.5882 -0.6517
  766TIP3   OH223712   1.777   0.517   0.104 -0.1041  0.0822  0.4436
  766TIP3    H123713   1.754   0.425   0.108  1.3919 -0.2852  1.1494
  766TIP3    H223714   1.756   0.544   0.014 -1.3632 -0.6999  0.4959
  767TIP3   OH223715   1.986   4.232   2.768 -0.4259  0.9294 -0.3579
  767TIP3    H123716   1.928   4.305   2.746  0.9024  1.8982 -0.6885
  767TIP3    H223717   2.054   4.271   2.823  0.1740 -0.1118 -0.3526
  768TIP3   OH223718   1.820   1.250   0.794  0.5825  0.7111  0.2615
  768TIP3    H123719   1.812   1.345   0.787  0.2586  0.6067 -0.7965
  768TIP3    H223720   1.868   1.224   0.716  1.1925  0.0580  0.8414
  769TIP3   OH223721   4.882   6.165  15.926  0.1798  0.1484  0.1962
  769TIP3    H123722   4.818   6.236  15.922 -0.8059 -0.8166 -2.6049
  769TIP3    H223723   4.840   6.098  15.979  0.2668  0.8393  1.1507
  770TIP3   OH223724   4.148   4.158  12.779  0.0150 -0.1421 -0.0445
  770TIP3    H123725   4.074   4.217  12.781 -0.4280 -0.7308  1.4875
  770TIP3    H223726   4.165   4.144  12.686 -0.9136  1.0751 -0.4060
  771TIP3   OH223727   0.621   6.117  10.576 -0.1535 -0.8634 -0.1664
  771TIP3    H123728   0.707   6.093  10.541  0.5568  0.7907  0.4146
  771TIP3    H223729   0.639   6.185  10.640 -1.8643 -0.8361  0.3116
  772TIP3   OH223730   4.576   3.802  13.727  0.2464  0.1408  0.1801
  772TIP3    H123731   4.589   3.896  13.722 -1.4745  0.4629  1.5819
  772TIP3    H223732   4.511   3.789  13.796  1.2111 -2.1335  0.7454
  773TIP3   OH223733   5.172   4.648   1.073 -0.5003  0.6454  0.6192
  773TIP3    H123734   5.171   4.717   1.140 -0.3575  1.2012  0.0508
  773TIP3    H223735   5.196   4.693   0.992 -2.8194  0.3890 -0.2677
  774TIP3   OH223736   3.148   4.829  13.628 -0.2682  0.6450  0.1287
  774TIP3    H123737   3.128   4.817  13.721 -0.9976  0.7040 -0.0229
  774TIP3    H223738   3.223   4.890  13.628 -0.6609  1.1364  0.6565
  775TIP3   OH223739   4.525   1.319  11.531  0.3523 -0.2197  0.1554
  775TIP3    H123740   4.503   1.227  11.530 -0.5813  0.0045  0.0357
  775TIP3    H223741   4.545   1.339  11.623 -0.9115 -0.1927  0.4275
  776TIP3   OH223742   3.154   0.491  13.916  0.3246 -0.0160  0.0577
  776TIP3    H123743   3.249   0.486  13.907  0.4398 -0.7330  1.4637
  776TIP3    H223744   3.140   0.530  14.002 -0.6751  1.3414 -0.6901
  777TIP3   OH223745   5.835   5.301  13.854  0.1844  0.5527 -0.3202
  777TIP3    H123746   5.883   5.326  13.775  1.7513 -2.4298 -0.3970
  777TIP3    H223747   5.902   5.296  13.922 -0.4611 -0.9743  0.2185
  778TIP3   OH223748   0.106   5.905  12.407  0.1205 -0.0236  0.5824
  778TIP3    H123749   0.062   5.974  12.358  1.9224  0.3490 -0.5537
  778TIP3    H223750   0.093   5.929  12.499 -2.1150  0.0017  0.2935
  779TIP3   OH223751   3.057   0.424   5.535  0.1531 -0.7765 -0.1675
  779TIP3    H123752   2.967   0.399   5.514  0.0135 -1.1107  0.7795
  779TIP3    H223753   3.110   0.382   5.467 -0.5007  0.3852 -1.3974
  780TIP3   OH223754   0.520   6.010  16.539 -0.2912 -0.1076  0.4131
  780TIP3    H123755   0.579   5.952  16.586  1.5615  1.8753  0.6003
  780TIP3    H223756   0.490   5.958  16.464  0.3403 -1.6980  1.2393
  781TIP3   OH223757   2.678   5.620  12.548  0.4559 -0.1794  0.7447
  781TIP3    H123758   2.674   5.532  12.587 -2.5704  0.5513  2.2048
  781TIP3    H223759   2.756   5.659  12.588  1.4372 -1.9231  0.6230
  782TIP3   OH223760   0.094   0.369  15.359  0.4466  0.2247 -0.4399
  782TIP3    H123761   0.115   0.425  15.434 -1.1097 -0.0514  0.2224
  782TIP3    H223762   0.080   0.283  15.396 -1.2419  0.2804 -0.9154
  783TIP3   OH223763   3.775   5.644  16.415  0.0219 -0.4036 -0.2214
  783TIP3    H123764   3.756   5.593  16.336  0.9965  0.3646 -0.9693
  783TIP3    H223765   3.735   5.729  16.399 -2.7323 -1.3108  1.5801
  784TIP3   OH223766   1.791   1.211   0.103  0.2678 -0.3802  0.3125
  784TIP3    H123767   1.759   1.196   0.014  1.8234 -1.0710 -0.1359
  784TIP3    H223768   1.885   1.194   0.099  0.0683 -2.3735  2.5105
  785TIP3   OH223769   6.386   1.880   3.799  0.0910  0.1364  0.4745
  785TIP3    H123770   6.474   1.914   3.807  0.5423 -0.5229 -1.4603
  785TIP3    H223771   6.396   1.785   3.802 -0.4367  0.0341 -0.8343
  786TIP3   OH223772   6.132   1.087   0.863 -0.2197 -0.1808  0.6582
  786TIP3    H123773   6.067   1.150   0.895  0.7696  1.6087 -0.7127
  786TIP3    H223774   6.118   1.085   0.768  0.8285 -0.7874  0.5152
  787TIP3   OH223775   4.160   6.489   0.191  0.5876  0.3566  0.1863
  787TIP3    H123776   4.179   6.500   0.098  0.2908  0.2399  0.1096
  787TIP3    H223777   4.245   6.491   0.234  0.7659 -0.1203 -0.1432
  788TIP3   OH223778   6.027   2.997  13.003 -0.1866  0.6823 -0.5901
  788TIP3    H123779   5.934   2.994  13.026 -0.0569 -0.2323 -0.1718
  788TIP3    H223780   6.055   2.906  13.003  0.4305  0.8603 -1.9099
  789TIP3   OH223781   5.861   4.109  12.310  0.4744  0.3892 -0.1599
  789TIP3    H123782   5.830   4.142  12.394 -0.4046  1.5190 -0.9055
  789TIP3    H223783   5.917   4.179  12.276 -2.0244  1.5257 -2.1150
  790TIP3   OH223784   4.308   4.521  16.251  0.1054  0.2202  0.3927
  790TIP3    H123785   4.312   4.606  16.206  0.3146  0.0284  0.0565
  790TIP3    H223786   4.398   4.489  16.251  0.2340  0.5284  1.5492
  791TIP3   OH223787   6.362   1.139   1.006  0.2933 -0.4954 -0.5794
  791TIP3    H123788   6.285   1.103   0.961 -0.8528  0.3737  0.6405
  791TIP3    H223789   6.421   1.065   1.016 -1.0514 -1.5353 -0.1554
  792TIP3   OH223790   4.583   3.278   1.593  0.7747  0.0016  0.4654
  792TIP3    H123791   4.549   3.336   1.525  1.1881 -0.0084  0.2505
  792TIP3    H223792   4.591   3.193   1.551  2.2460  0.2839  0.1633
  793TIP3   OH223793   5.098   3.348   6.465  0.3021 -0.0135 -0.3438
  793TIP3    H123794   5.120   3.295   6.389  0.1438  1.1883 -1.2332
  793TIP3    H223795   5.005   3.333   6.479  0.0874  0.6132 -1.0617
  794TIP3   OH223796   3.160   2.284   3.099 -0.0675  0.3206 -0.3766
  794TIP3    H123797   3.173   2.191   3.083  0.6264  0.3599 -0.0609
  794TIP3    H223798   3.184   2.297   3.191  0.3130  0.8978 -0.5506
  795TIP3   OH223799   2.067   1.242   6.515 -0.3369  0.3268  0.0434
  795TIP3    H123800   2.138   1.264   6.455  0.2470 -0.6153  0.3694
  795TIP3    H223801   2.085   1.151   6.540 -1.6709  0.0804  0.1100
  796TIP3   OH223802   4.539   6.073  17.104 -0.1561 -0.0801  0.1695
  796TIP3    H123803   4.484   6.076  17.182 -0.7315  1.8640 -0.2832
  796TIP3    H223804   4.628   6.081  17.136 -0.5067  2.9765  0.5207
  797TIP3   OH223805   2.027   0.719  14.586  0.2880 -0.0342  0.0544
  797TIP3    H123806   1.992   0.737  14.673  0.2082  2.7573 -0.5074
  797TIP3    H223807   2.019   0.624  14.576 -0.8152 -0.2503  2.5965
  798TIP3   OH223808   1.465   3.058  11.831  0.3641  0.5690 -0.7076
  798TIP3    H123809   1.537   3.114  11.861  1.8751 -1.5729 -0.1250
  798TIP3    H223810   1.386   3.109  11.846  1.6399  2.2988  0.3261
  799TIP3   OH223811   5.803   1.827   4.867  0.5354 -0.0115  0.2357
  799TIP3    H123812   5.819   1.873   4.785 -1.5109  0.8122  0.2764
  799TIP3    H223813   5.732   1.874   4.908 -0.6347 -2.3336  0.9730
  800TIP3   OH223814   5.869   4.522  14.306 -0.4002  0.4871  0.0718
  800TIP3    H123815   5.863   4.609  14.347 -0.0866  0.4581  0.1826
  800TIP3    H223816   5.785   4.511  14.261 -0.1744  1.1327 -0.5042
  801TIP3   OH223817   4.093   1.918  12.616  0.1817  0.1583 -0.7115
  801TIP3    H123818   4.033   1.912  12.542  1.3875 -0.6146 -1.6372
  801TIP3    H223819   4.128   2.007  12.613  1.2233 -0.2858 -1.8526
  802TIP3   OH223820   0.026   6.490  15.531 -0.1609 -0.0318 -0.4283
  802TIP3    H123821  -0.031   6.502  15.607  0.5017 -0.5454  0.1725
  802TIP3    H223822  -0.018   6.534  15.459 -1.0600  0.0044  0.1438
  803TIP3   OH223823   2.786   4.915   2.557 -0.5816  0.2329  0.2953
  803TIP3    H123824   2.703   4.867   2.551 -0.5859  0.4138 -1.6820
  803TIP3    H223825   2.766   4.992   2.609 -0.6421 -1.7587  3.3257
  804TIP3   OH223826   1.896   0.344   4.931  0.5583  0.6863 -0.2809
  804TIP3    H123827   1.912   0.412   4.865 -0.0876  1.1011 -0.0107
  804TIP3    H223828   1.888   0.391   5.013  1.5031  0.1541  0.1284
  805TIP3   OH223829   4.182   0.124   6.449  0.1259  0.2032 -0.2739
  805TIP3    H123830   4.146   0.044   6.487 -1.4196  1.2964  0.6369
  805TIP3    H223831   4.122   0.144   6.376  0.6596  0.3945 -0.6603
  806TIP3   OH223832   2.855   6.051  14.045  0.3163 -0.2236  0.5478
  806TIP3    H123833   2.908   6.089  14.115  1.7807 -0.8550 -0.1998
  806TIP3    H223834   2.765   6.074  14.068  0.7809 -0.3297  2.5854
  807TIP3   OH223835   5.561   5.022   0.003  0.3402 -0.1745 -0.1585
  807TIP3    H123836   5.509   5.100   0.022 -0.7008 -0.8963  0.0456
  807TIP3    H223837   5.555   4.970   0.084  0.6477 -0.6677 -0.4514
  808TIP3   OH223838   0.856   3.255   5.009 -0.5907  0.1231  0.3838
  808TIP3    H123839   0.818   3.341   4.992  0.7184  0.7030  0.2935
  808TIP3    H223840   0.948   3.264   4.983 -0.3495 -1.1933  0.7295
  809TIP3   OH223841   2.776   1.295   3.678 -1.2080 -0.0934 -0.3464
  809TIP3    H123842   2.862   1.323   3.710 -0.0241 -1.2608 -2.4176
  809TIP3    H223843   2.748   1.229   3.741 -0.7540  0.5122  0.5164
  810TIP3   OH223844   6.069   6.499  16.953  0.0639  0.3298  0.6433
  810TIP3    H123845   6.135   6.511  16.885 -2.8378 -1.6916 -2.6738
  810TIP3    H223846   6.084   6.411  16.987 -0.0483  0.4170  0.9263
  811TIP3   OH223847   2.449   5.342  10.416 -0.3733  0.1768 -0.2657
  811TIP3    H123848   2.367   5.339  10.466 -0.3101  0.0480 -0.1722
  811TIP3    H223849   2.447   5.428  10.373 -0.9281 -0.1377 -0.8837
  812TIP3   OH223850   4.886   6.294  14.149 -0.1501  0.5734 -0.0202
  812TIP3    H123851   4.795   6.320  14.166 -0.9471 -2.4679  0.6192
  812TIP3    H223852   4.918   6.359  14.087 -1.5489  3.9380  2.5644
  813TIP3   OH223853   4.529   5.262  16.489 -0.6327  0.3644 -0.5670
  813TIP3    H123854   4.473   5.339  16.484 -0.9642  0.1623 -0.0065
  813TIP3    H223855   4.483   5.195  16.439 -0.9250  0.1829 -0.0626
  814TIP3   OH223856   5.881   1.887   1.840  0.0633  0.1832  0.7961
  814TIP3    H123857   5.851   1.945   1.770 -0.1449 -2.0863 -1.0627
  814TIP3    H223858   5.801   1.855   1.882 -0.0144 -1.8566 -0.8192
  815TIP3   OH223859   6.668   1.873  16.036 -0.2457 -0.1606  0.5294
  815TIP3    H123860   6.659   1.804  16.102  0.7039 -0.4440  0.3676
  815TIP3    H223861   6.759   1.902  16.043 -0.7458  1.3661  0.8762
  816TIP3   OH223862   5.330   0.295  16.288  0.2018  0.7415 -0.3873
  816TIP3    H123863   5.369   0.383  16.286 -0.0243  0.8566  0.1403
  816TIP3    H223864   5.384   0.247  16.350 -0.2461  0.7812  0.0340
  817TIP3   OH223865   6.062   0.730   4.782 -0.2721  0.6237  0.3602
  817TIP3    H123866   6.072   0.816   4.824 -1.2257  0.4524  0.9567
  817TIP3    H223867   6.001   0.683   4.839 -0.5196 -0.0958 -0.4928
  818TIP3   OH223868   5.924   1.239  14.825 -0.4574  0.2716  0.2287
  818TIP3    H123869   5.980   1.179  14.776 -1.0600 -0.7806  0.8193
  818TIP3    H223870   5.980   1.271  14.896 -0.5011 -0.4885  0.6004
  819TIP3   OH223871   5.968   2.342   5.209 -0.5586  0.1121  0.0867
  819TIP3    H123872   6.031   2.381   5.269 -0.6066 -0.3044  0.4118
  819TIP3    H223873   6.021   2.303   5.139 -0.4131 -0.8937  0.7491
  820TIP3   OH223874   3.213   2.463   6.067  0.1143 -0.1151  0.0167
  820TIP3    H123875   3.157   2.395   6.103 -0.2280 -0.0102 -0.3159
  820TIP3    H223876   3.289   2.416   6.032  1.1672 -0.0920  2.2140
  821TIP3   OH223877   3.154   2.344   0.818 -0.7008 -0.1496 -0.3323
  821TIP3    H123878   3.084   2.392   0.863 -1.3289 -0.8784 -0.5132
  821TIP3    H223879   3.148   2.372   0.727 -0.5072  0.0809 -0.2733
  822TIP3   OH223880   3.584   2.062  14.761  0.4918  0.7618  0.3754
  822TIP3    H123881   3.608   1.989  14.818  0.0742  0.6718  0.4328
  822TIP3    H223882   3.656   2.066  14.697  0.4319  0.1975  0.2713
  823TIP3   OH223883   4.413   5.743  15.899 -0.2080 -0.0977 -0.1397
  823TIP3    H123884   4.400   5.746  15.994 -2.5858  1.9843 -0.4668
  823TIP3    H223885   4.331   5.777  15.863  0.2270 -1.9499 -2.9901
  824TIP3   OH223886   5.787   3.208   4.961  0.3387  0.9905  0.5206
  824TIP3    H123887   5.811   3.189   5.051  1.0476 -0.8491 -0.0451
  824TIP3    H223888   5.754   3.126   4.926 -1.8931  2.1978 -0.2962
  825TIP3   OH223889   5.010   3.503  12.720 -0.2842  0.1605 -0.4878
  825TIP3    H123890   5.008   3.467  12.809 -1.5767 -1.4374 -1.1430
  825TIP3    H223891   5.032   3.595  12.732 -3.2100  0.6530  1.7284
  826TIP3   OH223892   2.582   4.378  13.610 -0.1663 -0.1215  0.5222
  826TIP3    H123893   2.576   4.295  13.562  2.1899  0.3432 -0.6311
  826TIP3    H223894   2.541   4.442  13.552 -4.2869 -0.8119  2.4681
  827TIP3   OH223895   5.976   6.620   4.717 -0.5881  0.4031 -0.1536
  827TIP3    H123896   6.055   6.595   4.671  0.1067  1.0793  0.6510
  827TIP3    H223897   6.004   6.634   4.808 -1.3163  2.0772 -0.1535
  828TIP3   OH223898   4.508   1.097  13.870  0.1005 -0.5198  0.3958
  828TIP3    H123899   4.461   1.127  13.948  1.7867  1.3540  0.7279
  828TIP3    H223900   4.592   1.142  13.875  1.1698 -2.3248 -1.2135
  829TIP3   OH223901   5.666   4.357  12.004 -0.5282 -0.2659  0.0267
  829TIP3    H123902   5.572   4.359  11.986 -0.2679 -0.5467 -1.4069
  829TIP3    H223903   5.689   4.265  11.993 -0.1328 -0.2425  0.6620
  830TIP3   OH223904   4.819   5.706   5.653  0.3826  0.6933  0.3754
  830TIP3    H123905   4.914   5.690   5.647  0.3432  0.4967  0.2857
  830TIP3    H223906   4.809   5.798   5.628  0.4422  0.4532 -0.5456
  831TIP3   OH223907   5.064   4.788  16.971 -0.0489 -0.4983 -0.7471
  831TIP3    H123908   5.041   4.874  16.935 -0.9536 -0.5184 -0.2294
  831TIP3    H223909   5.035   4.792  17.062 -2.8825 -2.4220 -1.5072
  832TIP3   OH223910   6.586   6.333   1.276  0.1218  0.0473 -0.0640
  832TIP3    H123911   6.569   6.324   1.182 -0.6476 -0.6322  0.1351
  832TIP3    H223912   6.648   6.264   1.297 -1.0162 -0.8847  0.2562
  833TIP3   OH223913   2.754   4.107  11.446  0.1803  0.9510 -0.0955
  833TIP3    H123914   2.719   4.177  11.392 -1.7827  0.9015  1.0639
  833TIP3    H223915   2.737   4.135  11.536  0.9679 -0.2079  0.4312
  834TIP3   OH223916   2.721   4.418   2.071 -0.1698  0.4591 -0.1948
  834TIP3    H123917   2.701   4.337   2.118  0.2324 -0.0440 -0.8883
  834TIP3    H223918   2.636   4.462   2.063 -0.3606  0.1876  0.3324
  835TIP3   OH223919   0.856   4.562   5.269  0.4439 -0.1113 -0.1596
  835TIP3    H123920   0.893   4.553   5.357 -1.0775  0.4384  0.5631
  835TIP3    H223921   0.792   4.491   5.262  0.2616  0.0945 -0.6534
  836TIP3   OH223922   2.207   6.163   0.455  0.2498 -0.0854 -0.1100
  836TIP3    H123923   2.184   6.086   0.403 -1.0366  0.0189  0.2725
  836TIP3    H223924   2.167   6.147   0.540  0.0917  0.9286  0.0166
  837TIP3   OH223925   2.561   3.687  13.356 -0.1833  0.1253 -0.3470
  837TIP3    H123926   2.611   3.768  13.357 -0.6096  0.3860 -0.2401
  837TIP3    H223927   2.484   3.705  13.409  1.2752 -1.3453  2.4429
  838TIP3   OH223928   5.330   3.796   3.611 -0.6286 -0.1123 -0.2839
  838TIP3    H123929   5.421   3.823   3.599 -0.5189 -0.1428  0.4103
  838TIP3    H223930   5.283   3.877   3.630 -0.7743 -0.0778 -0.7869
  839TIP3   OH223931   3.834   3.742   0.058 -0.4549  0.0063 -0.8001
  839TIP3    H123932   3.795   3.757  -0.028 -2.4138  2.2793  0.4454
  839TIP3    H223933   3.926   3.721   0.039 -0.7867  0.7943 -3.4167
  840TIP3   OH223934   2.355   2.765  13.711  0.0655 -0.1337 -0.4679
  840TIP3    H123935   2.335   2.858  13.696 -0.9470 -0.3404 -0.4154
  840TIP3    H223936   2.450   2.760  13.704  0.2749  1.2172  1.2089
  841TIP3   OH223937   0.698   2.934   1.516  0.0181  0.8739  0.1856
  841TIP3    H123938   0.668   2.850   1.483  1.2597  0.5278 -0.1199
  841TIP3    H223939   0.755   2.912   1.591  1.5448  1.3272 -0.8074
  842TIP3   OH223940   4.209   3.803  13.506  0.7877 -0.0927  0.0023
  842TIP3    H123941   4.258   3.865  13.560  0.0367  0.8723 -0.4028
  842TIP3    H223942   4.118   3.832  13.514  0.4080 -1.2281 -0.0860
  843TIP3   OH223943   4.605   1.519   6.546  0.3272 -0.6420 -0.0573
  843TIP3    H123944   4.680   1.474   6.508 -0.1123 -2.4407  1.0809
  843TIP3    H223945   4.630   1.534   6.637 -0.6002 -1.0667  0.2763
  844TIP3   OH223946   3.597   1.294  14.828  0.0372 -0.5046 -0.8914
  844TIP3    H123947   3.575   1.246  14.908  0.4939 -0.1308 -0.5433
  844TIP3    H223948   3.521   1.280  14.771  0.5062 -2.3085 -1.1062
  845TIP3   OH223949   6.197   0.359   1.334  0.2673  0.1913 -0.5856
  845TIP3    H123950   6.222   0.270   1.361 -0.4573 -0.2250 -1.2342
  845TIP3    H223951   6.211   0.359   1.239  1.3179  1.1315 -0.4388
  846TIP3   OH223952   4.255   4.728   3.022  0.2514 -0.3390  0.5414
  846TIP3    H123953   4.257   4.634   3.041  0.8180 -0.2715  0.8254
  846TIP3    H223954   4.231   4.732   2.929  1.7988 -0.8291  0.1014
  847TIP3   OH223955   0.555   3.819  12.718  0.2279  0.2861  0.4478
  847TIP3    H123956   0.503   3.876  12.775  0.3800 -0.5056  1.4039
  847TIP3    H223957   0.566   3.869  12.637 -0.1169  1.3806  1.0645
  848TIP3   OH223958   6.492   2.470   0.530  0.6269 -0.3756  0.0520
  848TIP3    H123959   6.499   2.443   0.438 -1.1246 -2.2597  0.4222
  848TIP3    H223960   6.563   2.533   0.542  2.3314 -1.8092 -2.0024
  849TIP3   OH223961   6.608   2.915   0.254  0.1336  0.1063  0.9303
  849TIP3    H123962   6.565   2.830   0.250  0.0262  0.1973 -0.1044
  849TIP3    H223963   6.539   2.978   0.235  0.8029  0.2142 -1.3328
  850TIP3   OH223964   5.731   6.217  13.084  0.2888 -0.1990  0.0484
  850TIP3    H123965   5.665   6.239  13.019  0.6209  2.3144  0.5298
  850TIP3    H223966   5.814   6.227  13.039  0.4223 -2.5176 -0.3031
  851TIP3   OH223967   5.659   3.454   5.316  0.1718 -0.2990 -0.7650
  851TIP3    H123968   5.698   3.529   5.360 -1.1799  1.2507 -2.1199
  851TIP3    H223969   5.581   3.433   5.368 -0.2239  0.1436 -1.1735
  852TIP3   OH223970   5.478   2.800   0.266 -0.5644 -0.1035  0.1293
  852TIP3    H123971   5.567   2.806   0.301  0.2705 -0.4909 -1.8708
  852TIP3    H223972   5.488   2.751   0.185 -3.0173 -2.6288  1.2721
  853TIP3   OH223973   3.069   6.234  13.579  0.3012  0.4797  0.0066
  853TIP3    H123974   3.124   6.268  13.649  0.0141  1.3749 -0.1927
  853TIP3    H223975   2.991   6.199  13.623 -0.0439  1.3708  0.1118
  854TIP3   OH223976   4.960   2.290   1.842 -0.3206 -1.5470  0.5210
  854TIP3    H123977   4.901   2.246   1.782 -0.3087  0.3818 -0.9681
  854TIP3    H223978   4.907   2.358   1.883  0.3936 -0.9889  0.5361
  855TIP3   OH223979   6.303   3.913   3.774  0.1020  0.2378 -0.4400
  855TIP3    H123980   6.398   3.898   3.783  0.0450 -0.4386 -0.9724
  855TIP3    H223981   6.278   3.956   3.856  0.4936 -1.4349  0.5665
  856TIP3   OH223982   1.333   4.227   3.244  0.2573  0.1958  0.5199
  856TIP3    H123983   1.282   4.177   3.180  0.7052 -0.4361  0.6580
  856TIP3    H223984   1.398   4.165   3.278  0.2068  0.6095  1.3814
  857TIP3   OH223985   0.382   5.724  16.789  0.5555  1.2971 -0.1777
  857TIP3    H123986   0.430   5.806  16.797 -2.4401  3.2818 -1.5273
  857TIP3    H223987   0.444   5.663  16.750  1.9709  3.7803 -1.9202
  858TIP3   OH223988   3.624   0.741   0.600 -0.3696  0.4411 -0.5499
  858TIP3    H123989   3.707   0.703   0.573 -0.2142  1.3372 -1.3653
  858TIP3    H223990   3.567   0.665   0.617  0.4465 -0.1645 -0.4961
  859TIP3   OH223991   5.787   1.526   4.956  0.2790  0.3289 -0.3771
  859TIP3    H123992   5.727   1.590   4.994  1.7901  0.4287  1.8877
  859TIP3    H223993   5.765   1.444   5.000  0.9894  0.1142 -0.4148
  860TIP3   OH223994   4.880   1.364  16.152  0.6215  0.7679 -0.0406
  860TIP3    H123995   4.956   1.422  16.145  2.0474 -1.0810 -0.6307
  860TIP3    H223996   4.900   1.292  16.092 -1.0084 -0.4123  0.7863
  861TIP3   OH223997   4.426   3.879  12.176 -0.0485 -0.0936 -0.4565
  861TIP3    H123998   4.465   3.837  12.253  0.3092 -0.6694 -0.9429
  861TIP3    H223999   4.475   3.960  12.165  0.7226 -0.5895 -0.7844
  862TIP3   OH224000   1.532   5.691   4.045 -0.2045  0.7006  0.6732
  862TIP3    H124001   1.523   5.774   3.999  0.1456  0.2999 -0.1524
  862TIP3    H224002   1.450   5.644   4.025  0.0142  0.4645  0.3175
  863TIP3   OH224003   4.232   5.016  10.940  0.3959 -0.1089  0.0111
  863TIP3    H124004   4.310   4.990  10.989  0.3548  0.0730  0.1801
  863TIP3    H224005   4.237   5.112  10.937 -0.4338 -0.0172  1.0548
  864TIP3   OH224006   2.419   6.729  13.889 -0.4987 -0.0485  0.1886
  864TIP3    H124007   2.473   6.803  13.918  0.1471 -0.2385 -0.5134
  864TIP3    H224008   2.341   6.769  13.852 -1.1693  0.2117  1.8393
  865TIP3   OH224009   4.745   6.281  13.445  0.0354 -0.0078 -0.0046
  865TIP3    H124010   4.783   6.194  13.446 -2.3699 -1.0886  0.7594
  865TIP3    H224011   4.739   6.304  13.352  3.0651  0.4856 -0.1362
  866TIP3   OH224012   4.420   5.493   6.051 -0.4295 -0.3980 -0.5520
  866TIP3    H124013   4.403   5.410   6.005  0.5237 -0.2324 -1.2102
  866TIP3    H224014   4.427   5.558   5.981 -2.3474  0.4590  0.0316
  867TIP3   OH224015   5.400   0.572   5.731 -0.2228 -0.2784 -0.6704
  867TIP3    H124016   5.466   0.543   5.667  0.0301 -1.7908  0.2440
  867TIP3    H224017   5.450   0.589   5.811 -0.4376  2.3110 -1.0467
  868TIP3   OH224018   2.289   0.270   0.475 -0.3037  0.9465 -0.3585
  868TIP3    H124019   2.233   0.253   0.550  1.4268 -0.6375  0.6191
  868TIP3    H224020   2.282   0.191   0.422 -1.6415  2.1167 -1.9750
  869TIP3   OH224021   0.530   1.986   0.092 -0.2236  0.5190 -1.2471
  869TIP3    H124022   0.484   1.953   0.169  1.9418  0.4807  0.0749
  869TIP3    H224023   0.502   1.929   0.020 -0.7315 -0.7124 -0.0867
  870TIP3   OH224024   5.694   5.382  12.720 -0.2788 -0.3012 -0.2983
  870TIP3    H124025   5.644   5.360  12.642  1.6448 -0.4978 -1.4952
  870TIP3    H224026   5.664   5.470  12.743 -2.0573 -0.8961 -0.2671
  871TIP3   OH224027   4.124   4.746   3.250  1.0313 -0.4058 -0.0846
  871TIP3    H124028   4.184   4.721   3.321  2.2129  1.6566 -0.2992
  871TIP3    H224029   4.181   4.774   3.179 -0.0185  5.5452  1.1253
  872TIP3   OH224030   6.659   2.848   5.388  0.2593  0.3800 -0.0541
  872TIP3    H124031   6.620   2.864   5.474  0.2834 -2.3214  0.5097
  872TIP3    H224032   6.747   2.816   5.407 -0.0243 -1.0276 -1.0409
  873TIP3   OH224033   3.205   1.956   2.698 -0.2758  0.3451 -0.4965
  873TIP3    H124034   3.127   1.901   2.687  0.6763 -0.8121 -1.6348
  873TIP3    H224035   3.249   1.953   2.613  1.7104 -0.1247  0.4953
  874TIP3   OH224036   3.146   4.355  15.277 -0.2298 -0.5739  0.5062
  874TIP3    H124037   3.134   4.365  15.371  0.9655 -2.1697  0.8559
  874TIP3    H224038   3.067   4.310  15.247 -0.4293 -0.4320  0.8198
  875TIP3   OH224039   0.852   3.288   1.324 -0.0796 -0.3074 -0.1528
  875TIP3    H124040   0.772   3.247   1.355  0.1051  1.3721  2.6572
  875TIP3    H224041   0.865   3.364   1.381  2.2305  0.8303 -2.0793
  876TIP3   OH224042   0.342   0.607  11.905  0.1944 -0.6777  0.5458
  876TIP3    H124043   0.376   0.696  11.896  0.2298 -0.8607 -1.2770
  876TIP3    H224044   0.420   0.551  11.901  0.0141 -0.8879 -0.1049
  877TIP3   OH224045   2.792   1.994   1.773  0.0044  0.7107  0.8276
  877TIP3    H124046   2.802   2.050   1.696 -0.5605 -1.2371 -0.7062
  877TIP3    H224047   2.869   2.013   1.826  0.5350  1.8988 -0.3264
  878TIP3   OH224048   3.563   0.379   2.872 -0.3609 -0.0194  0.3884
  878TIP3    H124049   3.500   0.418   2.933  0.7258  1.4453  0.6160
  878TIP3    H224050   3.538   0.414   2.786 -0.5080 -0.2776  0.3267
  879TIP3   OH224051   1.091   0.064  14.556 -0.0742 -0.0063  0.0438
  879TIP3    H124052   1.073   0.058  14.650  0.3132 -0.1740  0.1102
  879TIP3    H224053   1.006   0.053  14.514 -0.3294  0.6502  0.3986
  880TIP3   OH224054   2.654   6.068   5.414  0.2305  0.3156 -0.2254
  880TIP3    H124055   2.634   6.009   5.341 -0.5014 -0.3563  0.4986
  880TIP3    H224056   2.656   6.155   5.375 -4.0307  0.4171 -0.4143
  881TIP3   OH224057   3.264   0.358  10.710  0.2841  0.8384 -0.2608
  881TIP3    H124058   3.304   0.346  10.624  0.0233  1.1364 -0.4226
  881TIP3    H224059   3.239   0.270  10.737 -0.4628  0.8471 -0.8915
  882TIP3   OH224060   3.911   1.381   3.616 -0.1093 -0.3629  0.1609
  882TIP3    H124061   3.969   1.386   3.540 -0.2791 -0.3035  0.0347
  882TIP3    H224062   3.946   1.446   3.678  1.1152 -1.7021  0.8883
  883TIP3   OH224063   0.244   0.679   6.019 -0.1066 -0.2437  0.1143
  883TIP3    H124064   0.229   0.594   6.061 -0.1371 -0.7558 -0.9237
  883TIP3    H224065   0.330   0.706   6.050  0.1293 -0.9043  0.0408
  884TIP3   OH224066   0.160   3.514  11.957 -0.0976  0.3012 -0.0903
  884TIP3    H124067   0.207   3.503  12.039  0.1079 -0.0763 -0.2612
  884TIP3    H224068   0.209   3.462  11.893  0.1141  1.1124 -0.5947
  885TIP3   OH224069   3.712   1.091   1.502 -0.2089  0.0958 -0.1196
  885TIP3    H124070   3.685   1.008   1.540  1.4460 -0.5521 -0.3590
  885TIP3    H224071   3.802   1.104   1.531 -0.0815  1.2767 -0.9759
  886TIP3   OH224072   0.036   1.181  13.276  0.2582  0.3404 -0.3486
  886TIP3    H124073  -0.046   1.140  13.248  0.8985 -1.6102  0.5527
  886TIP3    H224074   0.042   1.260  13.222 -1.4344 -0.2888 -1.5341
  887TIP3   OH224075   4.404   0.691  16.097  0.1855 -0.0074  0.0262
  887TIP3    H124076   4.390   0.686  16.003  0.9273  0.7593 -0.1327
  887TIP3    H224077   4.493   0.727  16.106 -0.6913  1.9763  1.0390
  888TIP3   OH224078   5.923   0.861   4.287 -0.1552 -0.9954 -0.0646
  888TIP3    H124079   5.830   0.884   4.288 -0.0035 -0.3687  0.7866
  888TIP3    H224080   5.938   0.820   4.202 -0.8492  0.4151 -0.8722
  889TIP3   OH224081   2.442   1.902   3.926 -0.5644  0.1244  0.5261
  889TIP3    H124082   2.411   1.935   3.842  0.4322  0.0197  0.1051
  889TIP3    H224083   2.410   1.812   3.930  0.7055 -0.3811 -0.4520
  890TIP3   OH224084   2.868   3.307   0.900 -0.4447 -0.9175 -0.0154
  890TIP3    H124085   2.866   3.294   0.995 -1.8115  0.1678  0.1275
  890TIP3    H224086   2.929   3.380   0.887  0.6569 -1.8403 -0.0832
  891TIP3   OH224087   6.290   0.925  16.434  0.8081  0.2371  0.1129
  891TIP3    H124088   6.254   0.971  16.509 -0.3114 -0.5410  0.0553
  891TIP3    H224089   6.240   0.958  16.359  0.3163 -0.7161  0.0130
  892TIP3   OH224090   4.568   5.108   1.000  0.1292  0.6699 -0.3058
  892TIP3    H124091   4.492   5.087   1.055 -0.0980 -1.9047 -1.4928
  892TIP3    H224092   4.644   5.087   1.054 -0.0688 -0.2820 -0.3922
  893TIP3   OH224093   0.991   4.134   0.530  0.6597 -0.3184 -0.1087
  893TIP3    H124094   1.003   4.228   0.522 -0.3477 -0.2699 -1.1662
  893TIP3    H224095   0.924   4.124   0.598  1.6650 -0.3270  0.8898
  894TIP3   OH224096   2.044   4.715  17.035  0.2472 -0.3816  0.1641
  894TIP3    H124097   2.057   4.666  17.117 -1.4543 -1.9571 -0.4577
  894TIP3    H224098   1.999   4.795  17.062  0.2011 -0.6277  0.8382
  895TIP3   OH224099   2.939   4.965   5.442 -0.1456  0.6265 -0.5254
  895TIP3    H124100   2.904   4.926   5.522 -0.5639 -0.2162 -1.1130
  895TIP3    H224101   2.870   5.024   5.412  1.0945  3.0317  1.1895
  896TIP3   OH224102   5.747   0.858   2.386  0.2059  0.3378  0.9436
  896TIP3    H124103   5.744   0.911   2.306  2.2376 -0.7328  0.1308
  896TIP3    H224104   5.694   0.907   2.449 -0.2138  1.9353 -0.6231
  897TIP3   OH224105   1.701   5.516  16.744  0.1269  0.4052  0.3630
  897TIP3    H124106   1.754   5.542  16.669 -0.1973 -2.2071 -0.8301
  897TIP3    H224107   1.613   5.502  16.708 -0.6834  1.7349  1.7555
  898TIP3   OH224108   0.583   0.340  17.155 -0.3363 -0.3268 -0.4901
  898TIP3    H124109   0.617   0.266  17.205  0.2168  1.1205  1.3242
  898TIP3    H224110   0.488   0.329  17.158 -0.3242 -0.0450  1.2310
  899TIP3   OH224111   2.268   2.015   5.199 -0.1365 -0.3472  0.3935
  899TIP3    H124112   2.364   2.010   5.199 -0.0511  1.0695  0.4395
  899TIP3    H224113   2.249   2.106   5.220 -1.5028 -0.6153  0.3525
  900TIP3   OH224114   3.475   1.429   5.618 -0.1059  0.1547  0.2310
  900TIP3    H124115   3.453   1.422   5.711  0.1068  0.1165  0.2781
  900TIP3    H224116   3.555   1.377   5.609 -1.2266 -1.5243 -0.3495
  901TIP3   OH224117   2.941   3.880  17.109 -0.3635  0.6972 -0.0685
  901TIP3    H124118   2.904   3.951  17.056  1.2473  1.8867  0.3621
  901TIP3    H224119   2.932   3.911  17.199  1.8841  1.1624  0.0391
  902TIP3   OH224120   4.561   1.305  14.394 -0.0533 -0.1505  0.1323
  902TIP3    H124121   4.493   1.351  14.444  1.9873  1.0676  1.9045
  902TIP3    H224122   4.522   1.220  14.374 -2.0008  0.4068  1.3382
  903TIP3   OH224123   2.233   5.652  14.116 -0.0476  0.2332  0.4287
  903TIP3    H124124   2.226   5.701  14.034  1.5485  0.5355  0.4546
  903TIP3    H224125   2.147   5.610  14.126  0.1181 -0.8512 -2.0469
  904TIP3   OH224126   5.002   2.107  14.499 -0.5451  0.4317  0.4053
  904TIP3    H124127   4.987   2.187  14.550 -1.5798  0.1341  0.5751
  904TIP3    H224128   4.931   2.105  14.435 -2.2351 -1.8288  2.2701
  905TIP3   OH224129   0.386   3.340  16.589 -0.0055 -0.7480  0.3087
  905TIP3    H124130   0.426   3.406  16.645  1.4972 -2.1993  0.9695
  905TIP3    H224131   0.419   3.359  16.501 -0.3660 -0.0243  0.3292
  906TIP3   OH224132   1.547   0.785   1.817  0.2816  0.0708  0.1585
  906TIP3    H124133   1.471   0.828   1.777 -0.0114  0.1045  0.7365
  906TIP3    H224134   1.528   0.691   1.810  1.2815 -0.0094 -1.8013
  907TIP3   OH224135   3.579   2.120  13.404 -0.0124 -0.0329  0.1352
  907TIP3    H124136   3.516   2.062  13.362 -1.5171  0.8125  1.1464
  907TIP3    H224137   3.603   2.183  13.336 -1.2592  0.4096  0.0930
  908TIP3   OH224138   0.908   1.386   2.663 -0.7206  0.0892  0.2228
  908TIP3    H124139   0.894   1.292   2.671 -1.1370  0.1942  0.7212
  908TIP3    H224140   0.830   1.426   2.701  0.5259  0.6664  2.2693
  909TIP3   OH224141   5.898   5.322  14.282  0.6249 -0.1250  0.2662
  909TIP3    H124142   5.819   5.364  14.316 -1.4926 -4.4087  0.8827
  909TIP3    H224143   5.926   5.262  14.351  1.0521 -2.8841 -2.1961
  910TIP3   OH224144   0.751   5.902   0.905  0.3683  0.0111  0.1958
  910TIP3    H124145   0.799   5.820   0.914 -1.2308 -0.8905  0.7900
  910TIP3    H224146   0.754   5.942   0.991 -1.0333 -0.6918  0.5911
  911TIP3   OH224147   0.204   2.355   2.134  0.6257  0.1792 -0.0024
  911TIP3    H124148   0.295   2.367   2.160  0.2241  0.8338  1.1125
  911TIP3    H224149   0.155   2.421   2.183 -0.5021 -0.3899 -0.3210
  912TIP3   OH224150   2.246   5.114   0.328  0.4228  0.5135 -0.3490
  912TIP3    H124151   2.277   5.177   0.263 -1.1765 -0.2830 -1.9473
  912TIP3    H224152   2.278   5.029   0.297  1.7939  0.4169  1.2924
  913TIP3   OH224153   3.014   3.866   4.777 -0.6056  0.0173 -0.0102
  913TIP3    H124154   2.955   3.791   4.781 -0.6748  0.0016 -1.3210
  913TIP3    H224155   2.964   3.935   4.735  0.4140 -0.1145 -1.4897
  914TIP3   OH224156   6.173   1.952  15.829 -0.2682 -0.4043  0.4250
  914TIP3    H124157   6.169   2.048  15.829 -2.3072 -0.4514 -0.9811
  914TIP3    H224158   6.135   1.927  15.745 -2.6408 -2.5338  2.0648
  915TIP3   OH224159   1.663   0.769  13.649  0.0483  0.2560 -0.6181
  915TIP3    H124160   1.672   0.861  13.623  0.7605 -0.0119 -1.3233
  915TIP3    H224161   1.574   0.762  13.682  0.7049  1.7517  1.5942
  916TIP3   OH224162   5.859   0.855  12.407 -0.2641 -0.4690  0.1530
  916TIP3    H124163   5.771   0.820  12.398  0.4643 -2.5903  1.0596
  916TIP3    H224164   5.880   0.843  12.500  0.4163  1.4479  0.2793
  917TIP3   OH224165   4.500   0.279  16.237 -0.4562  0.0435  0.2465
  917TIP3    H124166   4.497   0.332  16.157 -1.1088 -0.5728 -0.1509
  917TIP3    H224167   4.577   0.223  16.226 -0.1172  0.4867  0.3898
  918TIP3   OH224168   6.070   1.128  13.633 -0.1922 -0.4584 -0.0609
  918TIP3    H124169   6.021   1.172  13.564  1.5851 -0.5256 -1.4217
  918TIP3    H224170   6.006   1.113  13.703 -1.0133  3.6493  0.1941
  919TIP3   OH224171   1.331   1.368  12.203 -0.1556 -0.0225 -0.6318
  919TIP3    H124172   1.324   1.454  12.243  0.4653 -0.2027 -0.1225
  919TIP3    H224173   1.425   1.354  12.194 -0.1558 -1.6258  1.4329
  920TIP3   OH224174   3.753   5.056   5.068 -0.0394 -0.1467 -0.3233
  920TIP3    H124175   3.802   5.086   4.991 -0.0726 -0.9253 -0.6531
  920TIP3    H224176   3.784   4.966   5.083 -2.4360 -1.2031 -1.4273
  921TIP3   OH224177   6.782   0.411   1.722  0.3202  0.6662 -0.4711
  921TIP3    H124178   6.743   0.367   1.647  1.7058  1.2226 -1.5456
  921TIP3    H224179   6.714   0.470   1.754 -0.8582 -0.7808 -0.2528
  922TIP3   OH224180   0.414   5.414   0.885  0.5208 -0.4092 -0.3168
  922TIP3    H124181   0.405   5.471   0.962 -0.5525 -0.9779 -0.0199
  922TIP3    H224182   0.505   5.383   0.890  0.7371  0.2798  0.2062
  923TIP3   OH224183   2.819   1.107  12.426 -0.3649 -0.0797 -0.1857
  923TIP3    H124184   2.854   1.119  12.337 -0.4714  0.0441 -0.2118
  923TIP3    H224185   2.888   1.142  12.483 -0.1708 -0.4306 -0.2042
  924TIP3   OH224186   0.054   5.452   2.909  0.6807 -0.1299 -0.0931
  924TIP3    H124187   0.112   5.498   2.848  1.4196 -0.3359  0.4505
  924TIP3    H224188   0.049   5.363   2.873  0.9926 -0.2095  0.0582
  925TIP3   OH224189   1.016   4.676   5.090 -0.1772 -0.3783 -0.1304
  925TIP3    H124190   1.002   4.651   4.998 -1.3742  2.3953 -0.7590
  925TIP3    H224191   0.962   4.615   5.140  1.9548 -3.1305 -1.1075
  926TIP3   OH224192   3.736   5.184   1.735  0.1556 -0.0038 -0.2451
  926TIP3    H124193   3.755   5.271   1.770  0.8857  0.0444 -0.7437
  926TIP3    H224194   3.670   5.199   1.667 -0.0810  0.0968  0.0058
  927TIP3   OH224195   2.887   1.592   3.598  0.1779 -0.1690 -0.8040
  927TIP3    H124196   2.869   1.648   3.673 -0.7106 -0.9011 -0.4590
  927TIP3    H224197   2.959   1.536   3.627  0.6348  0.3673 -0.9177
  928TIP3   OH224198   2.745   1.337   4.488  0.8432 -0.0517  0.2899
  928TIP3    H124199   2.784   1.344   4.575 -0.2367 -1.2043  0.8850
  928TIP3    H224200   2.689   1.414   4.480 -1.2774 -1.3909  1.7790
  929TIP3   OH224201   0.582   4.917   2.507 -0.1363 -0.3953  0.3775
  929TIP3    H124202   0.597   4.906   2.601  3.5381 -1.8268 -0.3003
  929TIP3    H224203   0.600   5.010   2.491 -0.4073 -0.2278  1.0081
  930TIP3   OH224204   5.944   6.094  11.503 -0.3771 -0.0816  0.0764
  930TIP3    H124205   5.933   6.162  11.569 -0.8494  0.1198 -0.2083
  930TIP3    H224206   5.968   6.015  11.553  2.9493  0.9328  0.2023
  931TIP3   OH224207   2.753   2.534   5.253 -0.6747 -0.0281  0.9533
  931TIP3    H124208   2.773   2.535   5.346  0.6893  0.9165  0.6710
  931TIP3    H224209   2.780   2.448   5.223 -0.1715  0.0248  1.2469
  932TIP3   OH224210   5.633   1.664  12.195 -0.3057  0.1597  0.3857
  932TIP3    H124211   5.727   1.681  12.181  0.0593  0.9494  3.5324
  932TIP3    H224212   5.629   1.615  12.277 -2.5588 -1.4073 -0.6100
  933TIP3   OH224213   4.918   1.926   4.721  0.4671 -0.4195 -0.6361
  933TIP3    H124214   4.929   1.853   4.781  0.0280 -0.5872 -0.7536
  933TIP3    H224215   4.905   1.884   4.635  0.9577 -0.1879 -0.8244
  934TIP3   OH224216   6.698   5.796  17.077 -0.6390  0.3738 -0.4780
  934TIP3    H124217   6.753   5.797  16.999 -0.5200  0.5966 -0.3944
  934TIP3    H224218   6.612   5.770  17.047 -0.3477 -0.5552 -0.5187
  935TIP3   OH224219   2.025   3.435  12.940 -0.2287 -0.2104  0.2093
  935TIP3    H124220   2.094   3.473  12.994 -0.2574 -0.0268  0.1184
  935TIP3    H224221   1.962   3.506  12.928 -0.0408 -0.1351 -0.3688
  936TIP3   OH224222   0.624   1.716  11.812  0.0888 -0.2236  0.0634
  936TIP3    H124223   0.578   1.701  11.730 -0.6182  1.7579  0.0735
  936TIP3    H224224   0.555   1.717  11.879  0.5759 -1.0824  0.5832
  937TIP3   OH224225   0.953   0.508   5.271 -0.2282  0.1877 -0.3671
  937TIP3    H124226   1.043   0.506   5.238 -0.8135  0.0765 -2.0016
  937TIP3    H224227   0.928   0.416   5.277  0.2000  0.1597  1.3789
  938TIP3   OH224228   1.162   5.132   5.687  0.1601 -0.8239 -0.0293
  938TIP3    H124229   1.194   5.158   5.601 -1.7405 -3.4964 -1.6068
  938TIP3    H224230   1.135   5.214   5.728  2.4766  0.6512 -1.3520
  939TIP3   OH224231   6.199   6.583  15.350  0.2396  0.0589  0.6749
  939TIP3    H124232   6.284   6.599  15.391  0.8521 -0.8989 -0.2063
  939TIP3    H224233   6.154   6.523  15.409  0.2459  0.4249  1.0518
  940TIP3   OH224234   3.411   6.017  16.710  0.9229  0.0767 -0.0132
  940TIP3    H124235   3.483   5.956  16.729 -0.3133 -0.9454  1.5712
  940TIP3    H224236   3.351   6.006  16.784 -0.1408  2.0141 -0.5584
  941TIP3   OH224237   5.124   0.803   2.194 -0.1302 -0.1846 -0.3531
  941TIP3    H124238   5.102   0.854   2.117 -0.7742 -0.2120 -0.1865
  941TIP3    H224239   5.183   0.734   2.162  2.1422  1.6545 -0.3190
  942TIP3   OH224240   2.896   4.725   3.679  0.0789  0.2316  0.3292
  942TIP3    H124241   2.968   4.665   3.657  0.2167 -0.2474  2.0544
  942TIP3    H224242   2.927   4.773   3.756 -1.1575  0.5626  0.6238
  943TIP3   OH224243   1.314   2.667   3.696 -0.2442 -0.0036 -0.0492
  943TIP3    H124244   1.373   2.618   3.753 -1.8959 -1.2137  0.6872
  943TIP3    H224245   1.279   2.601   3.635 -1.2549  0.5549 -0.0897
  944TIP3   OH224246   0.058   0.145   3.392  0.0152  0.3452  0.1804
  944TIP3    H124247   0.054   0.140   3.297 -0.1093  0.4694  0.1782
  944TIP3    H224248   0.056   0.239   3.412 -1.1413  0.3014  0.3433
  945TIP3   OH224249   0.039   1.684  17.149  0.2682 -0.0470 -0.4324
  945TIP3    H124250   0.116   1.684  17.206 -1.3534  1.2604  1.8232
  945TIP3    H224251  -0.034   1.701  17.208 -1.6569 -0.3300 -2.6857
  946TIP3   OH224252   0.879   2.545   2.167 -0.0127 -0.4266 -0.1743
  946TIP3    H124253   0.830   2.471   2.202 -0.3155  0.3262  1.0013
  946TIP3    H224254   0.876   2.532   2.072 -2.8423 -0.1792 -0.1701
  947TIP3   OH224255   4.402   6.397  11.596  0.5921  0.1727 -0.5639
  947TIP3    H124256   4.435   6.336  11.529  0.2135  0.4968 -1.0500
  947TIP3    H224257   4.311   6.411  11.572  0.2497 -0.2574  0.4311
  948TIP3   OH224258   3.699   2.243   1.719  0.9027  0.3526 -0.2023
  948TIP3    H124259   3.690   2.337   1.736  0.4267  0.2700  0.0284
  948TIP3    H224260   3.670   2.232   1.628 -1.2058  0.1240  0.4602
  949TIP3   OH224261   0.953   0.880   5.608  0.0679 -0.7902 -0.7098
  949TIP3    H124262   0.951   0.800   5.555  0.3558 -0.3753 -1.3464
  949TIP3    H224263   0.902   0.943   5.558  0.3066 -0.4077 -0.4714
  950TIP3   OH224264   0.006   1.119   0.041 -0.6922  0.1543  0.8639
  950TIP3    H124265  -0.002   1.213   0.054  0.5627  0.3869  0.0363
  950TIP3    H224266   0.004   1.108  -0.054  0.1051 -0.5687  0.9295
  951TIP3   OH224267   3.811   6.038  15.497 -0.3754 -0.8603  0.0800
  951TIP3    H124268   3.842   5.958  15.454 -2.2262 -1.1400 -0.7582
  951TIP3    H224269   3.746   6.075  15.437 -0.7867  0.3714  1.2501
  952TIP3   OH224270   2.597   4.810   0.172 -0.3713  0.2079 -0.3621
  952TIP3    H124271   2.671   4.841   0.225 -0.4636 -2.2489  1.3017
  952TIP3    H224272   2.635   4.791   0.087  0.7470 -0.1479  0.2037
  953TIP3   OH224273   1.394   5.140   4.877  0.0793 -0.0964 -0.5160
  953TIP3    H124274   1.423   5.151   4.968 -0.5535  1.8577 -0.5293
  953TIP3    H224275   1.303   5.111   4.885  0.7461 -2.3014 -0.5266
  954TIP3   OH224276   5.291   0.916   0.838  0.3087 -0.2378  0.5301
  954TIP3    H124277   5.338   0.943   0.918  0.7452  0.7764 -0.0592
  954TIP3    H224278   5.360   0.906   0.772  0.0076 -1.5856  0.4016
  955TIP3   OH224279   1.069   0.924   3.031  0.2014  0.4259  0.3571
  955TIP3    H124280   1.051   0.973   3.111 -2.0940  1.5710 -0.8225
  955TIP3    H224281   1.130   0.979   2.982  0.5360  0.3552  0.6908
  956TIP3   OH224282   2.628   6.362   6.431  0.0855 -0.2929 -0.3973
  956TIP3    H124283   2.714   6.400   6.449 -0.7318  1.4727 -0.1503
  956TIP3    H224284   2.609   6.306   6.506  0.0694  1.0021  0.5604
  957TIP3   OH224285   3.969   1.702   3.526  0.1490 -0.2911  0.6305
  957TIP3    H124286   4.032   1.648   3.574 -2.8487 -3.0219  1.6362
  957TIP3    H224287   3.949   1.773   3.587  0.3665 -0.8046  1.3109
  958TIP3   OH224288   1.330   4.913  11.570  0.3096 -0.0887 -0.4962
  958TIP3    H124289   1.264   4.913  11.639  1.4168 -0.9787  0.6059
  958TIP3    H224290   1.300   4.847  11.508  0.7791 -1.4039  0.6410
  959TIP3   OH224291   0.856   1.709   4.620  0.6394 -0.1718  0.0595
  959TIP3    H124292   0.776   1.705   4.672  0.3233 -0.2033 -0.4204
  959TIP3    H224293   0.828   1.750   4.537  1.5819  1.9626  0.7574
  960TIP3   OH224294   4.430   2.343  16.195  0.3328  0.2841 -0.2619
  960TIP3    H124295   4.346   2.381  16.222  0.6282 -0.9636  2.5462
  960TIP3    H224296   4.487   2.419  16.180 -1.5093  1.1636 -3.0414
  961TIP3   OH224297   1.914   4.282   4.622  0.2432 -0.7765 -0.1679
  961TIP3    H124298   1.848   4.222   4.586 -0.4577 -0.5828  0.7937
  961TIP3    H224299   1.961   4.315   4.545 -2.5227  1.1363 -1.0971
  962TIP3   OH224300   3.417   5.401  16.472 -0.1013  0.2646 -0.2581
  962TIP3    H124301   3.378   5.354  16.398  0.1227  0.0953 -0.2681
  962TIP3    H224302   3.487   5.344  16.503 -0.8955 -0.1586  0.7785
  963TIP3   OH224303   2.005   3.520  16.400 -0.1681  0.3828 -0.6092
  963TIP3    H124304   1.918   3.560  16.401 -0.9114 -1.2136 -1.2793
  963TIP3    H224305   2.062   3.590  16.369 -1.2997  1.2561 -0.7638
  964TIP3   OH224306   2.059   1.690   2.149  0.0462 -0.3736  0.4327
  964TIP3    H124307   2.058   1.683   2.245 -1.5700  0.2715  0.4700
  964TIP3    H224308   2.123   1.759   2.131  0.5123 -0.6414  1.0361
  965TIP3   OH224309   1.558   1.673   1.992  0.2964  0.4596 -0.1720
  965TIP3    H124310   1.646   1.705   1.973  0.1740  1.5720  1.0730
  965TIP3    H224311   1.550   1.678   2.087 -0.3081 -1.7731 -0.0699
  966TIP3   OH224312   1.706   3.068  10.807  0.3204  0.1073 -0.0019
  966TIP3    H124313   1.635   3.110  10.759  0.6772  0.5287 -0.1640
  966TIP3    H224314   1.701   2.976  10.781 -0.8212 -0.0671  0.7939
  967TIP3   OH224315   3.697   3.172  12.508  0.0235  0.0738  0.2853
  967TIP3    H124316   3.751   3.094  12.494  1.2824  1.2170 -1.3706
  967TIP3    H224317   3.608   3.138  12.517  0.4374 -1.5059 -1.2299
  968TIP3   OH224318   6.482   0.074  14.630  0.1116 -0.0211 -0.6434
  968TIP3    H124319   6.417   0.026  14.578  1.6393 -0.3847 -2.2792
  968TIP3    H224320   6.449   0.163  14.634 -1.5607 -0.6578  0.3847
  969TIP3   OH224321   5.607   6.696   4.902  0.0814 -0.1680  0.0303
  969TIP3    H124322   5.640   6.607   4.897  0.4836 -0.0427  0.4602
  969TIP3    H224323   5.669   6.748   4.851  0.3811  0.0164  0.5740
  970TIP3   OH224324   1.429   0.034   4.008  0.3745 -0.4753  0.0551
  970TIP3    H124325   1.485  -0.010   3.943 -0.3503 -0.8486 -0.3217
  970TIP3    H224326   1.386   0.104   3.959 -1.2647 -1.6526 -0.2120
  971TIP3   OH224327   1.574   1.736   0.051 -0.2840  0.0630  0.7330
  971TIP3    H124328   1.653   1.725  -0.001 -0.8005 -0.0878 -0.0194
  971TIP3    H224329   1.557   1.830   0.051 -0.9827 -0.0490 -0.4263
  972TIP3   OH224330   0.103   1.395  16.480 -0.4402  0.0700 -0.4578
  972TIP3    H124331   0.192   1.377  16.511  0.6617  3.2923 -1.5859
  972TIP3    H224332   0.070   1.464  16.538 -1.8656 -0.4500 -0.6307
  973TIP3   OH224333   4.627   6.033  15.384  0.4058 -0.2914 -0.3435
  973TIP3    H124334   4.690   6.014  15.314 -0.5610 -1.8081 -0.8184
  973TIP3    H224335   4.656   5.978  15.457  0.2997 -0.1138 -0.1667
  974TIP3   OH224336   0.039   0.340  11.627  0.0976 -0.0938 -0.1343
  974TIP3    H124337  -0.015   0.356  11.704 -0.9923 -1.3661 -0.6076
  974TIP3    H224338   0.081   0.424  11.610 -1.4433  0.8389  0.4656
  975TIP3   OH224339   2.637   3.525  10.851  0.9165  0.6251 -0.1126
  975TIP3    H124340   2.686   3.443  10.853  3.0946  1.9091  0.1224
  975TIP3    H224341   2.695   3.587  10.806 -1.3307  1.6533 -1.7002
  976TIP3   OH224342   6.479   4.141   4.781  0.4874  0.4664 -0.4201
  976TIP3    H124343   6.474   4.047   4.765 -2.0716 -0.0575  2.9391
  976TIP3    H224344   6.564   4.155   4.822  1.5681 -0.0805 -2.4149
  977TIP3   OH224345   1.188   6.010   5.403  0.5517  0.4123 -0.1779
  977TIP3    H124346   1.264   6.044   5.452  0.7376  1.7710 -1.3507
  977TIP3    H224347   1.198   6.049   5.315 -0.8943 -0.3160 -0.6693
  978TIP3   OH224348   6.431   6.528  15.490 -0.0821 -0.1549  0.2562
  978TIP3    H124349   6.502   6.592  15.485 -1.9457  1.9483  0.1693
  978TIP3    H224350   6.413   6.520  15.584  2.6071 -3.3907  0.5804
  979TIP3   OH224351   5.089   4.986   3.774 -0.3838  0.7018 -0.1348
  979TIP3    H124352   5.121   4.940   3.697 -1.2500 -0.1032 -0.0283
  979TIP3    H224353   5.124   4.936   3.848 -2.7990 -0.9117 -0.0072
  980TIP3   OH224354   0.071   6.132  12.238 -0.0769  0.4419  0.5933
  980TIP3    H124355   0.001   6.189  12.271 -1.8823 -0.5450 -1.4578
  980TIP3    H224356   0.047   6.114  12.147  2.6321 -0.2735 -0.0318
  981TIP3   OH224357   2.790   4.738  11.654  0.1259 -0.3411 -0.0913
  981TIP3    H124358   2.748   4.814  11.695  0.8513  0.0876 -0.1250
  981TIP3    H224359   2.810   4.680  11.727  1.3936  0.4114  0.1881
  982TIP3   OH224360   0.819   5.080   1.233  0.1389  0.7558  0.1906
  982TIP3    H124361   0.869   5.004   1.262 -0.4738  0.0612 -0.5453
  982TIP3    H224362   0.737   5.044   1.199  1.0311  1.4431 -2.8838
  983TIP3   OH224363   4.845   5.111  11.388  0.0590  0.3984  0.3856
  983TIP3    H124364   4.929   5.067  11.404  0.9150  2.1990  0.9948
  983TIP3    H224365   4.797   5.101  11.470 -0.4652 -0.9174 -0.0734
  984TIP3   OH224366   5.278   4.786  11.893  0.0817  0.0244 -0.3060
  984TIP3    H124367   5.278   4.735  11.974 -2.0323  0.7056  0.1409
  984TIP3    H224368   5.254   4.874  11.920  1.4179  0.7469 -1.4005
  985TIP3   OH224369   4.609   0.017  15.743  0.7063  0.0414  0.5359
  985TIP3    H124370   4.625   0.019  15.648 -1.3943  3.0025  0.1901
  985TIP3    H224371   4.514   0.008  15.752  1.0346 -2.1014  2.4307
  986TIP3   OH224372   5.324   5.846   1.205  0.5325 -0.3611  0.2621
  986TIP3    H124373   5.373   5.858   1.124  0.4264 -3.8662 -0.3740
  986TIP3    H224374   5.233   5.862   1.182  0.3776 -2.3261 -0.5943
  987TIP3   OH224375   5.465   3.679  11.798 -0.3163 -0.3526 -0.2479
  987TIP3    H124376   5.405   3.754  11.796  0.2252  0.0934 -0.0079
  987TIP3    H224377   5.508   3.686  11.883  2.0277  0.8959 -1.4894
  988TIP3   OH224378   5.513   1.180  13.733  0.6301  0.0086  0.1272
  988TIP3    H124379   5.430   1.206  13.693  1.0760  0.0377 -0.8003
  988TIP3    H224380   5.574   1.250  13.709  0.5945  0.7234  2.0070
  989TIP3   OH224381   3.355   1.953  15.204 -0.2907 -0.3186  0.3769
  989TIP3    H124382   3.292   2.015  15.167 -0.2169 -0.8681 -0.6922
  989TIP3    H224383   3.316   1.867  15.187  2.0242 -0.8146 -2.7960
  990TIP3   OH224384   1.798   0.189   2.920  0.1287  0.2339  0.2652
  990TIP3    H124385   1.733   0.213   2.986 -2.2818  0.0442 -1.9060
  990TIP3    H224386   1.811   0.095   2.932 -2.6637 -0.4411 -1.4002
  991TIP3   OH224387   4.825   6.557   6.070  0.5733 -0.2702  0.1489
  991TIP3    H124388   4.882   6.522   6.138  1.6186 -0.2056 -0.6860
  991TIP3    H224389   4.874   6.544   5.989 -1.6818 -2.6139 -0.9048
  992TIP3   OH224390   2.679   6.294  15.552  0.0205 -0.3794 -0.2907
  992TIP3    H124391   2.617   6.240  15.600 -0.6575 -1.0365 -1.8708
  992TIP3    H224392   2.631   6.375  15.534  0.7657  0.4477  1.3835
  993TIP3   OH224393   1.395   2.273  15.543  0.1816 -0.0757 -0.1263
  993TIP3    H124394   1.347   2.190  15.548 -1.0277  0.6375  0.3329
  993TIP3    H224395   1.372   2.309  15.457  0.4555 -0.0627 -0.1944
  994TIP3   OH224396   5.408   4.123  17.175 -0.2038  0.6346 -0.6239
  994TIP3    H124397   5.349   4.198  17.173 -1.2716 -0.1528  0.4673
  994TIP3    H224398   5.465   4.135  17.100  0.3974  3.1440  0.1977
  995TIP3   OH224399   1.333   0.607   0.887 -0.5095  0.1050  0.0587
  995TIP3    H124400   1.239   0.620   0.893 -0.3850  0.5274  1.2775
  995TIP3    H224401   1.360   0.661   0.812 -0.9839  1.4979  0.8684
  996TIP3   OH224402   6.421   5.071   6.404  0.1494  0.3945 -0.4842
  996TIP3    H124403   6.339   5.028   6.380  0.6273 -0.3039 -0.8626
  996TIP3    H224404   6.462   5.094   6.321  0.5060  0.4193 -0.3055
  997TIP3   OH224405   4.019   3.228   2.936  0.2585  0.0711 -0.0663
  997TIP3    H124406   4.006   3.134   2.930  1.4703 -0.2885  2.3437
  997TIP3    H224407   3.962   3.265   2.868 -3.2008 -2.1939  1.4795
  998TIP3   OH224408   3.361   3.522  12.854 -0.2137  0.8150  0.3256
  998TIP3    H124409   3.367   3.514  12.758  0.0482 -1.9723  0.5293
  998TIP3    H224410   3.428   3.587  12.876  0.9746  0.1773 -1.2499
  999TIP3   OH224411   2.139   0.907   0.005 -0.2085 -0.2928 -0.5353
  999TIP3    H124412   2.135   0.994  -0.036  0.3014  0.3718  0.8063
  999TIP3    H224413   2.086   0.851  -0.053 -1.4774  1.1500 -0.8018
 1000TIP3   OH224414   5.155   0.787  10.966  0.5295  0.0042  0.2351
 1000TIP3    H124415   5.198   0.868  10.936 -2.3531  0.9895 -1.4670
 1000TIP3    H224416   5.150   0.733  10.888  0.7643 -1.0749  0.9606
 1001TIP3   OH224417   6.271   0.437  11.188  0.9916  0.2775 -0.1498
 1001TIP3    H124418   6.298   0.499  11.256  1.0668  0.5635 -0.4399
 1001TIP3    H224419   6.231   0.491  11.120  2.5610  0.1897 -1.1692
 1002TIP3   OH224420   0.737   2.849   2.136 -0.1224  0.3996 -0.5426
 1002TIP3    H124421   0.793   2.830   2.211  1.4751  1.5627 -1.4044
 1002TIP3    H224422   0.793   2.834   2.060 -2.0596 -1.9182 -1.5759
 1003TIP3   OH224423   0.797   2.221  16.968  0.3248  0.3733 -0.1229
 1003TIP3    H124424   0.876   2.275  16.963  0.0045  0.8969  0.4334
 1003TIP3    H224425   0.780   2.196  16.877  1.6372 -0.4918 -0.1484
 1004TIP3   OH224426   5.689   0.447   2.611 -0.4448  0.1925 -0.4228
 1004TIP3    H124427   5.745   0.514   2.571 -0.1301  0.0030 -0.2995
 1004TIP3    H224428   5.625   0.496   2.662  1.3131  0.3290  1.7098
 1005TIP3   OH224429   5.620   0.547   3.337 -0.3277  0.2539  0.1248
 1005TIP3    H124430   5.537   0.542   3.385  0.7811 -1.0663  1.9426
 1005TIP3    H224431   5.641   0.641   3.335 -1.0756  0.4462  1.0209
 1006TIP3   OH224432   4.677   6.207   2.199  0.0282 -0.5185  0.1155
 1006TIP3    H124433   4.707   6.170   2.116  0.1620 -1.4480  0.5711
 1006TIP3    H224434   4.747   6.266   2.226  0.1177 -0.4407 -0.2894
 1007TIP3   OH224435   1.918   5.915   2.277  0.3459 -0.1534 -0.1745
 1007TIP3    H124436   1.971   5.894   2.354  1.4552  0.5665 -0.7387
 1007TIP3    H224437   1.899   5.830   2.237 -0.1536 -0.5199  0.8384
 1008TIP3   OH224438   4.937   4.381   2.417 -0.0417 -0.0732  0.3104
 1008TIP3    H124439   5.012   4.435   2.390 -0.2912  0.4987  0.7435
 1008TIP3    H224440   4.897   4.430   2.488  0.0036 -1.0607  1.0362
 1009TIP3   OH224441   4.284   5.858   0.993 -0.4330 -0.1099 -0.3176
 1009TIP3    H124442   4.225   5.852   0.918 -0.1806  2.4724 -0.7580
 1009TIP3    H224443   4.327   5.772   0.996  0.2558  0.0312 -3.7439
 1010TIP3   OH224444   4.686   4.481  15.292  0.1763  0.5211 -0.3021
 1010TIP3    H124445   4.700   4.418  15.221  0.3920 -1.6432  1.5982
 1010TIP3    H224446   4.591   4.487  15.300  0.1537  0.6380 -0.6568
 1011TIP3   OH224447   1.982   3.421  15.198  0.1743 -0.1565 -0.1319
 1011TIP3    H124448   2.034   3.415  15.118 -0.4392  0.1893 -0.5560
 1011TIP3    H224449   1.919   3.491  15.182  0.4077  0.2951  0.8580
 1012TIP3   OH224450   5.850   6.210   4.694 -0.1201  0.0571  0.4605
 1012TIP3    H124451   5.766   6.174   4.664 -0.5173  0.0063  1.6086
 1012TIP3    H224452   5.890   6.138   4.742  1.5948 -0.6612 -1.9169
 1013TIP3   OH224453   6.096   3.141   0.439 -0.0132  0.1412  0.7221
 1013TIP3    H124454   6.182   3.103   0.456 -0.1036 -1.2563 -1.7348
 1013TIP3    H224455   6.036   3.066   0.439 -0.5684  0.5314 -1.6603
 1014TIP3   OH224456   3.961   0.107   1.876 -0.8546  0.1982  0.1668
 1014TIP3    H124457   3.903   0.183   1.882  0.2115  1.2395 -2.1214
 1014TIP3    H224458   4.039   0.140   1.832  0.1213 -1.9514  0.2473
 1015TIP3   OH224459   3.968   2.111   1.676 -0.1563 -0.3176 -0.2093
 1015TIP3    H124460   4.025   2.115   1.599 -0.4523 -2.5374 -0.5776
 1015TIP3    H224461   3.879   2.109   1.640 -0.3416 -0.0426  0.2358
 1016TIP3   OH224462   0.228   5.137  10.859 -0.0972  0.7802 -0.4098
 1016TIP3    H124463   0.234   5.042  10.871  0.7066  0.9129  0.2648
 1016TIP3    H224464   0.188   5.169  10.940  0.2887  1.0850 -0.3351
 1017TIP3   OH224465   1.556   2.415  16.433 -0.1602 -0.0185  0.6486
 1017TIP3    H124466   1.504   2.390  16.509 -0.0807  0.2737  0.7996
 1017TIP3    H224467   1.493   2.453  16.372 -0.0992  0.5233  0.9149
 1018TIP3   OH224468   6.642   2.255  11.120 -0.2792 -0.0973  0.0450
 1018TIP3    H124469   6.554   2.261  11.083  0.6655  1.4406 -2.0916
 1018TIP3    H224470   6.644   2.321  11.189 -1.2518 -1.1935  1.1450
 1019TIP3   OH224471   1.007   0.686   0.792  0.4514 -0.3510  0.4321
 1019TIP3    H124472   0.943   0.662   0.859  0.7515 -0.9504  0.5037
 1019TIP3    H224473   0.958   0.682   0.710  0.5864 -1.5741  0.4006
 1020TIP3   OH224474   0.031   2.061  16.235  0.6767  0.1298  0.3053
 1020TIP3    H124475  -0.008   1.988  16.283  3.2454 -1.1638  0.5076
 1020TIP3    H224476   0.029   2.134  16.297  1.5291 -0.8056  1.4579
 1021TIP3   OH224477   5.455   0.108  13.463 -0.2292  0.3147  0.2116
 1021TIP3    H124478   5.434   0.019  13.434 -1.4823 -0.0607  2.1929
 1021TIP3    H224479   5.548   0.103  13.486  0.0126 -0.1627 -0.8376
 1022TIP3   OH224480   4.600   3.764   4.571  0.3372 -0.8870 -0.0421
 1022TIP3    H124481   4.664   3.694   4.567 -2.2820 -3.3130 -1.1070
 1022TIP3    H224482   4.546   3.744   4.647  0.4840  0.8362  0.5471
 1023TIP3   OH224483   5.432   3.227   0.525  0.0687 -0.4861  0.8280
 1023TIP3    H124484   5.516   3.272   0.538 -1.1374  2.1857 -0.1048
 1023TIP3    H224485   5.367   3.288   0.561 -1.8014 -0.5905 -2.2213
 1024TIP3   OH224486   0.981   5.700   0.854  0.1383 -0.5137  0.1760
 1024TIP3    H124487   0.968   5.791   0.827  1.2103 -0.3444  0.2309
 1024TIP3    H224488   0.893   5.661   0.850 -0.3281  0.5277  0.1808
 1025TIP3   OH224489   4.619   3.458  12.378  0.0193 -0.1469  0.0850
 1025TIP3    H124490   4.702   3.442  12.423 -0.9722 -1.4072  1.5213
 1025TIP3    H224491   4.632   3.419  12.291  1.0424 -0.0383  0.1770
 1026TIP3   OH224492   1.759   3.535   3.325  0.1142  0.1557 -0.2638
 1026TIP3    H124493   1.672   3.495   3.315 -0.7264  1.7923  0.3615
 1026TIP3    H224494   1.791   3.544   3.235 -0.6443  0.1529 -0.5409
 1027TIP3   OH224495   5.404   4.689   4.692 -0.1885  0.1774  0.4259
 1027TIP3    H124496   5.417   4.773   4.647 -0.2491  0.3067  0.6450
 1027TIP3    H224497   5.328   4.650   4.649  0.1560  0.0018 -0.0193
 1028TIP3   OH224498   5.942   5.560  11.169  0.1164 -0.2739  0.3179
 1028TIP3    H124499   6.032   5.583  11.147 -0.7512  0.8321 -2.2164
 1028TIP3    H224500   5.894   5.643  11.164 -1.4180 -1.1753 -0.2644
 1029TIP3   OH224501   6.501   4.123  12.034 -0.1892 -0.4021 -0.0361
 1029TIP3    H124502   6.545   4.043  12.062 -1.3082 -0.7789  0.7117
 1029TIP3    H224503   6.562   4.194  12.056  1.2389 -1.1177 -1.6388
 1030TIP3   OH224504   4.891   0.099   3.262  0.2521  0.2940 -0.0929
 1030TIP3    H124505   4.820   0.059   3.312 -0.0188 -0.5659 -1.1306
 1030TIP3    H224506   4.967   0.045   3.281  0.3804  0.5847  0.2052
 1031TIP3   OH224507   5.591   3.217  14.229  0.4105 -0.6981  0.4249
 1031TIP3    H124508   5.541   3.267  14.166  1.7243  0.9327  0.6529
 1031TIP3    H224509   5.682   3.243  14.215  0.6730  0.1351  3.3351
 1032TIP3   OH224510   5.622   1.234   0.283  0.4080 -0.3312  0.1300
 1032TIP3    H124511   5.538   1.237   0.330  0.3673  2.0576 -0.0078
 1032TIP3    H224512   5.685   1.265   0.348  0.4373  2.4604 -1.1592
 1033TIP3   OH224513   5.823   0.071   4.829 -0.0357  0.3857 -0.3190
 1033TIP3    H124514   5.884   0.065   4.903 -0.1819 -2.3707 -0.3641
 1033TIP3    H224515   5.879   0.058   4.752 -0.3313  0.2248 -0.5043
 1034TIP3   OH224516   6.235   2.785   1.841 -0.0011 -0.5823 -0.6866
 1034TIP3    H124517   6.168   2.852   1.848  0.2732 -0.3648 -0.1544
 1034TIP3    H224518   6.187   2.702   1.847  0.0033 -0.4316  1.8817
 1035TIP3   OH224519   2.778   4.281  16.171  0.1074  0.5899  0.2426
 1035TIP3    H124520   2.749   4.194  16.142 -2.1843  2.1812 -2.5567
 1035TIP3    H224521   2.862   4.294  16.127  0.4470 -0.1731  0.6448
 1036TIP3   OH224522   4.012   2.075  14.451 -0.2686  0.1252 -0.3504
 1036TIP3    H124523   4.003   2.162  14.412  1.4754  0.5964  0.2622
 1036TIP3    H224524   4.043   2.020  14.379  0.5652  0.4600 -0.2570
 1037TIP3   OH224525   6.495   1.349   0.504  0.6988  0.8032 -0.0397
 1037TIP3    H124526   6.564   1.299   0.460  1.1179  1.2035  0.1549
 1037TIP3    H224527   6.417   1.335   0.451 -0.8789 -5.2930  3.3432
 1038TIP3   OH224528   0.712   0.641  13.572  0.3515  0.3720 -0.5496
 1038TIP3    H124529   0.750   0.723  13.540  3.0077 -1.6853 -2.9997
 1038TIP3    H224530   0.653   0.613  13.502  0.2754 -0.3492 -0.2027
 1039TIP3   OH224531   4.492   1.754  13.990  0.1027 -0.3489  0.1562
 1039TIP3    H124532   4.496   1.756  14.085  0.2886  1.7482  0.1103
 1039TIP3    H224533   4.578   1.784  13.962  0.3099 -1.6648 -0.6967
 1040TIP3   OH224534   0.980   2.782   1.253 -0.3392  0.3432  0.5351
 1040TIP3    H124535   0.946   2.761   1.167  1.0035  0.9378 -0.1560
 1040TIP3    H224536   0.963   2.876   1.263 -1.0039  0.1610  1.1586
 1041TIP3   OH224537   4.832   1.031   1.809 -0.0888  0.1982 -0.0755
 1041TIP3    H124538   4.883   1.054   1.731 -0.5972 -0.7715 -0.7132
 1041TIP3    H224539   4.839   0.935   1.814  0.3483  0.2925  1.3559
 1042TIP3   OH224540   4.262   0.396  14.518  0.3083 -0.2966  0.8528
 1042TIP3    H124541   4.254   0.303  14.538  0.6234  0.3124  4.1423
 1042TIP3    H224542   4.347   0.421  14.554  0.1340  1.3247  0.1988
 1043TIP3   OH224543   2.008   6.234  16.121 -0.1390  0.1968 -0.3232
 1043TIP3    H124544   2.006   6.138  16.129 -0.5504  0.3123  0.8868
 1043TIP3    H224545   2.088   6.251  16.071  0.1483 -0.7555 -0.2011
 1044TIP3   OH224546   5.025   5.302   5.390 -0.0468 -0.2931 -0.2364
 1044TIP3    H124547   4.992   5.212   5.390 -0.9899  0.0315  0.6332
 1044TIP3    H224548   5.086   5.306   5.317 -3.3336 -0.4538 -3.1254
 1045TIP3   OH224549   4.135   3.463   2.698  0.5195  0.0740  0.0980
 1045TIP3    H124550   4.202   3.491   2.635  1.0227  1.7166  1.3345
 1045TIP3    H224551   4.160   3.505   2.780 -1.6868  0.2163  0.7360
 1046TIP3   OH224552   3.035   2.682   0.696 -0.5889  0.1860  0.0305
 1046TIP3    H124553   3.076   2.617   0.638 -2.4779 -1.0120 -0.0282
 1046TIP3    H224554   2.997   2.629   0.767 -1.7789  1.2813  0.2187
 1047TIP3   OH224555   2.082   2.879  11.577 -0.5247 -0.6237  0.2885
 1047TIP3    H124556   2.150   2.899  11.642  1.4840 -1.2848 -1.5342
 1047TIP3    H224557   2.020   2.823  11.624  0.5032 -0.5148  1.8254
 1048TIP3   OH224558   4.643   5.289  11.926 -0.6152 -0.2565 -0.0988
 1048TIP3    H124559   4.591   5.237  11.988  0.0452  0.5084  1.1105
 1048TIP3    H224560   4.621   5.380  11.947 -2.3627 -0.0461 -2.7279
 1049TIP3   OH224561   3.055   2.487  10.714  0.3289  0.0027 -0.1231
 1049TIP3    H124562   3.020   2.417  10.770 -0.4042  0.3211 -0.1837
 1049TIP3    H224563   3.138   2.510  10.755  0.0463 -0.1319  0.5404
 1050TIP3   OH224564   6.180   2.357   0.278  0.2198 -0.1963 -0.5404
 1050TIP3    H124565   6.211   2.375   0.366  1.4247 -1.3613 -0.7002
 1050TIP3    H224566   6.255   2.377   0.222  0.2791 -1.7672 -1.0621
 1051TIP3   OH224567   2.259   2.509  13.753 -0.7938  0.0287  0.5183
 1051TIP3    H124568   2.310   2.590  13.760 -1.6419  0.5437  0.9018
 1051TIP3    H224569   2.313   2.443  13.796  0.0467  0.3269 -0.0739
 1052TIP3   OH224570   5.360   4.673  11.088 -0.4750  0.1737 -0.4305
 1052TIP3    H124571   5.269   4.689  11.063  0.3751  1.0061 -3.1296
 1052TIP3    H224572   5.394   4.759  11.112 -0.0097  0.0865 -0.7679
 1053TIP3   OH224573   4.262   4.051   1.919  0.0174  0.1784  0.4002
 1053TIP3    H124574   4.254   4.089   1.831  3.0539  1.5895  0.6788
 1053TIP3    H224575   4.244   3.958   1.906  1.5928  0.1614 -1.9463
 1054TIP3   OH224576   3.470   2.799   3.867  0.3194  0.0064 -0.1296
 1054TIP3    H124577   3.469   2.840   3.781  0.3694  0.4780  0.0935
 1054TIP3    H224578   3.534   2.849   3.917 -0.5187  0.4414  0.5247
 1055TIP3   OH224579   0.033   4.855  15.111 -0.0890  0.0477  0.3272
 1055TIP3    H124580  -0.037   4.912  15.144  0.0482  0.7648 -0.5875
 1055TIP3    H224581   0.003   4.828  15.024  0.3849 -0.3341  0.2833
 1056TIP3   OH224582   5.099   1.984   0.669  0.2958 -0.2328 -0.3150
 1056TIP3    H124583   5.193   1.980   0.682  0.3899 -0.2258 -0.9552
 1056TIP3    H224584   5.078   1.904   0.619 -0.2245 -0.8826  0.9148
 1057TIP3   OH224585   2.795   6.617  12.790  0.3080 -0.1380  0.0696
 1057TIP3    H124586   2.828   6.625  12.880  0.7578  1.7621 -0.2351
 1057TIP3    H224587   2.716   6.564  12.798  0.4233 -0.1062  1.5671
 1058TIP3   OH224588   4.933   3.681  12.434 -0.0139 -0.1112  0.1966
 1058TIP3    H124589   5.010   3.665  12.380  0.1491 -1.7011  0.8603
 1058TIP3    H224590   4.897   3.594  12.451 -1.1366  0.5081  1.0771
 1059TIP3   OH224591   6.515   1.097  10.614  0.2360 -0.1153  0.1830
 1059TIP3    H124592   6.493   1.006  10.596  1.3133 -0.3747  0.1291
 1059TIP3    H224593   6.439   1.132  10.661  1.0474 -1.8755  2.9141
 1060TIP3   OH224594   3.288   2.260  13.061  0.0003  0.0742 -0.0630
 1060TIP3    H124595   3.376   2.264  13.025  0.4440  0.2730  1.0010
 1060TIP3    H224596   3.258   2.171  13.043 -0.1535  0.4600 -1.7262
 1061TIP3   OH224597   5.191   6.245  16.498 -0.1961  0.2505  0.5342
 1061TIP3    H124598   5.100   6.242  16.467 -0.4374  2.5618  0.9110
 1061TIP3    H224599   5.183   6.257  16.593  0.4775  1.3937  0.4537
 1062TIP3   OH224600   1.323   3.485   5.317  0.0767 -0.1971 -0.2319
 1062TIP3    H124601   1.411   3.486   5.355  0.9564  0.1106 -2.2227
 1062TIP3    H224602   1.328   3.546   5.244 -1.6871 -0.5216 -0.6424
 1063TIP3   OH224603   5.462   5.426  16.358 -0.0838 -0.3073  0.3094
 1063TIP3    H124604   5.421   5.500  16.402  0.8484  0.2402  0.2767
 1063TIP3    H224605   5.399   5.355  16.366 -1.6258  0.8908 -0.9465
 1064TIP3   OH224606   0.444   6.105  13.108  0.1994 -0.1110 -1.1337
 1064TIP3    H124607   0.535   6.078  13.108  0.4059  0.5731 -2.5497
 1064TIP3    H224608   0.431   6.146  13.194  1.0019 -0.8777 -0.6392
 1065TIP3   OH224609   6.278   5.978  13.673  0.5360 -0.0982  0.0994
 1065TIP3    H124610   6.349   6.038  13.647  1.1521 -0.7782  0.1975
 1065TIP3    H224611   6.233   6.024  13.744  0.5890  0.5436 -0.2741
 1066TIP3   OH224612   3.809   1.687   0.031  0.3188  0.1476 -0.2144
 1066TIP3    H124613   3.860   1.607   0.039  2.8061  1.8531  1.9631
 1066TIP3    H224614   3.808   1.706  -0.063  1.1489 -1.5244 -0.5634
 1067TIP3   OH224615   1.521   6.149  14.659  0.3851 -0.0563  0.6937
 1067TIP3    H124616   1.596   6.092  14.676  1.0094  0.8971  1.1874
 1067TIP3    H224617   1.531   6.176  14.567  0.7205  0.1662  0.7952
 1068TIP3   OH224618   5.660   3.072   3.290 -0.0811  0.3016 -0.4258
 1068TIP3    H124619   5.680   3.158   3.253  0.3092 -0.0717 -1.0991
 1068TIP3    H224620   5.735   3.017   3.266  0.3398  0.1309  1.2346
 1069TIP3   OH224621   3.047   2.236  11.439  0.4863 -0.4954 -0.0697
 1069TIP3    H124622   3.093   2.253  11.521 -1.1851 -0.3024  0.8505
 1069TIP3    H224623   3.006   2.151  11.451  0.2173 -0.4595 -0.6948
 1070TIP3   OH224624   0.910   5.661  12.837 -0.6491  0.0599 -0.3348
 1070TIP3    H124625   0.925   5.653  12.743  1.2234  0.9954 -0.1392
 1070TIP3    H224626   0.847   5.592  12.857  0.5237 -1.5145 -1.9228
 1071TIP3   OH224627   1.424   1.704   5.341 -0.9819 -0.2100 -0.4204
 1071TIP3    H124628   1.478   1.650   5.283 -0.0025 -0.9857  1.1682
 1071TIP3    H224629   1.477   1.713   5.421 -2.6224  0.1995  0.6353
 1072TIP3   OH224630   3.618   2.987   3.984 -0.2328 -0.2296 -0.1312
 1072TIP3    H124631   3.685   3.018   3.923 -0.6603  0.5531 -0.2159
 1072TIP3    H224632   3.553   3.057   3.985  0.4427  0.4101  2.2855
 1073TIP3   OH224633   3.442   3.888   5.269  0.0541  0.4062  0.3482
 1073TIP3    H124634   3.401   3.950   5.329 -1.5715 -0.5229  0.2425
 1073TIP3    H224635   3.426   3.925   5.182 -0.6767  0.0051  0.3019
 1074TIP3   OH224636   2.235   3.047   3.765  0.4755  0.5866 -0.7372
 1074TIP3    H124637   2.228   2.955   3.740 -0.0108  0.6461 -0.8391
 1074TIP3    H224638   2.329   3.064   3.771  0.5672 -0.3822  1.0192
 1075TIP3   OH224639   0.273   0.885  16.457  0.4531 -0.4963 -0.6715
 1075TIP3    H124640   0.301   0.829  16.529 -0.5275  0.2593  0.3177
 1075TIP3    H224641   0.178   0.891  16.466  0.3050 -0.5022 -2.1152
 1076TIP3   OH224642   1.971   3.232   4.922 -0.3143 -0.3861 -0.1548
 1076TIP3    H124643   1.888   3.262   4.960 -1.2963 -2.3893 -0.6586
 1076TIP3    H224644   2.034   3.242   4.993 -1.5697 -1.5028  1.1557
 1077TIP3   OH224645   6.117   5.038   3.773  0.7672 -0.3042  0.0415
 1077TIP3    H124646   6.147   5.123   3.806 -0.1520  0.0356 -0.0043
 1077TIP3    H224647   6.105   4.985   3.851  2.3135 -0.7152  0.0135
 1078TIP3   OH224648   4.234   0.108   3.108 -0.3710  0.1476  0.1643
 1078TIP3    H124649   4.237   0.028   3.160  2.8164 -0.1534 -0.3950
 1078TIP3    H224650   4.169   0.162   3.152 -1.7197 -2.2555  1.2373
 1079TIP3   OH224651   4.335   4.255  11.353 -0.3746  0.5768 -0.4350
 1079TIP3    H124652   4.391   4.178  11.364 -2.0758 -0.6483 -0.2365
 1079TIP3    H224653   4.257   4.223  11.308 -1.7501  1.8891  0.9360
 1080TIP3   OH224654   0.874   0.697   3.275  0.0756  0.3741 -1.0483
 1080TIP3    H124655   0.897   0.654   3.357  0.4573  0.2006 -1.2471
 1080TIP3    H224656   0.943   0.762   3.261  0.9651 -0.7940 -2.1249
 1081TIP3   OH224657   3.646   2.807  15.568  0.3053  0.2007  0.2313
 1081TIP3    H124658   3.603   2.834  15.649  0.4129  1.9145 -0.2628
 1081TIP3    H224659   3.617   2.871  15.503 -0.2807 -1.5265 -1.2387
 1082TIP3   OH224660   2.816   3.334  10.921  0.2573  0.0802  0.0195
 1082TIP3    H124661   2.894   3.368  10.876 -0.1790 -0.2130 -0.9694
 1082TIP3    H224662   2.798   3.250  10.878 -2.0694  1.2758 -1.4877
 1083TIP3   OH224663   0.505   4.628  16.348  0.0199  0.2194 -0.1720
 1083TIP3    H124664   0.479   4.658  16.261  1.8078  1.1722 -0.4045
 1083TIP3    H224665   0.492   4.704  16.404 -0.2301 -0.1115  0.2184
 1084TIP3   OH224666   6.525   0.736   0.697 -0.2415 -0.0350 -0.2566
 1084TIP3    H124667   6.561   0.652   0.728 -0.5209  0.3163  1.0316
 1084TIP3    H224668   6.589   0.767   0.633  0.5454 -0.5856  0.2547
 1085TIP3   OH224669   0.224   1.836   5.905  0.1019 -0.3428 -0.2384
 1085TIP3    H124670   0.152   1.802   5.852 -0.6588 -0.2906  0.7587
 1085TIP3    H224671   0.245   1.765   5.966 -0.1426  0.2147  0.5006
 1086TIP3   OH224672   4.277   5.100  15.322 -0.4925 -0.1464  0.1533
 1086TIP3    H124673   4.318   5.060  15.399  0.2836 -0.7780 -0.5761
 1086TIP3    H224674   4.345   5.156  15.285 -0.9057  0.2522 -0.0187
 1087TIP3   OH224675   2.160   4.485  12.237  0.7093 -0.3337  0.3650
 1087TIP3    H124676   2.213   4.563  12.218  1.6253 -0.8668  0.6930
 1087TIP3    H224677   2.070   4.517  12.238  0.8855  0.3096 -1.7022
 1088TIP3   OH224678   1.961   0.034  12.744 -0.4728  0.6143 -0.6012
 1088TIP3    H124679   1.955   0.041  12.839 -0.3520 -1.5291 -0.4226
 1088TIP3    H224680   1.912  -0.045  12.722 -0.7244  1.2286 -2.3506
 1089TIP3   OH224681   1.171   1.931  11.597  0.1515  0.1401 -0.0107
 1089TIP3    H124682   1.103   1.865  11.612  0.5485  0.2646  2.5325
 1089TIP3    H224683   1.131   2.014  11.622  0.6223  0.4589 -0.3024
 1090TIP3   OH224684   2.896   2.757  12.928 -0.1614 -0.3561  0.2432
 1090TIP3    H124685   2.987   2.783  12.944 -0.2970  0.9273 -0.9014
 1090TIP3    H224686   2.868   2.715  13.009  0.8163  1.0890  1.3578
 1091TIP3   OH224687   2.546   6.616   0.326 -0.2650 -0.0796  0.1857
 1091TIP3    H124688   2.640   6.602   0.326  0.0507  1.8519  0.0234
 1091TIP3    H224689   2.519   6.599   0.236  0.3150  1.5787 -0.3236
 1092TIP3   OH224690   6.739   0.869  15.296 -0.0319 -0.7142 -0.2839
 1092TIP3    H124691   6.786   0.880  15.378 -1.4209 -0.3134  0.4702
 1092TIP3    H224692   6.760   0.780  15.267  1.9269 -0.2212 -0.4449
 1093TIP3   OH224693   6.767   2.379  16.016  0.0568 -0.0140  0.1204
 1093TIP3    H124694   6.821   2.420  15.948 -1.3311  2.6077  0.5238
 1093TIP3    H224695   6.678   2.382  15.981 -0.4903  0.1276  1.4813
 1094TIP3   OH224696   3.771   1.278  16.381 -0.1757 -0.4514 -0.8198
 1094TIP3    H124697   3.749   1.275  16.474 -4.2589 -2.5083 -1.7453
 1094TIP3    H224698   3.731   1.360  16.350  1.2915  0.2974 -0.7916
 1095TIP3   OH224699   2.927   5.393   5.637 -0.0608 -1.1106  0.4087
 1095TIP3    H124700   2.951   5.407   5.729  0.8509 -2.8757  0.4437
 1095TIP3    H224701   3.001   5.346   5.599  0.2198  0.8638 -1.6238
 1096TIP3   OH224702   1.581   5.849   2.972  0.3046 -0.0189  0.2712
 1096TIP3    H124703   1.623   5.815   3.051  1.4846  1.4721  0.3155
 1096TIP3    H224704   1.520   5.916   3.005  0.2405  0.0693 -0.0226
 1097TIP3   OH224705   5.242   1.564   4.464  0.3855  0.9373  0.1486
 1097TIP3    H124706   5.294   1.484   4.468 -1.6170 -0.3879  0.8261
 1097TIP3    H224707   5.247   1.599   4.553  1.6832  1.8682 -0.2770
 1098TIP3   OH224708   5.381   2.671  15.877  0.0673  0.2482 -0.6874
 1098TIP3    H124709   5.297   2.679  15.923  1.5075 -0.6753  2.1670
 1098TIP3    H224710   5.356   2.647  15.788 -2.7223  0.2396  0.0325
 1099TIP3   OH224711   6.358   1.038  12.632  0.4221  0.1815  0.6570
 1099TIP3    H124712   6.281   1.053  12.687  0.2229 -1.1295  0.7475
 1099TIP3    H224713   6.410   1.117  12.643 -1.2177  1.3745  0.0806
 1100TIP3   OH224714   2.485   5.283   3.698  0.9686 -0.0268 -0.0687
 1100TIP3    H124715   2.515   5.216   3.637  2.0075  1.9762 -1.8194
 1100TIP3    H224716   2.550   5.283   3.768  0.6873 -1.1960  0.1926
 1101TIP3   OH224717   4.979   4.659   5.700 -0.4314 -0.6798  0.3284
 1101TIP3    H124718   5.052   4.685   5.755 -0.7084 -0.0457  0.3968
 1101TIP3    H224719   4.959   4.569   5.727  0.8921 -1.1799 -0.3119
 1102TIP3   OH224720   3.726   5.426   5.689 -0.0338  0.7173 -0.8204
 1102TIP3    H124721   3.736   5.498   5.627  0.7391  1.6909  0.4134
 1102TIP3    H224722   3.710   5.468   5.773  0.0614 -0.5549 -0.1448
 1103TIP3   OH224723   2.615   2.300  12.799  0.3051  0.1391  0.0513
 1103TIP3    H124724   2.692   2.355  12.812  1.0112 -0.5640 -1.0632
 1103TIP3    H224725   2.632   2.223  12.853 -0.0571  0.4064  0.5484
 1104TIP3   OH224726   3.003   4.764  12.790  0.4900 -0.3398 -0.2310
 1104TIP3    H124727   3.091   4.799  12.779  0.7943 -1.2347 -0.7024
 1104TIP3    H224728   2.977   4.790  12.879  1.2571 -0.1388 -0.0640
 1105TIP3   OH224729   5.328   1.057   4.695 -0.1334  0.4233 -0.3977
 1105TIP3    H124730   5.319   1.033   4.787 -0.5934  2.3173  0.0784
 1105TIP3    H224731   5.369   0.981   4.654  0.2457 -0.3645  1.4040
 1106TIP3   OH224732   3.907   4.935  10.869 -0.6381 -0.1867 -0.2367
 1106TIP3    H124733   3.838   4.933  10.935 -0.8304  0.8707 -0.4098
 1106TIP3    H224734   3.942   5.024  10.873  1.2495 -0.9365  0.4017
 1107TIP3   OH224735   1.939   5.015  12.565  0.0907 -0.4127  0.1397
 1107TIP3    H124736   1.941   4.968  12.482  0.0031 -1.5070  0.7392
 1107TIP3    H224737   1.964   5.105  12.543 -2.6794 -0.0028 -1.5069
 1108TIP3   OH224738   6.005   3.046  15.077 -0.2180  0.1831  0.7021
 1108TIP3    H124739   6.068   2.982  15.045 -0.2133  0.3808  0.3114
 1108TIP3    H224740   5.999   3.029  15.171  0.8580  0.5547  0.8470
 1109TIP3   OH224741   2.820   2.072  14.556 -0.2091  0.3298 -0.4081
 1109TIP3    H124742   2.786   2.160  14.571  0.3000  0.5595 -0.6135
 1109TIP3    H224743   2.804   2.056  14.463 -0.6921  0.0366 -0.2769
 1110TIP3   OH224744   4.657   1.917   5.260  0.6416  0.3291  0.3054
 1110TIP3    H124745   4.635   1.981   5.327  1.2899  0.3699  0.4865
 1110TIP3    H224746   4.655   1.833   5.306 -1.8157  0.0335 -0.3065
 1111TIP3   OH224747   1.289   1.882  12.465 -0.5290 -0.0027 -0.3632
 1111TIP3    H124748   1.243   1.940  12.405 -2.5552 -2.0416 -0.8552
 1111TIP3    H224749   1.351   1.834  12.409  0.9469  1.4474 -0.0041
 1112TIP3   OH224750   0.006   4.342   2.742  0.0074 -0.6915 -0.3146
 1112TIP3    H124751  -0.078   4.356   2.699  1.0649  0.4310 -2.0475
 1112TIP3    H224752   0.050   4.277   2.688  0.2247 -1.3686  0.6629
 1113TIP3   OH224753   6.499   6.683   5.164 -0.6631  0.0193  0.3353
 1113TIP3    H124754   6.572   6.628   5.191 -1.9001 -2.0154 -0.3703
 1113TIP3    H224755   6.429   6.662   5.226 -1.4072  0.1837 -0.4393
 1114TIP3   OH224756   1.914   6.256  14.175  0.0477  0.0207 -0.5358
 1114TIP3    H124757   1.935   6.165  14.156  0.5444  0.1207 -0.4651
 1114TIP3    H224758   1.833   6.273  14.127 -1.8239 -1.4044  2.0209
 1115TIP3   OH224759   1.839   4.609   0.344  0.3553  0.4170  0.4853
 1115TIP3    H124760   1.747   4.584   0.339  0.0744  1.1048  1.9666
 1115TIP3    H224761   1.871   4.565   0.422  1.5325 -0.5319 -0.5081
 1116TIP3   OH224762   0.601   5.311  14.090  0.3573  0.4661 -0.4769
 1116TIP3    H124763   0.677   5.271  14.131  0.4970 -0.2474 -1.4067
 1116TIP3    H224764   0.581   5.387  14.145  0.6032 -0.3909  0.8225
 1117TIP3   OH224765   0.466   6.256  16.178 -0.7919 -0.0151 -0.1286
 1117TIP3    H124766   0.551   6.283  16.212 -1.0887 -1.5149  1.9289
 1117TIP3    H224767   0.481   6.239  16.085  1.3094 -0.8692  0.3428
 1118TIP3   OH224768   3.340   6.126   4.629  0.2295  0.4488 -0.2563
 1118TIP3    H124769   3.272   6.193   4.638  0.5275  0.7090  0.0845
 1118TIP3    H224770   3.366   6.107   4.719 -0.2968 -0.5820 -0.3190
 1119TIP3   OH224771   1.992   6.176   4.574 -0.0963  0.0411 -0.2790
 1119TIP3    H124772   2.053   6.118   4.528 -1.0333 -1.4510  0.3585
 1119TIP3    H224773   1.915   6.123   4.589  0.1149  0.5597  2.8867
 1120TIP3   OH224774   1.879   6.579   2.668  0.5142 -0.1237 -0.3982
 1120TIP3    H124775   1.839   6.497   2.638 -2.5773  1.4636 -0.7584
 1120TIP3    H224776   1.920   6.616   2.590 -0.8848  0.2449 -0.9585
 1121TIP3   OH224777   5.908   2.838   5.992 -0.0073  0.2220 -0.3317
 1121TIP3    H124778   5.870   2.770   5.937 -1.4502  0.0775  0.8240
 1121TIP3    H224779   5.893   2.808   6.082  1.3906  0.9561  0.1574
 1122TIP3   OH224780   3.123   6.462   5.249 -0.6572 -0.1082 -0.2511
 1122TIP3    H124781   3.198   6.465   5.309 -0.8215  1.7014 -0.1249
 1122TIP3    H224782   3.155   6.413   5.173  0.4924  0.1933  0.0299
 1123TIP3   OH224783   0.646   5.246   0.390 -0.2435  0.4377 -0.4224
 1123TIP3    H124784   0.709   5.239   0.318  1.4604 -0.7141  1.1292
 1123TIP3    H224785   0.597   5.326   0.371  0.8772  0.7241 -2.2983
 1124TIP3   OH224786   1.213   2.506   4.408 -0.3168  0.0727 -0.3686
 1124TIP3    H124787   1.286   2.473   4.459  0.4965  1.8275 -0.3601
 1124TIP3    H224788   1.136   2.489   4.462  0.6270  2.7976  1.9216
 1125TIP3   OH224789   4.607   0.014   4.101  0.5068  0.1563 -0.2251
 1125TIP3    H124790   4.631   0.101   4.134 -0.5634  0.2058  0.4783
 1125TIP3    H224791   4.690  -0.029   4.082  1.0662  1.0684  0.1272
 1126TIP3   OH224792   3.603   0.803   1.621  0.3368 -0.1317  0.1516
 1126TIP3    H124793   3.624   0.763   1.705 -0.9617 -0.0549  0.5233
 1126TIP3    H224794   3.532   0.865   1.641 -0.0943 -0.2360 -1.0254
 1127TIP3   OH224795   5.854   0.012  14.144 -0.6558  0.0568 -0.1597
 1127TIP3    H124796   5.938   0.059  14.145 -0.2482 -0.6369 -1.2906
 1127TIP3    H224797   5.802   0.056  14.077 -1.1273  0.3596  0.4027
 1128TIP3   OH224798   1.573   6.647  11.012  0.5599  0.4995 -0.3965
 1128TIP3    H124799   1.662   6.614  11.014  0.5822  0.5293 -0.7659
 1128TIP3    H224800   1.579   6.737  11.044  0.3614 -0.1410  1.5118
 1129TIP3   OH224801   1.583   4.347   4.754  0.0101 -0.0335 -0.4328
 1129TIP3    H124802   1.535   4.265   4.744 -3.5479  1.7931  0.8569
 1129TIP3    H224803   1.661   4.322   4.804 -1.0219 -2.6229 -0.0001
 1130TIP3   OH224804   3.886   4.918   3.982  0.5274  0.1318  0.3472
 1130TIP3    H124805   3.911   5.008   3.961 -0.2292  0.0689 -0.8888
 1130TIP3    H224806   3.793   4.923   4.004 -0.3016 -0.7742 -2.7187
 1131TIP3   OH224807   3.323   1.745  14.263  0.2241  0.1102 -0.5946
 1131TIP3    H124808   3.353   1.763  14.352  0.8467 -0.4804 -0.6864
 1131TIP3    H224809   3.401   1.757  14.208 -0.1785  0.5643 -1.0696
 1132TIP3   OH224810   1.317   6.301  15.844 -0.6486  0.2071 -0.5613
 1132TIP3    H124811   1.382   6.371  15.844  0.8508 -1.1395  0.1940
 1132TIP3    H224812   1.260   6.320  15.769 -0.3286  2.2635 -0.2984
 1133TIP3   OH224813   0.908   6.258   4.709  0.1148 -0.4155  0.2247
 1133TIP3    H124814   0.896   6.163   4.706 -0.1948 -0.3799  0.2861
 1133TIP3    H224815   0.829   6.290   4.753 -2.5893  0.3639 -4.8235
 1134TIP3   OH224816   1.070   1.474  14.679 -0.4566  0.6951 -0.1420
 1134TIP3    H124817   1.045   1.427  14.758 -0.2411  0.4146 -0.2373
 1134TIP3    H224818   1.019   1.555  14.681 -1.5283  0.0337 -0.4471
 1135TIP3   OH224819   5.768   1.279   4.342  0.0551  0.3629  0.1207
 1135TIP3    H124820   5.739   1.355   4.293 -0.5559  0.5896  0.8145
 1135TIP3    H224821   5.860   1.296   4.362 -0.2069  1.1348  0.6735
 1136TIP3   OH224822   1.688   4.240   3.621  0.0734 -0.1395 -0.1302
 1136TIP3    H124823   1.626   4.233   3.548 -2.1747  2.0284  1.5042
 1136TIP3    H224824   1.738   4.319   3.603  0.6517 -0.5092 -0.1590
 1137TIP3   OH224825   1.012   5.892   0.031 -0.0030 -0.9714 -0.0425
 1137TIP3    H124826   1.048   5.968   0.076 -0.7328 -0.6930  0.0783
 1137TIP3    H224827   1.080   5.865  -0.030  0.1151 -0.0041 -0.3470
 1138TIP3   OH224828   0.995   1.961  11.159  0.0657 -0.3133 -0.0054
 1138TIP3    H124829   0.968   1.979  11.249 -1.5100 -1.2838 -0.2732
 1138TIP3    H224830   0.969   2.039  11.110 -0.4568 -0.4168  0.1043
 1139TIP3   OH224831   3.410   2.241  12.624 -0.5880 -0.3218 -0.3728
 1139TIP3    H124832   3.376   2.322  12.588 -0.8093 -0.3593 -0.2530
 1139TIP3    H224833   3.339   2.178  12.612 -0.8192 -0.2388  0.4654
 1140TIP3   OH224834   1.523   3.180   2.084  0.8530  0.4462  0.1411
 1140TIP3    H124835   1.497   3.101   2.036 -1.1015  1.0523  0.1888
 1140TIP3    H224836   1.586   3.223   2.025  0.5228 -0.1976 -0.6943
 1141TIP3   OH224837   0.821   3.529  16.932 -0.3109 -0.1569 -0.4925
 1141TIP3    H124838   0.872   3.527  17.013  1.6138 -2.7945 -1.7222
 1141TIP3    H224839   0.824   3.621  16.905  0.9027  0.3506  1.2567
 1142TIP3   OH224840   4.556   5.354  11.482  0.0728 -0.5984 -0.1321
 1142TIP3    H124841   4.582   5.281  11.538  2.1084  0.1419 -0.1021
 1142TIP3    H224842   4.492   5.315  11.422  1.6978 -2.6043 -0.6353
 1143TIP3   OH224843   1.425   1.274  11.961  0.1711 -0.3517 -0.1604
 1143TIP3    H124844   1.375   1.304  12.036  0.7088 -0.7444  0.3536
 1143TIP3    H224845   1.491   1.215  11.997  0.1917 -0.8356 -0.9780
 1144TIP3   OH224846   2.735   4.403   6.195  0.1698 -0.3612 -0.1639
 1144TIP3    H124847   2.798   4.411   6.267 -1.0031 -1.3906  0.9939
 1144TIP3    H224848   2.654   4.442   6.229 -0.4019 -0.8705 -0.9191
 1145TIP3   OH224849   3.051   1.443  12.769  0.5665 -0.1954  0.5225
 1145TIP3    H124850   3.029   1.460  12.861  0.7587  0.4488  0.4532
 1145TIP3    H224851   2.972   1.403  12.733 -0.1189  1.0946  0.5556
 1146TIP3   OH224852   1.536   1.781   3.289 -0.3916  0.0919  0.0362
 1146TIP3    H124853   1.482   1.797   3.212 -0.0306 -1.4160 -0.5451
 1146TIP3    H224854   1.477   1.739   3.351 -0.0957 -0.8303 -0.3015
 1147TIP3   OH224855   2.684   5.093  16.270 -0.3729  0.3951 -0.2848
 1147TIP3    H124856   2.635   5.062  16.194  0.8945  0.1731 -1.0176
 1147TIP3    H224857   2.623   5.150  16.316 -1.8049 -0.9990 -0.4128
 1148TIP3   OH224858   1.197   2.352  14.918 -0.1005 -0.2621  0.2477
 1148TIP3    H124859   1.175   2.288  14.850 -2.3853 -0.3811  1.0625
 1148TIP3    H224860   1.279   2.320  14.955 -0.8304 -2.3341  0.1414
 1149TIP3   OH224861   4.169   3.692   0.692  0.4604  0.5640  0.2729
 1149TIP3    H124862   4.212   3.746   0.626  0.2157  0.7643  0.2769
 1149TIP3    H224863   4.077   3.691   0.666  0.7769 -1.4913 -0.8502
 1150TIP3   OH224864   0.635   1.086   6.593  0.3446  0.6955 -0.2351
 1150TIP3    H124865   0.555   1.034   6.581  0.9748 -0.5024  0.6935
 1150TIP3    H224866   0.706   1.022   6.595  1.2346  1.6677 -0.0155
 1151TIP3   OH224867   6.134   6.761  15.667 -0.0613  0.0977 -0.3303
 1151TIP3    H124868   6.228   6.749  15.683  0.2344  0.0162 -2.0047
 1151TIP3    H224869   6.106   6.679  15.628 -1.2671 -0.5943  1.9377
 1152TIP3   OH224870   5.909   1.399  11.804  0.2007 -0.8133 -0.4251
 1152TIP3    H124871   5.920   1.408  11.899 -1.5784 -0.3078 -0.2458
 1152TIP3    H224872   5.977   1.337  11.778  1.0023 -0.6116  1.1064
 1153TIP3   OH224873   0.279   4.409   5.236 -0.1254 -0.0679 -0.0767
 1153TIP3    H124874   0.234   4.439   5.315  1.0635 -3.4405  2.0022
 1153TIP3    H224875   0.363   4.455   5.237 -0.3885  0.4097  0.2315
 1154TIP3   OH224876   0.150   3.793   1.703 -0.2487 -0.2766  0.7774
 1154TIP3    H124877   0.105   3.745   1.772 -0.5318  0.3318  1.0272
 1154TIP3    H224878   0.092   3.867   1.684 -0.5705 -0.9119 -0.7152
 1155TIP3   OH224879   2.674   1.425  16.653 -0.1060 -0.0468  0.0909
 1155TIP3    H124880   2.748   1.476  16.686  0.6971 -1.7196  0.8797
 1155TIP3    H224881   2.673   1.443  16.559  0.7024  0.7477  0.2280
 1156TIP3   OH224882   3.578   2.006   2.501  0.0775 -0.1200 -0.1887
 1156TIP3    H124883   3.639   1.944   2.462 -1.4742 -0.9206 -1.4325
 1156TIP3    H224884   3.496   1.992   2.453 -0.9267  1.3063  1.0531
 1157TIP3   OH224885   4.813   1.900   3.125  0.5541 -0.2133 -0.4877
 1157TIP3    H124886   4.720   1.883   3.137  0.7159 -1.3667 -0.8747
 1157TIP3    H224887   4.829   1.886   3.031  1.3245 -1.0273 -0.2412
 1158TIP3   OH224888   5.795   3.488  16.839  0.5112 -0.2530  0.8914
 1158TIP3    H124889   5.809   3.398  16.867 -0.0234 -0.2357  1.2268
 1158TIP3    H224890   5.701   3.502  16.850  0.6267  0.4173  1.0778
 1159TIP3   OH224891   2.088   3.208  12.049  0.3696  0.1127  0.2946
 1159TIP3    H124892   2.068   3.301  12.042  0.5092 -0.0211 -2.7281
 1159TIP3    H224893   2.183   3.205  12.061  0.3049  0.3639  0.8901
 1160TIP3   OH224894   6.372   1.124  14.464 -0.0061  0.1522 -0.3880
 1160TIP3    H124895   6.408   1.107  14.551  0.4892 -0.5431 -0.7236
 1160TIP3    H224896   6.295   1.067  14.458  0.5476 -0.5657 -0.7855
 1161TIP3   OH224897   5.177   4.884   1.910 -0.1364 -0.3484  0.0031
 1161TIP3    H124898   5.255   4.838   1.939  0.0721  0.3146  0.5052
 1161TIP3    H224899   5.139   4.921   1.990  0.0791  0.9314 -0.4743
 1162TIP3   OH224900   5.709   0.936   0.361 -0.6424 -0.1727  0.5187
 1162TIP3    H124901   5.744   1.000   0.423 -0.4238  0.0538  0.1606
 1162TIP3    H224902   5.642   0.985   0.312 -1.9370 -0.7756  1.6463
 1163TIP3   OH224903   6.686   1.197   0.355 -0.8574 -0.3521  0.2107
 1163TIP3    H124904   6.749   1.256   0.315 -0.5203 -0.8375  0.0124
 1163TIP3    H224905   6.647   1.150   0.281 -1.0555 -0.4400  0.3689
 1164TIP3   OH224906   1.495   6.522  15.867 -0.2410  0.3976  0.4556
 1164TIP3    H124907   1.523   6.605  15.830 -0.5278  0.5135  0.5010
 1164TIP3    H224908   1.576   6.470  15.874  0.1131  1.0749  1.4672
 1165TIP3   OH224909   2.047   1.718   2.420 -0.0390 -0.2577 -0.0572
 1165TIP3    H124910   1.974   1.668   2.456 -0.2803  0.2774  0.2064
 1165TIP3    H224911   2.035   1.807   2.455 -1.4891  0.8342 -3.1744
 1166TIP3   OH224912   4.655   5.194  12.851 -0.3411  0.0149 -0.1115
 1166TIP3    H124913   4.595   5.130  12.889  0.8386 -1.0895 -0.0783
 1166TIP3    H224914   4.686   5.245  12.926 -0.8612  0.2579 -0.0629
 1167TIP3   OH224915   0.238   1.456  13.720  0.7702  0.4992 -1.1853
 1167TIP3    H124916   0.189   1.534  13.747 -0.1975 -1.3702  3.0132
 1167TIP3    H224917   0.329   1.475  13.744  0.5591  0.4446 -0.3093
 1168TIP3   OH224918   0.315   0.165  16.011  0.1604  0.4457 -0.6443
 1168TIP3    H124919   0.343   0.200  15.927  0.7752 -1.1993 -1.1381
 1168TIP3    H224920   0.282   0.077  15.992 -2.1419  1.0185  0.4544
 1169TIP3   OH224921   3.366   6.365   0.680 -0.2680  0.2100  0.3153
 1169TIP3    H124922   3.412   6.368   0.597  0.1023  0.6795  0.5334
 1169TIP3    H224923   3.320   6.281   0.680  1.1877 -0.6021  0.4301
 1170TIP3   OH224924   3.059   4.052  12.654  0.3238  0.6023 -0.0601
 1170TIP3    H124925   3.002   4.120  12.690 -1.1208 -1.9566  2.7187
 1170TIP3    H224926   3.004   4.005  12.592  0.9738  1.2600 -1.1371
 1171TIP3   OH224927   5.819   1.821  15.285 -0.0573 -0.2737  0.1270
 1171TIP3    H124928   5.823   1.916  15.289  0.1704 -0.2678 -0.2632
 1171TIP3    H224929   5.727   1.800  15.304 -0.6235  0.1372 -2.0197
 1172TIP3   OH224930   4.702   3.406  10.679 -0.2402  0.3325 -0.4164
 1172TIP3    H124931   4.794   3.379  10.675 -0.2289  0.5640 -1.7740
 1172TIP3    H224932   4.666   3.354  10.752  0.5721 -0.9407 -0.8953
 1173TIP3   OH224933   5.247   2.135  10.576 -0.1508 -0.2769  0.3780
 1173TIP3    H124934   5.266   2.064  10.515  1.0332 -0.3788  0.8496
 1173TIP3    H224935   5.224   2.209  10.520  1.8605 -0.0953 -0.2402
 1174TIP3   OH224936   5.048   1.720   1.546 -0.3767 -0.3591  0.2123
 1174TIP3    H124937   5.071   1.759   1.462 -1.0236 -1.0921 -0.3077
 1174TIP3    H224938   4.998   1.642   1.524 -1.0903 -0.2216  1.2907
 1175TIP3   OH224939   1.351   2.757   5.384  0.6224 -0.4607  0.0573
 1175TIP3    H124940   1.301   2.774   5.464  0.8528  0.8561 -0.0721
 1175TIP3    H224941   1.323   2.825   5.323  1.4458 -0.6466 -0.5348
 1176TIP3   OH224942   4.340   2.759  11.337 -0.1472 -0.5590  0.0981
 1176TIP3    H124943   4.337   2.855  11.330  1.0725 -0.7129 -4.8436
 1176TIP3    H224944   4.413   2.742  11.396 -1.3302  1.5189  2.2584
 1177TIP3   OH224945   4.889   6.271  11.430 -0.0138 -0.0382 -0.0325
 1177TIP3    H124946   4.866   6.344  11.488  3.1523  0.8579  0.1993
 1177TIP3    H224947   4.835   6.286  11.352 -0.3506  1.8338  0.5131
 1178TIP3   OH224948   3.862   4.272  12.507 -0.4230  0.0539  0.0656
 1178TIP3    H124949   3.877   4.349  12.562  1.5366  0.2807 -0.7149
 1178TIP3    H224950   3.827   4.206  12.567  1.0479  0.4998  1.4680
 1179TIP3   OH224951   5.845   2.551   3.562  0.3356  0.1171  0.1331
 1179TIP3    H124952   5.812   2.641   3.570 -0.1201 -0.0467  0.1234
 1179TIP3    H224953   5.781   2.508   3.505  0.4880 -0.2444  0.2380
 1180TIP3   OH224954   1.526   6.705   0.387 -0.1085  0.1098 -0.3626
 1180TIP3    H124955   1.451   6.760   0.409 -0.0299  0.0811 -0.0093
 1180TIP3    H224956   1.496   6.649   0.316 -1.5763 -2.3799  2.0947
 1181TIP3   OH224957   6.527   0.030   2.370 -0.0819 -0.4530  0.2079
 1181TIP3    H124958   6.531  -0.052   2.320 -0.4493  0.6328 -1.6737
 1181TIP3    H224959   6.444   0.070   2.342 -1.1761 -0.6141  3.0306
 1182TIP3   OH224960   2.427   2.396  13.024  0.2701 -0.0386 -0.2017
 1182TIP3    H124961   2.470   2.387  12.939 -3.0136 -1.2107 -1.8182
 1182TIP3    H224962   2.375   2.476  13.017  1.0687  0.6323  1.2455
 1183TIP3   OH224963   1.921   3.810   5.081  0.1911 -0.1591  0.2541
 1183TIP3    H124964   2.008   3.852   5.086  0.1357  0.1376 -1.0381
 1183TIP3    H224965   1.938   3.725   5.041 -0.1490  0.0467 -0.3436
 1184TIP3   OH224966   3.229   1.715  15.213 -0.0651  0.3518 -0.4459
 1184TIP3    H124967   3.256   1.624  15.226  2.1689  0.9683 -0.5409
 1184TIP3    H224968   3.150   1.710  15.161  0.1346 -1.5400 -0.5813
 1185TIP3   OH224969   6.700   2.626  11.031 -0.1149 -0.2714  0.0588
 1185TIP3    H124970   6.738   2.549  10.988  1.3791  0.4775  0.0032
 1185TIP3    H224971   6.738   2.701  10.983 -2.5739  0.4949 -0.7705
 1186TIP3   OH224972   4.589   0.378  16.654  0.1317  0.5697 -0.2780
 1186TIP3    H124973   4.673   0.377  16.700 -0.8242 -1.8301  1.4852
 1186TIP3    H224974   4.529   0.422  16.715 -0.4632  0.0287 -0.4666
 1187TIP3   OH224975   2.208   4.501  15.402 -0.0223  0.5558  0.2284
 1187TIP3    H124976   2.225   4.448  15.324 -1.0775  2.1397 -1.0907
 1187TIP3    H224977   2.152   4.446  15.457  0.9988 -0.6933  0.0490
 1188TIP3   OH224978   3.735   6.059  13.340  0.0829  0.0889 -0.1269
 1188TIP3    H124979   3.706   6.144  13.309 -1.1075  0.5645  2.2413
 1188TIP3    H224980   3.656   6.015  13.371  1.0603 -0.7962  1.1988
 1189TIP3   OH224981   6.102   4.468  13.749  0.0013 -0.2249 -0.2701
 1189TIP3    H124982   6.147   4.539  13.703 -0.0650  0.6141  0.9230
 1189TIP3    H224983   6.040   4.433  13.685 -0.9043  1.6726 -0.4769
 1190TIP3   OH224984   5.448   0.905   2.302 -0.0426 -0.2298  0.2412
 1190TIP3    H124985   5.523   0.892   2.244 -0.1645 -0.2625  0.0899
 1190TIP3    H224986   5.433   0.819   2.342  1.0109  0.1519  1.5043
 1191TIP3   OH224987   3.503   1.079   5.306 -0.0682  0.1055  0.4155
 1191TIP3    H124988   3.536   1.072   5.396  4.3901 -2.3539 -1.2471
 1191TIP3    H224989   3.431   1.017   5.302 -0.0921 -0.0112  2.1946
 1192TIP3   OH224990   6.006   6.114  15.269  0.9481  0.1892 -0.1533
 1192TIP3    H124991   6.039   6.027  15.292  1.4309  0.1371 -1.0299
 1192TIP3    H224992   5.913   6.100  15.248  1.5950 -0.5497 -2.6786
 1193TIP3   OH224993   1.124   1.093   4.964 -0.0282  0.0929 -0.1994
 1193TIP3    H124994   1.106   1.174   4.917 -0.0757  0.1682 -0.0539
 1193TIP3    H224995   1.176   1.120   5.040  1.0534 -0.1756 -0.8383
 1194TIP3   OH224996   4.587   2.116   3.430  0.2041 -0.5162 -0.4135
 1194TIP3    H124997   4.569   2.028   3.395 -1.9682 -0.3237  0.1268
 1194TIP3    H224998   4.542   2.118   3.515  0.4005  1.0487 -0.3289
 1195TIP3   OH224999   4.201   2.593   2.086  0.0082  0.2436  0.1736
 1195TIP3    H125000   4.121   2.541   2.094 -0.5383  1.1543  0.7018
 1195TIP3    H225001   4.235   2.598   2.176 -0.2683  1.2915  0.2301
 1196TIP3   OH225002   3.620   0.283  11.999 -0.4539 -0.2768  0.7357
 1196TIP3    H125003   3.549   0.253  11.943  0.3655  0.2855 -0.6137
 1196TIP3    H225004   3.591   0.260  12.088 -2.0174 -0.6381  0.1531
 1197TIP3   OH225005   4.937   2.254  12.042  0.3688 -1.0411 -0.6151
 1197TIP3    H125006   4.965   2.326  11.986 -0.0895 -0.4433 -0.0789
 1197TIP3    H225007   5.006   2.247  12.108 -0.4601  0.0607  0.3722
 1198TIP3   OH225008   3.686   1.747  12.711  0.1395 -0.7507 -0.1279
 1198TIP3    H125009   3.735   1.667  12.694  3.3453  1.0768  0.1946
 1198TIP3    H225010   3.700   1.800  12.632 -0.3154  0.2872  0.4905
 1199TIP3   OH225011   2.646   2.205   5.984 -0.1563 -0.6018  0.0113
 1199TIP3    H125012   2.658   2.116   6.017  0.5689  0.3199  2.3174
 1199TIP3    H225013   2.557   2.229   6.010 -0.1697 -0.4716 -0.1515
 1200TIP3   OH225014   0.215   1.082  14.724  0.8748 -0.3230  0.8234
 1200TIP3    H125015   0.240   1.165  14.764  0.9170 -0.3475  0.8488
 1200TIP3    H225016   0.215   1.099  14.630  0.9579 -0.3160  0.8251
 1201TIP3   OH225017   1.402   6.021  11.468 -0.4434 -0.1475 -0.4111
 1201TIP3    H125018   1.334   6.000  11.404  0.1121 -1.3555 -0.6129
 1201TIP3    H225019   1.470   5.955  11.454  0.6303  0.8442  0.0130
 1202TIP3   OH225020   3.996   3.893  13.192 -0.7752  0.2635 -0.1808
 1202TIP3    H125021   3.958   3.934  13.270 -1.3587  0.8328 -0.7549
 1202TIP3    H225022   3.984   3.799  13.206  0.0332  0.3047  0.8782
 1203TIP3   OH225023   3.360   5.554  12.404  0.5938 -0.1591  0.2235
 1203TIP3    H125024   3.294   5.485  12.416  0.6175 -0.1122  0.6337
 1203TIP3    H225025   3.438   5.520  12.447  0.7587 -0.0934 -0.0215
 1204TIP3   OH225026   4.329   6.311   1.459 -0.3066 -0.6165  0.1343
 1204TIP3    H125027   4.278   6.272   1.531 -0.6406  2.5520  1.6948
 1204TIP3    H225028   4.264   6.335   1.394 -0.5234  0.7632  0.8456
 1205TIP3   OH225029   4.546   4.721  16.881 -0.1724 -0.1481 -0.2655
 1205TIP3    H125030   4.596   4.802  16.868  0.2758 -0.1962  1.0668
 1205TIP3    H225031   4.485   4.742  16.952  0.8642 -1.3840  1.0059
 1206TIP3   OH225032   3.874   4.444   4.788 -0.0144 -0.2992 -0.3484
 1206TIP3    H125033   3.889   4.351   4.805 -1.2646 -0.5659 -0.6665
 1206TIP3    H225034   3.872   4.484   4.875 -2.4476 -1.0423 -0.0407
 1207TIP3   OH225035   6.666   1.287   4.340  0.3569 -0.6681 -0.6674
 1207TIP3    H125036   6.756   1.307   4.315  0.0589  0.7333 -0.7162
 1207TIP3    H225037   6.615   1.307   4.261  0.2327 -3.6056 -1.3714
 1208TIP3   OH225038   3.313   2.832   4.091  0.4527 -1.1292  0.1109
 1208TIP3    H125039   3.308   2.925   4.113  0.1340 -1.4267  1.3413
 1208TIP3    H225040   3.367   2.828   4.012  1.9445 -0.0492  1.0503
 1209TIP3   OH225041   5.803   4.687   2.427 -0.6101 -0.1054 -0.4067
 1209TIP3    H125042   5.826   4.770   2.469 -0.7324  1.4295 -3.2384
 1209TIP3    H225043   5.707   4.687   2.424 -0.6412 -0.7486  0.3062
 1210TIP3   OH225044   6.671   4.156  16.209  0.5539 -0.0033 -0.1156
 1210TIP3    H125045   6.706   4.163  16.298  2.1184  0.6366 -0.7728
 1210TIP3    H225046   6.593   4.212  16.209  1.3434  1.1007  0.4619
 1211TIP3   OH225047   2.870   2.380  15.827 -0.9821 -0.3183 -0.8682
 1211TIP3    H125048   2.841   2.466  15.795 -2.0730 -1.3796 -2.8459
 1211TIP3    H225049   2.966   2.385  15.827 -1.0342  2.1089  2.5578
 1212TIP3   OH225050   4.649   0.144  14.146 -0.0507  0.4632  0.1917
 1212TIP3    H125051   4.602   0.075  14.099  1.5584  0.1045 -0.9113
 1212TIP3    H225052   4.593   0.163  14.222 -0.1383 -2.5712  0.9254
 1213TIP3   OH225053   2.526   0.664   1.445 -0.2559  0.0043  0.0766
 1213TIP3    H125054   2.622   0.658   1.444 -0.2810 -0.4829  0.4125
 1213TIP3    H225055   2.505   0.698   1.532 -0.4032 -0.0656  0.0678
 1214TIP3   OH225056   6.165   4.550   3.048 -0.1000 -0.6248 -0.2003
 1214TIP3    H125057   6.198   4.592   2.969 -1.9921 -0.6381 -1.0456
 1214TIP3    H225058   6.120   4.620   3.096 -0.3913 -0.9651  0.0288
 1215TIP3   OH225059   5.197   2.165  15.308 -0.0382 -0.4537 -0.0473
 1215TIP3    H125060   5.186   2.168  15.213 -1.4276  0.2124  0.1216
 1215TIP3    H225061   5.289   2.139  15.321  0.2736 -0.1406 -1.5597
 1216TIP3   OH225062   5.426   2.779   5.839 -0.1254  0.2934 -0.1788
 1216TIP3    H125063   5.425   2.752   5.931  1.4546 -1.1075 -0.5481
 1216TIP3    H225064   5.480   2.858   5.838  1.9856 -1.1247 -0.2564
 1217TIP3   OH225065   5.008   4.689   1.817 -0.6354 -0.3031 -0.0218
 1217TIP3    H125066   5.072   4.744   1.863 -0.6494  0.5820 -1.0452
 1217TIP3    H225067   5.053   4.605   1.808 -0.0221 -0.0091  0.2011
 1218TIP3   OH225068   1.650   4.710  14.555 -0.3418 -0.1872  0.1053
 1218TIP3    H125069   1.571   4.681  14.600 -0.5639  1.6742  0.9459
 1218TIP3    H225070   1.697   4.762  14.619  0.7106  0.1696 -0.9335
 1219TIP3   OH225071   2.805   5.682   5.070  0.1122  0.4300 -0.1732
 1219TIP3    H125072   2.869   5.628   5.116  1.0171  1.4528 -0.2266
 1219TIP3    H225073   2.748   5.618   5.025  0.7435 -0.4899  0.3239
 1220TIP3   OH225074   0.729   4.194  12.954 -0.1892  0.3210 -1.1227
 1220TIP3    H125075   0.811   4.162  12.916  0.6595  1.1460 -0.0139
 1220TIP3    H225076   0.707   4.128  13.020 -0.3090  0.2047 -1.2788
 1221TIP3   OH225077   6.696   4.164   0.995 -0.0174 -0.6704 -0.4212
 1221TIP3    H125078   6.616   4.116   1.015  0.2147 -1.8004 -2.1176
 1221TIP3    H225079   6.711   4.218   1.073 -2.5493 -0.2403 -0.1645
 1222TIP3   OH225080   3.963   6.156  13.223 -0.6992 -0.1081 -0.0845
 1222TIP3    H125081   3.877   6.136  13.262  0.1857 -1.0192  1.4728
 1222TIP3    H225082   3.983   6.080  13.170 -1.8974  1.1284 -2.3627
 1223TIP3   OH225083   3.213   6.314   1.640  0.0472  0.2515 -0.4072
 1223TIP3    H125084   3.223   6.235   1.587  4.5997  0.1643  0.3728
 1223TIP3    H225085   3.188   6.282   1.726  2.3094 -0.4593  0.0265
 1224TIP3   OH225086   4.908   3.819  16.094 -0.2503 -0.1626 -0.2986
 1224TIP3    H125087   4.999   3.840  16.074 -0.9370  1.7007 -1.5658
 1224TIP3    H225088   4.859   3.897  16.068 -2.0180 -0.4743  1.9761
 1225TIP3   OH225089   5.717   1.506   1.009 -0.6182 -0.5449 -0.1240
 1225TIP3    H125090   5.692   1.417   1.034  1.0027 -0.7294  0.9474
 1225TIP3    H225091   5.678   1.519   0.923 -0.9482 -2.2638 -0.2486
 1226TIP3   OH225092   1.724   5.497   1.824  0.1124  0.1683 -0.0497
 1226TIP3    H125093   1.712   5.555   1.899 -0.8841  1.2162 -1.0044
 1226TIP3    H225094   1.800   5.533   1.778 -0.1719  0.3878 -0.3452
 1227TIP3   OH225095   3.825   3.030   3.196 -0.3120 -0.2860 -0.1279
 1227TIP3    H125096   3.789   3.058   3.112  0.8867 -1.9211 -1.2181
 1227TIP3    H225097   3.874   3.106   3.228 -1.5567  0.6641 -0.4338
 1228TIP3   OH225098   5.757   1.589   6.548  0.3908 -0.5961 -0.1258
 1228TIP3    H125099   5.754   1.497   6.574  0.4009 -0.3992  0.5972
 1228TIP3    H225100   5.850   1.610   6.546  0.3225 -0.0145  1.8801
 1229TIP3   OH225101   2.766   1.308   0.602 -0.4901 -0.4084  0.5027
 1229TIP3    H125102   2.748   1.292   0.510 -2.0862 -0.9904  0.8953
 1229TIP3    H225103   2.845   1.257   0.621 -0.6440 -0.9571 -0.3368
 1230TIP3   OH225104   1.174   3.435  12.436  0.0896  0.3249  0.0448
 1230TIP3    H125105   1.151   3.343  12.420 -0.6652  0.3705  0.8061
 1230TIP3    H225106   1.109   3.485  12.385 -0.0370  0.4344  0.3083
 1231TIP3   OH225107   1.232   3.368  12.108 -0.2309 -0.3761  0.1520
 1231TIP3    H125108   1.177   3.290  12.103  0.8239 -1.0371 -1.4913
 1231TIP3    H225109   1.289   3.362  12.032  0.3250  1.6649  0.3797
 1232TIP3   OH225110   2.341   1.593   4.893 -0.3331 -0.1029  0.5257
 1232TIP3    H125111   2.275   1.543   4.941 -0.5347 -0.3141  0.0248
 1232TIP3    H225112   2.390   1.639   4.962  0.9474 -2.2773  1.1410
 1233TIP3   OH225113   0.764   2.830  13.289 -0.0522 -0.3832  0.3376
 1233TIP3    H125114   0.760   2.921  13.318 -0.1276 -1.3713  3.7044
 1233TIP3    H225115   0.857   2.808  13.296 -0.2560 -1.0148  1.1515
 1234TIP3   OH225116   5.521   2.337   0.996  0.3614  0.0399  0.0468
 1234TIP3    H125117   5.527   2.330   0.901 -1.1734  3.6982 -0.4223
 1234TIP3    H225118   5.611   2.327   1.027  0.7536 -1.9871 -1.6803
 1235TIP3   OH225119   6.481   6.256   4.652  0.0517  0.3835 -0.0862
 1235TIP3    H125120   6.524   6.170   4.645  0.1627  0.4593 -0.3379
 1235TIP3    H225121   6.400   6.245   4.603  0.2123  0.5151 -0.3869
 1236TIP3   OH225122   4.890   6.568   0.617 -0.0994 -0.0766 -0.1907
 1236TIP3    H125123   4.915   6.551   0.708 -0.6399 -0.4912 -0.1166
 1236TIP3    H225124   4.974   6.578   0.571  0.2002 -0.8715  0.1685
 1237TIP3   OH225125   2.691   0.480  16.965 -0.2026 -0.4943 -0.1201
 1237TIP3    H125126   2.772   0.520  16.932  0.3085 -1.2620  0.1792
 1237TIP3    H225127   2.713   0.387  16.976 -0.7640 -0.4973  1.1048
 1238TIP3   OH225128   2.735   2.386  14.304  0.0920 -0.0290 -0.5029
 1238TIP3    H125129   2.674   2.342  14.246 -0.4906 -1.6290  1.2625
 1238TIP3    H225130   2.690   2.390  14.388  2.0602 -0.4681  0.6228
 1239TIP3   OH225131   2.830   5.790  11.048  0.4447 -0.1564  0.0133
 1239TIP3    H125132   2.888   5.839  10.990 -0.5964  0.3480 -0.6158
 1239TIP3    H225133   2.776   5.737  10.990  0.9417 -1.3861  0.6452
 1240TIP3   OH225134   3.314   1.530   3.775 -0.0760  0.1713  0.4736
 1240TIP3    H125135   3.352   1.584   3.706 -0.0592  0.8039  0.9684
 1240TIP3    H225136   3.384   1.470   3.800 -0.0379  0.0333  0.0408
 1241TIP3   OH225137   0.164   2.322  14.464  0.1721 -0.3541 -0.4876
 1241TIP3    H125138   0.126   2.258  14.524  0.7421  0.4882  0.8045
 1241TIP3    H225139   0.258   2.311  14.473  0.2944  1.2162  0.3770
 1242TIP3   OH225140   5.930   5.923   0.256 -0.1543  0.2171 -0.1756
 1242TIP3    H125141   5.897   5.900   0.342  1.6960 -0.6570  0.3184
 1242TIP3    H225142   5.967   5.842   0.221  0.6979  0.9549 -1.0358
 1243TIP3   OH225143   4.523   0.542  11.270  0.0031  0.1008  0.1947
 1243TIP3    H125144   4.528   0.483  11.194  0.5546  0.4129 -0.0162
 1243TIP3    H225145   4.433   0.574  11.269 -0.5837 -1.4728  0.8724
 1244TIP3   OH225146   5.893   6.664   1.607  0.3255 -0.4065  0.2116
 1244TIP3    H125147   5.919   6.753   1.586 -3.8372  0.9025  0.1051
 1244TIP3    H225148   5.920   6.612   1.531  0.0266  1.3596 -1.1345
 1245TIP3   OH225149   6.233   2.001  13.590  0.2746  0.1153  0.6646
 1245TIP3    H125150   6.141   2.007  13.565 -0.2178 -1.6354  1.9740
 1245TIP3    H225151   6.275   2.076  13.546 -1.2978 -0.4851 -1.9327
 1246TIP3   OH225152   5.731   0.426   0.494 -0.6610 -0.2274 -0.1100
 1246TIP3    H125153   5.744   0.411   0.400  0.5560 -0.8312  0.1546
 1246TIP3    H225154   5.695   0.514   0.499 -0.2705 -0.0066 -1.1141
 1247TIP3   OH225155   6.023   2.865   1.590 -0.7323  0.0370 -0.2473
 1247TIP3    H125156   5.955   2.800   1.609 -1.0189  0.5232  0.4263
 1247TIP3    H225157   6.035   2.912   1.673  0.3361  0.0444 -0.3912
 1248TIP3   OH225158   2.399   4.414  14.909  0.1685 -0.1191 -0.2439
 1248TIP3    H125159   2.443   4.466  14.842 -0.6675 -1.1535 -1.6069
 1248TIP3    H225160   2.358   4.342  14.862  1.8696 -2.4476  1.6912
 1249TIP3   OH225161   0.161   1.238   4.236  0.0533  0.1221  0.2103
 1249TIP3    H125162   0.127   1.162   4.283 -0.4338  0.1491 -0.0905
 1249TIP3    H225163   0.180   1.302   4.304  1.3671 -0.6101  0.5493
 1250TIP3   OH225164   4.552   1.207  13.147 -0.0807  0.3331  0.3598
 1250TIP3    H125165   4.478   1.212  13.207 -0.0428  1.6296  0.2974
 1250TIP3    H225166   4.579   1.115  13.150 -0.6379  0.2088  1.6383
 1251TIP3   OH225167   3.191   0.246   2.453 -0.1383 -0.1204 -0.6230
 1251TIP3    H125168   3.272   0.232   2.501  0.3584 -0.2327 -1.4805
 1251TIP3    H225169   3.139   0.166   2.469 -0.1787  0.0512  0.1073
 1252TIP3   OH225170   5.792   2.092  15.289  0.5314  0.5801  0.1755
 1252TIP3    H125171   5.702   2.115  15.267  0.9055  1.4178 -0.4954
 1252TIP3    H225172   5.841   2.101  15.207  1.2099  0.0573  0.5138
 1253TIP3   OH225173   0.846   4.513   2.300  0.0030  0.5203  0.3655
 1253TIP3    H125174   0.892   4.435   2.331 -0.4410 -0.3116 -1.0388
 1253TIP3    H225175   0.758   4.505   2.337 -0.0860  0.2799  0.1029
 1254TIP3   OH225176   3.909   3.819  12.238 -0.4223  0.3795 -0.6303
 1254TIP3    H125177   3.975   3.777  12.183 -1.5892 -0.1829 -1.6216
 1254TIP3    H225178   3.895   3.905  12.199  0.1059  0.7121 -0.1003
 1255TIP3   OH225179   4.535   3.625  16.840 -0.7342  0.1343  0.6941
 1255TIP3    H125180   4.557   3.607  16.748  0.9438  1.7219  0.7592
 1255TIP3    H225181   4.616   3.607  16.888 -1.2278  0.5693  1.6976
 1256TIP3   OH225182   0.202   3.739  10.849  0.4336  0.0527 -0.2095
 1256TIP3    H125183   0.286   3.719  10.890  0.3300 -2.1477 -1.0087
 1256TIP3    H225184   0.162   3.654  10.834 -2.2483  1.0961  0.7513
 1257TIP3   OH225185   3.041   4.444  12.553  0.4017  0.6064 -0.0395
 1257TIP3    H125186   3.073   4.429  12.642  1.5467  1.5747 -0.2780
 1257TIP3    H225187   3.119   4.443  12.498 -0.1239  1.5186 -0.8305
 1258TIP3   OH225188   6.417   3.758  12.261  0.9595  0.0433 -0.5548
 1258TIP3    H125189   6.359   3.771  12.336  0.6559 -4.1609  0.0059
 1258TIP3    H225190   6.467   3.840  12.256 -0.1986  1.0641  3.1631
 1259TIP3   OH225191   2.371   5.332   1.327 -0.1184  0.9142 -1.0717
 1259TIP3    H125192   2.435   5.330   1.257 -0.1243  1.1896 -1.0830
 1259TIP3    H225193   2.409   5.389   1.394 -0.3434  1.0669 -1.0727
 1260TIP3   OH225194   3.296   0.023   5.933 -0.1129  0.4803 -0.0236
 1260TIP3    H125195   3.303  -0.072   5.931  0.8227  0.5291  0.4640
 1260TIP3    H225196   3.322   0.047   6.023 -0.4859  1.1742 -0.0975
 1261TIP3   OH225197   2.244   2.845   6.954  0.4614 -0.5085 -0.2166
 1261TIP3    H125198   2.208   2.781   6.892  0.8583  0.2726 -1.2651
 1261TIP3    H225199   2.219   2.811   7.040 -3.2653  0.2526 -0.8976
 1262TIP3   OH225200   4.310   5.328  10.960  0.5187  0.1908  0.0994
 1262TIP3    H125201   4.389   5.380  10.946 -0.3729  1.6018  0.2470
 1262TIP3    H225202   4.245   5.368  10.903 -0.5649  0.1088  1.2716
 1263TIP3   OH225203   2.023   2.598  13.618  0.2826 -0.0666  0.4551
 1263TIP3    H125204   2.114   2.571  13.635  0.2299 -0.6543 -0.1657
 1263TIP3    H225205   2.006   2.667  13.682  0.9864 -0.3462  0.9505
 1264TIP3   OH225206   1.915   0.276   0.537  0.5708 -0.2224 -0.6452
 1264TIP3    H125207   1.889   0.278   0.629  1.1721  2.4078 -0.5059
 1264TIP3    H225208   1.832   0.276   0.489  0.2545 -1.3970 -0.1213
 1265TIP3   OH225209   3.196   6.709   4.573 -0.4914 -1.2164  0.5678
 1265TIP3    H125210   3.231   6.627   4.536 -2.1427 -1.0805 -1.3333
 1265TIP3    H225211   3.262   6.775   4.552 -0.3968 -1.5631 -0.2354
 1266TIP3   OH225212   0.278   4.987   5.170 -0.0041 -0.0861  0.3964
 1266TIP3    H125213   0.284   5.082   5.171 -1.9721  0.0517  1.6523
 1266TIP3    H225214   0.309   4.962   5.083  0.2799  1.7173 -0.0442
 1267TIP3   OH225215   6.024   5.817   5.525  0.5670  0.1283  0.1292
 1267TIP3    H125216   5.959   5.885   5.508  0.2843  0.0784  0.9860
 1267TIP3    H225217   6.002   5.784   5.612  0.5969 -1.1947 -0.3583
 1268TIP3   OH225218   1.745   3.498   0.959  0.6770  0.4354  0.3090
 1268TIP3    H125219   1.723   3.497   0.866  1.5836 -0.3581  0.0949
 1268TIP3    H225220   1.835   3.465   0.963  0.5741  0.2684  1.4806
 1269TIP3   OH225221   0.749   2.507  14.494  0.2860  0.2859  0.5351
 1269TIP3    H125222   0.786   2.537  14.411  1.0132 -1.1724  0.3064
 1269TIP3    H225223   0.682   2.571  14.516 -0.6136  0.1314 -1.6930
 1270TIP3   OH225224   5.238   4.209   1.563  0.1482  0.0290 -0.0213
 1270TIP3    H125225   5.252   4.181   1.654 -1.0945 -2.6076 -0.6269
 1270TIP3    H225226   5.318   4.182   1.517 -1.1445 -2.8879 -0.6552
 1271TIP3   OH225227   2.245   3.592  11.837 -0.0405 -0.7463  0.2970
 1271TIP3    H125228   2.223   3.679  11.873  1.7157  0.6834 -1.9440
 1271TIP3    H225229   2.310   3.557  11.898  0.7206  0.3781  0.1425
 1272TIP3   OH225230   6.321   4.334   3.017  0.1003  0.4029  0.4421
 1272TIP3    H125231   6.264   4.262   2.989  1.5653  0.2509 -2.3985
 1272TIP3    H225232   6.261   4.406   3.035 -1.1598 -0.4295 -0.3269
 1273TIP3   OH225233   6.030   0.903  15.924  0.0212 -0.2549 -0.4715
 1273TIP3    H125234   6.018   0.842  15.850 -2.5710 -0.8959  0.4214
 1273TIP3    H225235   6.082   0.853  15.987  0.6168 -0.3946 -1.0634
 1274TIP3   OH225236   2.067   6.170   3.550  0.4506  0.1143 -0.3570
 1274TIP3    H125237   2.052   6.135   3.638  0.9545 -1.0187 -0.7176
 1274TIP3    H225238   2.099   6.259   3.565 -1.9642  0.8752  0.5454
 1275TIP3   OH225239   5.573   5.254  13.924 -0.6056 -0.2585 -0.1716
 1275TIP3    H125240   5.546   5.175  13.877  0.2475 -0.7299  0.1269
 1275TIP3    H225241   5.661   5.274  13.891 -0.4443  0.0374  0.4164
 1276TIP3   OH225242   3.900   5.042   1.114  1.1220  0.3949  1.2606
 1276TIP3    H125243   3.957   5.041   1.191  0.4389  0.4673  1.7749
 1276TIP3    H225244   3.830   5.103   1.138  1.1236  0.7365  0.4166
 1277TIP3   OH225245   2.314   0.326  14.222 -0.0716 -0.1682 -0.2127
 1277TIP3    H125246   2.277   0.402  14.266  0.5827 -0.9120  1.6624
 1277TIP3    H225247   2.380   0.362  14.163 -1.7865  0.9335 -1.5192
 1278TIP3   OH225248   1.203   2.021  15.612  0.6294 -0.1732 -0.3732
 1278TIP3    H125249   1.149   2.028  15.534  1.3101  0.4098 -0.7949
 1278TIP3    H225250   1.241   1.933  15.607  2.9371  0.8787 -2.1945
 1279TIP3   OH225251   3.367   1.174  11.828 -0.2178  0.1775 -0.5737
 1279TIP3    H125252   3.401   1.202  11.744 -0.6211  2.6693  0.0713
 1279TIP3    H225253   3.298   1.236  11.849 -1.3390 -1.4698  0.7741
 1280TIP3   OH225254   5.165   0.403  14.588  0.5168  0.3166  0.1682
 1280TIP3    H125255   5.119   0.434  14.666 -0.2665  0.4903 -0.3471
 1280TIP3    H225256   5.169   0.308  14.598 -1.6282  0.1043 -0.6454
 1281TIP3   OH225257   6.703   1.404   2.469 -0.7750 -0.1393  0.0747
 1281TIP3    H125258   6.775   1.346   2.446 -1.2504 -0.8104  0.2420
 1281TIP3    H225259   6.668   1.367   2.551  0.9742  2.2886  1.9711
 1282TIP3   OH225260   3.077   5.640  12.119 -0.6074  0.0039 -0.1558
 1282TIP3    H125261   2.998   5.687  12.094 -0.9483 -0.3655  0.2233
 1282TIP3    H225262   3.072   5.634  12.215 -0.3243 -0.3806 -0.1643
 1283TIP3   OH225263   0.134   4.279  12.888  0.2869 -0.4667 -0.6038
 1283TIP3    H125264   0.230   4.284  12.885  0.4693 -2.4597  0.8320
 1283TIP3    H225265   0.110   4.333  12.963  0.2326  0.5140 -1.3207
 1284TIP3   OH225266   2.365   2.491   6.129 -0.6711 -0.4411 -0.1944
 1284TIP3    H125267   2.445   2.533   6.162 -0.7715  0.1878 -0.7277
 1284TIP3    H225268   2.386   2.398   6.124 -0.4768 -0.4777  1.1233
 1285TIP3   OH225269   5.850   4.092  16.866 -0.6539  0.1104  0.3651
 1285TIP3    H125270   5.893   4.010  16.844 -0.5981  0.0192  0.8118
 1285TIP3    H225271   5.760   4.082  16.834 -0.5882 -0.0411  0.2326
 1286TIP3   OH225272   3.017   1.770  14.009 -0.4845 -0.4479  0.0105
 1286TIP3    H125273   3.076   1.837  14.042 -0.0514 -0.4585 -0.7183
 1286TIP3    H225274   3.070   1.719  13.948 -0.6790 -1.7498  0.9111
 1287TIP3   OH225275   2.085   0.738   1.360 -0.1991  0.5862  0.7030
 1287TIP3    H125276   2.018   0.726   1.292  1.3700  0.5806 -0.8552
 1287TIP3    H225277   2.166   0.755   1.312  1.0282  0.1299  2.5681
 1288TIP3   OH225278   0.266   1.872  11.414  0.0907  0.6017  0.5069
 1288TIP3    H125279   0.265   1.806  11.344 -0.4942  1.4509 -0.3111
 1288TIP3    H225280   0.183   1.858  11.461  0.9098 -0.5721  1.6203
 1289TIP3   OH225281   2.338   5.006  15.806  0.0437 -0.4759  0.8999
 1289TIP3    H125282   2.418   5.053  15.831  1.7466 -1.8123 -1.8690
 1289TIP3    H225283   2.270   5.074  15.807  1.7750  1.3220  0.4597
 1290TIP3   OH225284   3.055   4.903   1.030  0.7277  0.1843  0.0413
 1290TIP3    H125285   3.007   4.851   0.965  1.2744 -0.8179  0.4300
 1290TIP3    H225286   3.111   4.960   0.977 -2.3241  2.8230 -0.4756
 1291TIP3   OH225287   6.694   2.111  15.709 -0.1167  0.6449 -0.3344
 1291TIP3    H125288   6.691   2.018  15.688  1.1036  0.4972  0.1287
 1291TIP3    H225289   6.605   2.142  15.693 -0.6309 -0.6812 -0.0869
 1292TIP3   OH225290   4.266   5.171  12.404  0.2146  0.1978  0.3667
 1292TIP3    H125291   4.317   5.193  12.326 -0.6103  0.1166 -0.1986
 1292TIP3    H225292   4.293   5.236  12.469  1.4160 -0.1546  0.2409
 1293TIP3   OH225293   1.697   0.872   4.036 -0.0949 -0.2320  0.3577
 1293TIP3    H125294   1.627   0.938   4.038  0.5432  0.4644  0.0322
 1293TIP3    H225295   1.652   0.789   4.049 -1.2480  0.0178 -1.7577
 1294TIP3   OH225296   5.071   1.461   5.297  0.0744 -0.2181 -0.4141
 1294TIP3    H125297   5.014   1.460   5.373  0.6916 -0.8375  0.0407
 1294TIP3    H225298   5.159   1.465   5.333  0.3305  0.7875 -1.1090
 1295TIP3   OH225299   4.355   6.442   5.195  0.1175  0.3005  0.1288
 1295TIP3    H125300   4.333   6.361   5.240 -2.5329  0.5464 -0.6800
 1295TIP3    H225301   4.315   6.511   5.248 -2.3530  0.6501 -2.1119
 1296TIP3   OH225302   2.962   4.078   5.241 -0.2834  0.2637 -0.3451
 1296TIP3    H125303   2.946   4.172   5.228 -0.0865  0.1960 -1.0982
 1296TIP3    H225304   3.015   4.052   5.165  0.5663 -0.2253  0.4088
 1297TIP3   OH225305   1.172   0.118  15.669 -0.2562  0.1135 -0.1603
 1297TIP3    H125306   1.145   0.060  15.598  3.9348 -2.6648  0.3146
 1297TIP3    H225307   1.117   0.093  15.743 -1.3995 -0.3129 -1.1441
 1298TIP3   OH225308   2.109   1.802  16.998 -0.4789  0.0890 -0.2569
 1298TIP3    H125309   2.030   1.822  17.050 -1.6369 -0.2198 -1.8603
 1298TIP3    H225310   2.083   1.728  16.943  1.0414 -0.1998 -0.5964
 1299TIP3   OH225311   3.545   0.096   4.088 -0.3227 -0.6262  0.6193
 1299TIP3    H125312   3.611   0.165   4.090 -0.1175 -0.8318  1.0000
 1299TIP3    H225313   3.462   0.142   4.080 -0.3312 -0.2425  2.7520
 1300TIP3   OH225314   3.891   3.730  10.207 -0.0771  0.2782  0.3864
 1300TIP3    H125315   3.891   3.814  10.161  1.8016 -0.4547 -1.0120
 1300TIP3    H225316   3.977   3.692  10.187  0.0098 -0.9341  2.9189
 1301TIP3   OH225317   1.014   0.397  11.223  0.3104  0.3302  0.0314
 1301TIP3    H125318   1.054   0.364  11.303  0.5155 -0.0478 -0.2247
 1301TIP3    H225319   1.088   0.415  11.164  0.1758  0.8099  0.0003
 1302TIP3   OH225320   2.120   4.714   0.062 -0.2008  0.1407  0.2826
 1302TIP3    H125321   2.121   4.618   0.054  1.3470  0.1820 -0.2498
 1302TIP3    H225322   2.140   4.731   0.154  0.5924 -0.0331  0.1437
 1303TIP3   OH225323   0.079   0.342  15.002 -0.4029 -0.2733 -0.1698
 1303TIP3    H125324   0.145   0.282  14.969 -0.2338 -0.4621  0.5015
 1303TIP3    H225325   0.017   0.287  15.050  0.1758  0.1721  1.1176
 1304TIP3   OH225326   4.035   2.246   4.878 -0.1259  0.0484 -0.1963
 1304TIP3    H125327   4.018   2.324   4.931  0.1558  0.3007 -0.4762
 1304TIP3    H225328   4.086   2.189   4.936  1.3034  0.8645 -0.6236
 1305TIP3   OH225329   6.375   4.307   0.781 -0.5625  0.1722  0.6469
 1305TIP3    H125330   6.396   4.271   0.867  1.5877  1.9069  0.8565
 1305TIP3    H225331   6.407   4.241   0.719 -2.1319 -1.0873  1.1151
 1306TIP3   OH225332   5.464   1.237   6.433 -0.5493  0.1517  0.4561
 1306TIP3    H125333   5.472   1.143   6.446 -0.3761  0.3219  1.5690
 1306TIP3    H225334   5.484   1.276   6.518 -0.1195  1.2232 -0.1184
 1307TIP3   OH225335   4.605   4.759  15.997  0.1015  0.3365 -0.7233
 1307TIP3    H125336   4.654   4.764  15.915 -1.0194  1.4860 -1.3304
 1307TIP3    H225337   4.556   4.841  16.002 -0.8865 -0.2944  0.4226
 1308TIP3   OH225338   4.435   3.475  13.993  0.3381  0.1628  0.3995
 1308TIP3    H125339   4.419   3.431  13.910  0.0684  1.1785 -0.1004
 1308TIP3    H225340   4.444   3.405  14.057  1.5417 -0.6716 -0.6586
 1309TIP3   OH225341   2.950   5.717   4.547  0.0644 -0.7926 -0.1094
 1309TIP3    H125342   2.897   5.730   4.468 -0.5730  0.2866  0.4905
 1309TIP3    H225343   2.888   5.690   4.614  0.5036 -1.0554  0.1936
 1310TIP3   OH225344   3.285   2.781  10.806 -0.2890 -0.0885 -0.4966
 1310TIP3    H125345   3.261   2.691  10.827  0.4649 -0.4335 -1.0856
 1310TIP3    H225346   3.342   2.808  10.878 -0.6944 -0.0028 -0.2065
 1311TIP3   OH225347   1.245   4.501   0.272  0.3429 -0.3622 -0.2636
 1311TIP3    H125348   1.236   4.542   0.186 -0.8706 -0.2317 -0.0869
 1311TIP3    H225349   1.185   4.551   0.328  0.4854 -0.9943  0.4573
 1312TIP3   OH225350   3.162   5.249  13.121 -0.0545  0.6080  0.1363
 1312TIP3    H125351   3.202   5.320  13.070 -0.1952 -0.5158 -1.6133
 1312TIP3    H225352   3.074   5.241  13.084  1.1342 -2.8058 -2.2094
 1313TIP3   OH225353   3.295   2.134   0.168  0.4394 -0.1282  0.0955
 1313TIP3    H125354   3.372   2.110   0.117 -0.1727  0.6544 -1.2353
 1313TIP3    H225355   3.221   2.120   0.108 -0.4014 -0.3581  1.1687
 1314TIP3   OH225356   6.591   1.348  17.042 -0.3334  0.2076  0.2005
 1314TIP3    H125357   6.550   1.433  17.054 -1.3160 -0.2714  0.2992
 1314TIP3    H225358   6.672   1.352  17.093 -0.0608  1.3029 -0.3221
 1315TIP3   OH225359   4.003   0.595  14.198 -0.0080 -0.4219  0.3485
 1315TIP3    H125360   4.097   0.576  14.201  0.1857  0.4238 -0.4518
 1315TIP3    H225361   3.967   0.526  14.143  0.2756 -0.1939 -0.1251
 1316TIP3   OH225362   2.454   1.176   4.589  0.6244  0.0255 -0.1736
 1316TIP3    H125363   2.472   1.084   4.567 -1.5974 -0.3302 -0.6127
 1316TIP3    H225364   2.516   1.196   4.660 -1.1319 -2.8968  2.3239
 1317TIP3   OH225365   3.478   0.845   2.130 -0.2169  0.1221  0.5179
 1317TIP3    H125366   3.510   0.871   2.044  2.8438 -2.0517  0.9361
 1317TIP3    H225367   3.468   0.928   2.178  1.8423  1.0669 -0.6377
 1318TIP3   OH225368   6.417   2.769  14.369 -0.0583  0.1020 -0.4512
 1318TIP3    H125369   6.353   2.783  14.300 -1.7778  0.6741  1.2045
 1318TIP3    H225370   6.492   2.822  14.345 -0.0693 -0.8056 -2.5746
 1319TIP3   OH225371   4.785   3.463   2.257 -0.0699  0.0713 -0.2688
 1319TIP3    H125372   4.801   3.375   2.224  0.5235  0.3844 -0.8291
 1319TIP3    H225373   4.690   3.473   2.252 -0.1558 -0.6180  0.0060
 1320TIP3   OH225374   4.805   5.910   4.947  0.0044  0.0897  0.3108
 1320TIP3    H125375   4.896   5.939   4.953 -0.2979  0.8965  1.0498
 1320TIP3    H225376   4.812   5.817   4.926  1.0147 -0.1091  1.4198
 1321TIP3   OH225377   0.640   5.075  14.468  0.2991  0.5428  0.5662
 1321TIP3    H125378   0.712   5.099  14.409 -0.2283  0.1984 -0.2267
 1321TIP3    H225379   0.668   4.993  14.508 -0.1573 -0.2123 -0.6288
 1322TIP3   OH225380   3.150   0.083  16.264  0.2711  0.0471  0.1529
 1322TIP3    H125381   3.059   0.058  16.253  0.4650 -0.9909  0.7796
 1322TIP3    H225382   3.198  -0.000  16.263  1.2218  0.5897 -0.3151
 1323TIP3   OH225383   4.664   6.285   2.993  0.0098  0.0572 -0.6570
 1323TIP3    H125384   4.750   6.243   3.002  0.5741  1.6173  1.8645
 1323TIP3    H225385   4.621   6.269   3.077 -2.8290 -2.0059 -2.4326
 1324TIP3   OH225386   1.136   3.728   0.880  0.4306 -0.1929 -0.2871
 1324TIP3    H125387   1.044   3.723   0.855 -0.1000  0.1823  1.5326
 1324TIP3    H225388   1.169   3.639   0.865 -0.0749 -0.2075 -1.4237
 1325TIP3   OH225389   5.685   6.674  12.744  0.2747 -0.3886  0.0373
 1325TIP3    H125390   5.678   6.727  12.665 -1.7470  0.0446  0.4780
 1325TIP3    H225391   5.594   6.660  12.771  0.9042 -1.5636  1.5966
 1326TIP3   OH225392   3.005   3.813  14.027 -0.8378 -0.3084 -0.2285
 1326TIP3    H125393   3.027   3.870  14.101  0.6657 -0.3282 -0.6337
 1326TIP3    H225394   2.980   3.730  14.067  0.1468 -0.3778  0.2689
 1327TIP3   OH225395   4.837   0.081  11.466 -0.0238  0.0964 -0.0815
 1327TIP3    H125396   4.906   0.142  11.442  0.7597 -1.0518 -0.7940
 1327TIP3    H225397   4.789   0.125  11.536  0.8228  1.3137 -0.2570
 1328TIP3   OH225398   1.543   3.505  11.468 -0.4745  0.3888 -0.1036
 1328TIP3    H125399   1.584   3.482  11.551 -1.1102 -1.6357 -0.3342
 1328TIP3    H225400   1.533   3.600  11.472  0.5183  0.4385  1.6597
 1329TIP3   OH225401   0.695   4.743   5.131 -0.0331 -0.3524 -0.0771
 1329TIP3    H125402   0.697   4.825   5.181  0.6430 -0.7498  0.5539
 1329TIP3    H225403   0.777   4.699   5.153 -0.2644 -1.0719 -0.6328
 1330TIP3   OH225404   4.623   5.797   1.020  0.1160  0.2023  0.5973
 1330TIP3    H125405   4.595   5.726   1.079  0.0847 -0.2042  0.1021
 1330TIP3    H225406   4.611   5.760   0.932  1.8707  0.1619  0.3623
 1331TIP3   OH225407   0.129   2.370  14.899  0.0892 -0.5163 -0.2067
 1331TIP3    H125408   0.125   2.275  14.887 -2.6137 -0.2617 -1.6297
 1331TIP3    H225409   0.038   2.399  14.893  0.8447  2.1354  0.5363
 1332TIP3   OH225410   4.624   1.595  13.543  0.4398  0.1226  0.1847
 1332TIP3    H125411   4.612   1.570  13.452 -3.8184  1.2468  0.3323
 1332TIP3    H225412   4.623   1.513  13.592  0.7153 -0.3404 -0.5932
 1333TIP3   OH225413   3.414   0.099   4.493  0.4098 -0.5695  0.2918
 1333TIP3    H125414   3.495   0.063   4.530 -0.3368 -1.5113  1.0317
 1333TIP3    H225415   3.414   0.190   4.521  1.4634 -0.4326 -0.1296
 1334TIP3   OH225416   4.384   4.412  10.959  0.4620 -0.1936  0.1463
 1334TIP3    H125417   4.307   4.408  10.902  1.6434 -0.7142 -1.4653
 1334TIP3    H225418   4.401   4.320  10.981  1.7729 -0.2854 -1.1431
 1335TIP3   OH225419   3.101   3.954   0.169 -0.2596  0.2574 -0.3455
 1335TIP3    H125420   3.054   3.878   0.135 -0.7317  0.6898 -0.6647
 1335TIP3    H225421   3.122   3.931   0.260 -0.1360 -0.3730 -0.5328
 1336TIP3   OH225422   2.949   6.741  15.274  0.5344  0.5813 -0.1529
 1336TIP3    H125423   3.021   6.783  15.320  0.3557  0.7397 -0.0169
 1336TIP3    H225424   2.936   6.658  15.320  0.6611  0.5312 -0.2077
 1337TIP3   OH225425   4.547   3.788   6.044  0.0164  0.2894  0.1344
 1337TIP3    H125426   4.482   3.852   6.073 -0.0051  0.6651 -0.7098
 1337TIP3    H225427   4.542   3.717   6.108  1.0878  1.7920  1.9428
 1338TIP3   OH225428   1.804   0.383  16.338  0.2297  0.1234 -0.0896
 1338TIP3    H125429   1.759   0.299  16.344  1.2221 -0.4943 -1.1891
 1338TIP3    H225430   1.817   0.410  16.429 -0.8884 -0.4778  0.2608
 1339TIP3   OH225431   6.612   5.892   5.702 -0.5008 -0.1436  0.3037
 1339TIP3    H125432   6.626   5.982   5.730 -1.9577 -0.1677  1.1666
 1339TIP3    H225433   6.621   5.896   5.606  2.0040  0.4004  0.5335
 1340TIP3   OH225434   5.331   4.121   6.157  0.3513  0.5138  0.0112
 1340TIP3    H125435   5.402   4.062   6.183  0.2048  0.5898  0.5845
 1340TIP3    H225436   5.263   4.107   6.223 -0.1916  0.4083 -0.5578
 1341TIP3   OH225437   2.092   3.143   0.990 -0.2856  0.3875 -0.9558
 1341TIP3    H125438   2.072   3.097   0.908  1.7926 -0.1313 -1.1970
 1341TIP3    H225439   2.151   3.214   0.964  0.4106  0.1948  0.0931
 1342TIP3   OH225440   2.683   6.733  11.010 -0.3420 -0.0551  0.1210
 1342TIP3    H125441   2.612   6.727  10.946 -0.0914 -0.5442 -0.1145
 1342TIP3    H225442   2.755   6.774  10.963  0.3637 -1.8213 -0.3721
 1343TIP3   OH225443   1.090   2.321  15.254  0.4059 -0.4412 -0.2621
 1343TIP3    H125444   1.182   2.334  15.233  0.6662  0.3682  1.2996
 1343TIP3    H225445   1.070   2.390  15.317 -1.0022 -1.2306  0.1680
 1344TIP3   OH225446   3.901   2.858  16.518  0.3421 -0.3022 -0.2904
 1344TIP3    H125447   3.981   2.901  16.488  0.0698 -1.0544 -2.1763
 1344TIP3    H225448   3.833   2.925  16.511  0.3850 -0.3145 -0.8865
 1345TIP3   OH225449   3.124   1.866  11.279  0.4448 -0.2268 -0.6106
 1345TIP3    H125450   3.120   1.790  11.221  2.9855 -0.6796 -0.2642
 1345TIP3    H225451   3.120   1.942  11.221  1.8233 -0.6720 -1.3028
 1346TIP3   OH225452   5.348   0.759  13.646  0.4867  0.0973 -0.3521
 1346TIP3    H125453   5.391   0.681  13.681  0.8747 -0.0028 -1.0365
 1346TIP3    H225454   5.346   0.745  13.551  1.1747  1.2086 -0.5463
 1347TIP3   OH225455   0.713   1.921   5.171 -0.1439 -0.1824 -0.4135
 1347TIP3    H125456   0.654   1.845   5.179  0.8349 -1.0117 -0.8924
 1347TIP3    H225457   0.731   1.927   5.077  0.4231  0.1548 -0.2837
 1348TIP3   OH225458   2.379   3.534   2.082 -0.1454  0.0275 -0.4512
 1348TIP3    H125459   2.389   3.474   2.008  2.3319  1.5052 -1.3869
 1348TIP3    H225460   2.317   3.600   2.052 -0.7680 -0.5350 -0.4167
 1349TIP3   OH225461   6.102   0.049  14.540 -0.0026  0.3130  0.9199
 1349TIP3    H125462   6.011   0.051  14.508  0.8230  0.7364 -1.5419
 1349TIP3    H225463   6.096   0.079  14.631 -2.4740 -0.9219  1.2009
 1350TIP3   OH225464   3.582   3.660  11.710  0.2335 -0.6683  0.0151
 1350TIP3    H125465   3.532   3.708  11.776 -0.7014  0.3056 -1.3567
 1350TIP3    H225466   3.525   3.660  11.632  2.2363  0.2353 -1.4955
 1351TIP3   OH225467   2.387   1.036   2.549 -0.2650 -0.0312  0.0430
 1351TIP3    H125468   2.337   0.972   2.499  0.1630 -2.0934  2.1706
 1351TIP3    H225469   2.478   1.021   2.524 -0.2342  0.2399 -0.0077
 1352TIP3   OH225470   4.121   3.109   6.027 -0.1896 -0.7229  1.0229
 1352TIP3    H125471   4.099   3.172   5.959  3.0792 -0.8259 -0.2314
 1352TIP3    H225472   4.082   3.144   6.106 -1.5405  0.9376 -0.3390
 1353TIP3   OH225473   3.175   2.444   0.550 -0.2257 -0.0416  0.5854
 1353TIP3    H125474   3.107   2.455   0.483  1.0736 -0.5573 -0.8595
 1353TIP3    H225475   3.255   2.432   0.500  1.1459  1.7799  2.2562
 1354TIP3   OH225476   2.810   2.292   1.699  0.2390  0.6197  0.1306
 1354TIP3    H125477   2.800   2.384   1.726 -1.2062  0.4185  0.3434
 1354TIP3    H225478   2.903   2.273   1.712  0.6821  2.2355 -0.4902
 1355TIP3   OH225479   5.184   6.380  15.569 -0.1453 -0.4435  0.2221
 1355TIP3    H125480   5.112   6.442  15.575 -0.3685 -0.6685 -0.1362
 1355TIP3    H225481   5.174   6.324  15.645 -0.3850 -0.5155  0.1353
 1356TIP3   OH225482   3.788   5.922   1.888 -0.0253  0.3391 -0.6137
 1356TIP3    H125483   3.869   5.942   1.841  0.5803 -0.2799  0.1630
 1356TIP3    H225484   3.726   5.989   1.857  1.0769  1.4852 -0.4040
 1357TIP3   OH225485   0.840   1.422  12.394 -0.6254  0.4777  0.4691
 1357TIP3    H125486   0.833   1.361  12.321 -1.7224  2.1712 -0.8738
 1357TIP3    H225487   0.805   1.374  12.469 -2.9356 -0.0287 -0.8908
 1358TIP3   OH225488   1.028   2.085  17.093  0.6130 -0.7014  0.0631
 1358TIP3    H125489   0.948   2.094  17.145 -0.2330 -1.1168 -1.1344
 1358TIP3    H225490   1.099   2.111  17.152 -0.3684 -0.7217  1.2651
 1359TIP3   OH225491   1.752   5.950  12.062  0.1717  0.0190  0.0291
 1359TIP3    H125492   1.786   5.967  11.974 -0.2177 -1.2941 -0.3880
 1359TIP3    H225493   1.712   6.034  12.088  2.0724  1.0195 -0.2059
 1360TIP3   OH225494   6.460   4.005  15.112  0.7733 -0.2438  0.2555
 1360TIP3    H125495   6.515   4.036  15.040 -0.4902  1.1886 -0.0977
 1360TIP3    H225496   6.464   4.075  15.178 -0.9030  0.0311  0.0840
 1361TIP3   OH225497   0.923   1.658   4.021 -0.6221  0.1865 -0.4568
 1361TIP3    H125498   0.849   1.719   4.026 -0.8492 -0.1880  0.6501
 1361TIP3    H225499   0.885   1.572   4.038  0.3105  0.1708  1.5943
 1362TIP3   OH225500   5.258   5.399  11.560 -0.2092  0.1431 -0.2231
 1362TIP3    H125501   5.285   5.490  11.575  2.0730 -0.8243  1.7105
 1362TIP3    H225502   5.315   5.369  11.489 -1.4207  0.3854 -1.3264
 1363TIP3   OH225503   5.527   2.055   1.070  0.3189 -0.2518 -0.2678
 1363TIP3    H125504   5.532   2.057   1.165 -0.4420 -1.3083 -0.2004
 1363TIP3    H225505   5.512   2.146   1.044  0.2818 -0.0062  0.6242
 1364TIP3   OH225506   4.786   6.658  15.938  0.2308  0.5112  0.5000
 1364TIP3    H125507   4.730   6.715  15.885 -0.7094 -0.8062  0.0590
 1364TIP3    H225508   4.873   6.697  15.930 -0.2105  1.2869 -0.6632
 1365TIP3   OH225509   1.630   1.820  11.074 -0.4831 -0.3920  0.3235
 1365TIP3    H125510   1.614   1.736  11.030  1.0643 -0.6924  0.3310
 1365TIP3    H225511   1.590   1.885  11.016 -2.2252 -1.1718  0.6217
 1366TIP3   OH225512   6.434   0.768  16.958  0.3753  0.4769 -0.4399
 1366TIP3    H125513   6.454   0.729  16.872  0.0234  1.0007 -0.7612
 1366TIP3    H225514   6.346   0.737  16.978  0.5299  0.2058 -0.1821
 1367TIP3   OH225515   2.785   0.199  16.938  0.0933  0.5628  0.4979
 1367TIP3    H125516   2.768   0.205  16.844  1.7007  1.3569  0.2408
 1367TIP3    H225517   2.846   0.125  16.946  0.4788  0.9079  0.8248
 1368TIP3   OH225518   0.497   6.020   0.118  0.4254 -0.7400 -0.6493
 1368TIP3    H125519   0.512   6.114   0.121  0.8591 -0.8040 -0.6907
 1368TIP3    H225520   0.402   6.010   0.114  0.3442 -0.3360  0.3209
 1369TIP3   OH225521   3.590   6.000   3.640 -0.6337  0.4080  0.6760
 1369TIP3    H125522   3.507   6.024   3.597 -1.9996 -1.1519  2.3715
 1369TIP3    H225523   3.572   6.009   3.733  0.3868 -2.1314  1.1550
 1370TIP3   OH225524   1.370   0.518   1.816  0.6750  0.3066  0.6067
 1370TIP3    H125525   1.321   0.488   1.893  0.0654 -0.2630  0.0111
 1370TIP3    H225526   1.302   0.538   1.752  1.1441  1.7336  0.5514
 1371TIP3   OH225527   2.788   3.834  12.195  0.4165  0.1766 -1.2297
 1371TIP3    H125528   2.737   3.782  12.257  0.8281 -0.5897 -1.5184
 1371TIP3    H225529   2.723   3.871  12.135  0.0384  0.7470 -0.4660
 1372TIP3   OH225530   1.745   3.827   1.617  0.5088 -0.3974 -0.0801
 1372TIP3    H125531   1.747   3.782   1.701 -0.9066  1.6184  1.0775
 1372TIP3    H225532   1.774   3.916   1.637 -1.8791  0.6962 -1.2951
 1373TIP3   OH225533   2.287   2.282  14.095  0.2497  0.3083  0.0382
 1373TIP3    H125534   2.197   2.269  14.064  0.2425  1.0081 -0.2252
 1373TIP3    H225535   2.291   2.374  14.121  1.8023  1.1520 -2.9614
 1374TIP3   OH225536   6.478   5.050   2.570 -0.6380  0.1846 -0.3003
 1374TIP3    H125537   6.504   5.084   2.656  0.8478  1.8213 -1.3780
 1374TIP3    H225538   6.452   4.959   2.588 -2.0297  1.0153  2.1471
 1375TIP3   OH225539   1.342   6.446  16.642  0.2568  0.3349 -0.3744
 1375TIP3    H125540   1.420   6.471  16.691  0.1297 -1.5423  0.8356
 1375TIP3    H225541   1.368   6.368  16.593 -1.6133 -1.9662  2.1898
 1376TIP3   OH225542   1.441   5.702   4.529 -0.3788  0.0191  0.1581
 1376TIP3    H125543   1.381   5.630   4.512  1.5215 -1.7871  0.8868
 1376TIP3    H225544   1.492   5.711   4.449  0.7601 -0.8449  0.7572
 1377TIP3   OH225545   1.867   2.368  13.515 -0.4782  0.3903  0.1886
 1377TIP3    H125546   1.931   2.353  13.445  0.2593 -0.6683  1.0765
 1377TIP3    H225547   1.896   2.448  13.559 -0.0166  0.1506  0.3157
 1378TIP3   OH225548   1.435   1.519  13.718 -0.2173  0.2029 -0.1157
 1378TIP3    H125549   1.422   1.589  13.655  1.7012 -0.1995 -0.9912
 1378TIP3    H225550   1.467   1.563  13.797 -1.4448  0.5747  0.1772
 1379TIP3   OH225551   3.471   5.741   2.337 -0.9786 -0.6134 -0.5856
 1379TIP3    H125552   3.433   5.750   2.250 -1.9036  0.3402 -0.0883
 1379TIP3    H225553   3.410   5.786   2.395 -0.9046 -2.1313  0.6960
 1380TIP3   OH225554   6.695   3.325  14.858  0.0603 -0.5092  0.2583
 1380TIP3    H125555   6.678   3.278  14.777  1.8570 -0.1696 -0.3366
 1380TIP3    H225556   6.628   3.394  14.860  0.3217 -0.1886 -1.1997
 1381TIP3   OH225557   5.062   5.528   4.281  0.0363 -0.5458 -0.2512
 1381TIP3    H125558   5.140   5.538   4.226  1.4155  0.2942  1.7760
 1381TIP3    H225559   5.033   5.438   4.266  0.2824 -0.2897 -2.4402
 1382TIP3   OH225560   6.439   3.651   3.056 -0.1082 -0.1066 -0.3497
 1382TIP3    H125561   6.428   3.586   2.987  1.1093 -1.0190  0.2949
 1382TIP3    H225562   6.472   3.729   3.011  1.1816 -0.8620 -0.7372
 1383TIP3   OH225563   3.719   0.908  17.239 -0.2578 -0.3051 -0.1541
 1383TIP3    H125564   3.688   0.827  17.278  2.4156 -1.2779  0.0521
 1383TIP3    H225565   3.768   0.952  17.309 -0.2007  0.6317 -0.7694
 1384TIP3   OH225566   6.059   5.065  11.593  0.1817 -0.0227 -0.0489
 1384TIP3    H125567   6.007   4.997  11.550  1.4510  0.3960 -2.3709
 1384TIP3    H225568   5.996   5.113  11.647 -0.4979 -3.8917  2.8574
 1385TIP3   OH225569   0.593   1.968   1.353  0.3980  0.4259  0.0621
 1385TIP3    H125570   0.649   1.956   1.277 -0.7799  1.5089 -1.0098
 1385TIP3    H225571   0.621   1.901   1.415  0.5718 -1.2385 -1.7899
 1386TIP3   OH225572   4.442   1.264   6.309  0.5430 -0.1504  0.4961
 1386TIP3    H125573   4.504   1.306   6.249 -0.9026 -1.6090 -2.1084
 1386TIP3    H225574   4.480   1.178   6.327 -0.2037 -0.6446 -0.2727
 1387TIP3   OH225575   3.939   1.089  15.873 -0.1997  0.2407 -0.5517
 1387TIP3    H125576   3.966   1.146  15.800 -0.7408  0.5849 -0.4816
 1387TIP3    H225577   3.865   1.040  15.838 -2.1602  2.2802  0.5958
 1388TIP3   OH225578   4.429   0.307   0.152  0.5972 -0.5896 -0.1715
 1388TIP3    H125579   4.344   0.278   0.120  0.0444 -0.7637  1.4256
 1388TIP3    H225580   4.444   0.255   0.231  2.5563 -1.1476 -0.8785
 1389TIP3   OH225581   4.786   0.330   2.922 -0.7073  0.3098 -0.4790
 1389TIP3    H125582   4.786   0.237   2.944  1.0043  0.3347 -0.3435
 1389TIP3    H225583   4.874   0.360   2.944 -1.0862  1.8512 -1.0154
 1390TIP3   OH225584   2.865   4.385  11.491  0.0027 -0.1903  0.6841
 1390TIP3    H125585   2.803   4.334  11.439  2.0393 -1.4764 -0.5588
 1390TIP3    H225586   2.875   4.467  11.442 -0.8443  0.0976  0.9872
 1391TIP3   OH225587   4.884   5.961   3.988 -0.0879 -0.2055 -0.1049
 1391TIP3    H125588   4.790   5.979   3.995 -0.0508  0.3927 -1.0011
 1391TIP3    H225589   4.925   6.030   4.041 -0.2321 -1.8797  2.2755
 1392TIP3   OH225590   3.051   1.584   2.003  0.3844  0.5770  0.0766
 1392TIP3    H125591   3.057   1.666   2.053  1.0985  1.0105 -0.6932
 1392TIP3    H225592   2.974   1.539   2.039 -0.0986  1.6513  0.4087
 1393TIP3   OH225593   2.629   4.540   0.407 -0.1900  0.6426  0.1134
 1393TIP3    H125594   2.633   4.579   0.319  3.3756  0.3032  0.0295
 1393TIP3    H225595   2.662   4.451   0.394  0.9127  0.7791  1.8789
 1394TIP3   OH225596   6.134   4.581  14.561  0.0076  0.0753  0.5251
 1394TIP3    H125597   6.197   4.601  14.630  0.7793 -2.5086  0.6080
 1394TIP3    H225598   6.090   4.664  14.544 -0.9357  0.5477  4.8706
 1395TIP3   OH225599   1.920   1.542  13.148 -0.4930 -0.6682  0.1773
 1395TIP3    H125600   1.863   1.467  13.131 -0.3360 -0.5011 -1.1410
 1395TIP3    H225601   1.998   1.525  13.094 -0.6110  0.6127 -0.4044
 1396TIP3   OH225602   0.231   0.020   6.146  0.5050 -0.4648 -0.4490
 1396TIP3    H125603   0.231   0.113   6.123  0.9302 -0.6426 -1.2224
 1396TIP3    H225604   0.259  -0.024   6.065  1.2660 -1.1899  0.2017
 1397TIP3   OH225605   5.176   1.093   2.270  0.5771 -0.5031 -0.0253
 1397TIP3    H125606   5.232   1.016   2.285  0.9775 -0.6519 -2.0919
 1397TIP3    H225607   5.110   1.062   2.208 -1.3192 -0.0751  1.7070
 1398TIP3   OH225608   5.435   3.383  14.062  0.2778 -0.0135  0.4775
 1398TIP3    H125609   5.421   3.478  14.054 -2.6018 -0.4185  0.1645
 1398TIP3    H225610   5.350   3.345  14.040  1.7534 -2.7403 -0.6249
 1399TIP3   OH225611   5.399   4.854  11.423  0.8752  0.1824  0.0205
 1399TIP3    H125612   5.433   4.801  11.495  1.3021  0.8983  0.3533
 1399TIP3    H225613   5.359   4.930  11.465 -1.3907 -0.7656 -0.3546
 1400TIP3   OH225614   1.788   5.747  16.904  0.2336 -0.1926  0.2803
 1400TIP3    H125615   1.797   5.721  16.812 -0.2011 -1.7195  0.6610
 1400TIP3    H225616   1.795   5.666  16.953  0.6585  0.6387  1.6235
 1401TIP3   OH225617   2.510   4.010  16.631 -0.9444  0.1697 -0.6126
 1401TIP3    H125618   2.571   4.083  16.618 -0.2009 -0.1069  1.1041
 1401TIP3    H225619   2.470   4.027  16.716 -1.1859 -1.1115 -0.4513
 1402TIP3   OH225620   3.633   0.381  16.368  0.2318 -0.0190  0.3490
 1402TIP3    H125621   3.648   0.379  16.463 -0.5489  2.5389  0.5552
 1402TIP3    H225622   3.605   0.292  16.347 -1.7793 -0.0444  2.8837
 1403TIP3   OH225623   2.910   0.463  11.623 -0.4994 -0.0971  0.3581
 1403TIP3    H125624   2.866   0.378  11.636 -0.0611 -0.5174 -0.8844
 1403TIP3    H225625   2.936   0.463  11.531 -1.9304  2.0768 -0.0903
 1404TIP3   OH225626   0.483   1.299  15.773 -0.1644  0.3669 -0.2981
 1404TIP3    H125627   0.482   1.283  15.867  0.0067  2.5136  0.0908
 1404TIP3    H225628   0.410   1.247  15.739 -1.5511  1.2182  1.3127
 1405TIP3   OH225629   3.340   6.208  11.798  0.1887 -0.0926  0.0650
 1405TIP3    H125630   3.257   6.173  11.831  0.0159 -0.2456 -0.5335
 1405TIP3    H225631   3.401   6.134  11.802  0.8257  0.4958  2.3109
 1406TIP3   OH225632   5.370   1.757   0.653 -0.2177  0.2316 -0.4440
 1406TIP3    H125633   5.465   1.773   0.658 -0.0924 -0.3629 -0.8132
 1406TIP3    H225634   5.345   1.793   0.568 -0.4191  0.8808 -0.1041
 1407TIP3   OH225635   4.670   2.407  14.972  0.2225  0.1126  0.4043
 1407TIP3    H125636   4.667   2.314  14.995  1.4687 -0.7522 -2.6526
 1407TIP3    H225637   4.588   2.422  14.924  1.4268 -0.2683 -1.8741
 1408TIP3   OH225638   4.684   2.734  15.565 -0.4193  0.0736 -0.0488
 1408TIP3    H125639   4.687   2.664  15.630 -1.7787  0.2452  0.2250
 1408TIP3    H225640   4.626   2.700  15.497  3.2446 -1.2978 -2.6467
 1409TIP3   OH225641   2.211   0.053   4.795  0.0575 -0.3704  0.1422
 1409TIP3    H125642   2.291   0.040   4.744 -0.5405  1.5974 -1.3346
 1409TIP3    H225643   2.152  -0.017   4.765  0.0311  0.2293 -1.2139
 1410TIP3   OH225644   4.620   1.068  13.455 -0.3121 -0.0347  0.2507
 1410TIP3    H125645   4.686   1.001  13.437 -0.1515  0.8570 -2.7531
 1410TIP3    H225646   4.537   1.021  13.450 -0.0576 -0.6324  1.3932
 1411TIP3   OH225647   5.388   3.545  16.390 -0.1456 -0.1151 -0.0660
 1411TIP3    H125648   5.475   3.516  16.363 -0.5537 -1.4750  0.0345
 1411TIP3    H225649   5.361   3.608  16.322  0.7427  0.0079 -0.3107
 1412TIP3   OH225650   1.069   4.666  11.685  0.3640  0.5238 -0.2870
 1412TIP3    H125651   1.095   4.579  11.714 -0.8505  0.7576  1.6664
 1412TIP3    H225652   1.117   4.681  11.604  1.2115 -1.6229 -0.2024
 1413TIP3   OH225653   2.747   3.520   2.137 -0.6722 -0.0948  1.0715
 1413TIP3    H125654   2.691   3.465   2.081  1.0600 -1.0192  0.2091
 1413TIP3    H225655   2.778   3.460   2.205  0.4755  0.0272  0.6656
 1414TIP3   OH225656   1.105   4.521   2.073  0.3381 -0.3231  0.3111
 1414TIP3    H125657   1.098   4.589   2.139  0.6946  0.5053 -0.4819
 1414TIP3    H225658   1.131   4.442   2.121  1.8998  0.5849  0.9916
 1415TIP3   OH225659   0.666   5.410  14.856  0.3495 -0.0046  0.3763
 1415TIP3    H125660   0.648   5.382  14.766  1.5995  0.6847 -0.1086
 1415TIP3    H225661   0.580   5.413  14.898 -0.2193 -0.6022 -0.7173
 1416TIP3   OH225662   0.502   5.481  12.315  0.1418 -0.5153  0.0255
 1416TIP3    H125663   0.572   5.530  12.357 -1.6087  1.3546  0.8223
 1416TIP3    H225664   0.532   5.467  12.225  1.3465  0.6139  0.2545
 1417TIP3   OH225665   5.214   0.044  16.781  0.5067  0.1125  0.5760
 1417TIP3    H125666   5.152  -0.020  16.745  0.8444 -1.7812  3.2712
 1417TIP3    H225667   5.275  -0.008  16.833  2.2762  2.3689  0.8228
 1418TIP3   OH225668   6.398   4.414  10.980 -0.4528 -0.0361 -0.3226
 1418TIP3    H125669   6.365   4.399  10.891  0.8240 -0.9054 -0.6605
 1418TIP3    H225670   6.470   4.477  10.968  0.1007 -0.6005  0.0234
 1419TIP3   OH225671   5.998   5.595  11.757 -0.7924  0.0283 -0.6431
 1419TIP3    H125672   5.934   5.554  11.699  0.3425 -0.9086 -1.2606
 1419TIP3    H225673   5.964   5.580  11.845 -0.2601 -2.5011 -0.8499
 1420TIP3   OH225674   4.635   6.160  14.091 -0.4229  0.5667 -0.1024
 1420TIP3    H125675   4.648   6.066  14.078  0.4755  0.7555 -0.6027
 1420TIP3    H225676   4.583   6.167  14.171 -0.5881 -0.3589 -0.1282
 1421TIP3   OH225677   0.271   5.884  16.357 -0.1563  0.2081  0.2187
 1421TIP3    H125678   0.353   5.860  16.314  0.3330 -0.9344  1.7255
 1421TIP3    H225679   0.260   5.977  16.338  0.9022  0.1069 -0.9376
 1422TIP3   OH225680   3.442   0.669   0.394  0.0278  0.3990 -0.2828
 1422TIP3    H125681   3.372   0.719   0.353 -2.2517 -2.0271  0.4954
 1422TIP3    H225682   3.442   0.697   0.485 -3.4754 -3.1084  0.9833
 1423TIP3   OH225683   1.639   2.802  10.782  0.0128  0.0054 -0.3744
 1423TIP3    H125684   1.554   2.834  10.750 -0.4592 -0.2934  0.5526
 1423TIP3    H225685   1.617   2.721  10.829  1.0298 -1.0164 -1.6144
 1424TIP3   OH225686   2.058   2.585  13.963  0.4735  0.4634 -0.2094
 1424TIP3    H125687   2.124   2.553  13.901  0.5878 -0.3625  0.3354
 1424TIP3    H225688   2.039   2.674  13.934  0.0355 -0.1519 -1.8412
 1425TIP3   OH225689   0.852   6.645  12.188  0.3505  0.0685  0.1546
 1425TIP3    H125690   0.931   6.619  12.236 -0.2402 -0.7695  0.6921
 1425TIP3    H225691   0.879   6.721  12.137  0.8386  1.3885  2.2832
 1426TIP3   OH225692   4.288   5.799  15.082 -0.0846 -0.0212 -0.3511
 1426TIP3    H125693   4.364   5.855  15.098 -0.1196  0.1612 -0.8307
 1426TIP3    H225694   4.325   5.711  15.075 -0.0754 -0.1179  0.8138
 1427TIP3   OH225695   0.353   4.422  15.512 -0.2224 -0.3734  0.2666
 1427TIP3    H125696   0.321   4.509  15.536  0.7773 -0.3381  1.5072
 1427TIP3    H225697   0.421   4.439  15.446 -2.4487 -0.4301 -2.0933
 1428TIP3   OH225698   2.770   5.594  15.982  0.6091 -0.7198 -0.1559
 1428TIP3    H125699   2.692   5.649  15.973  0.8168 -0.3464  0.2805
 1428TIP3    H225700   2.789   5.563  15.894 -0.3791 -1.2881 -0.1695
 1429TIP3   OH225701   2.668   0.085   4.563  0.2684  0.1817 -0.1930
 1429TIP3    H125702   2.684   0.108   4.472 -0.1004 -0.6092 -0.4684
 1429TIP3    H225703   2.724   0.143   4.614 -0.7919  1.8089 -0.8516
 1430TIP3   OH225704   6.424   1.009  10.945  0.1544  0.6376 -0.4354
 1430TIP3    H125705   6.387   1.074  11.004 -1.0140 -0.1191 -0.3226
 1430TIP3    H225706   6.360   1.002  10.874  0.3895 -0.2029 -0.5659
 1431TIP3   OH225707   0.179   5.269  11.349  0.7300 -0.5624  0.0256
 1431TIP3    H125708   0.146   5.351  11.314  1.7217 -0.0112  0.3591
 1431TIP3    H225709   0.143   5.264  11.437 -0.5704 -1.2345 -0.5347
 1432TIP3   OH225710   4.403   3.170  11.515  0.2436 -0.6479 -0.3173
 1432TIP3    H125711   4.424   3.256  11.479  0.6884 -0.4572  0.3891
 1432TIP3    H225712   4.393   3.114  11.438  0.4934 -0.0868 -0.7615
 1433TIP3   OH225713   0.843   2.647  14.271  0.2301  0.0549  0.6281
 1433TIP3    H125714   0.932   2.667  14.241 -0.4263 -0.2439 -1.6795
 1433TIP3    H225715   0.801   2.732  14.282  0.1872  0.1681 -0.3322
 1434TIP3   OH225716   1.592   3.983  14.610 -0.2985 -0.0339  0.4866
 1434TIP3    H125717   1.664   3.944  14.659  0.4088  1.6293  0.8293
 1434TIP3    H225718   1.633   4.021  14.532 -1.2525 -1.6734 -0.8431
 1435TIP3   OH225719   3.802   6.183  14.557  0.2418  0.7272 -0.0704
 1435TIP3    H125720   3.746   6.201  14.632  1.2731  0.3167  0.8180
 1435TIP3    H225721   3.832   6.269  14.528  0.2542  0.8579  0.3254
 1436TIP3   OH225722   5.583   1.478  17.111  0.1865 -0.3940 -0.1663
 1436TIP3    H125723   5.532   1.414  17.162 -0.5024  0.2443 -0.0490
 1436TIP3    H225724   5.561   1.562  17.150  1.8538 -0.1600  0.3159
 1437TIP3   OH225725   4.164   1.806  12.933 -0.3245  0.0109  0.0352
 1437TIP3    H125726   4.239   1.751  12.910 -0.5060 -0.1022 -0.2895
 1437TIP3    H225727   4.124   1.828  12.849 -0.5956  0.1538  0.2034
 1438TIP3   OH225728   1.480   4.139   1.035 -0.1277  0.0162 -0.3777
 1438TIP3    H125729   1.399   4.190   1.040  0.6457  1.2993 -0.6775
 1438TIP3    H225730   1.452   4.048   1.041 -1.5802  0.4598 -0.3523
 1439TIP3   OH225731   4.884   5.944   1.060  0.0854 -1.1748 -0.6857
 1439TIP3    H125732   4.853   6.030   1.087  1.7085 -0.4936 -0.9585
 1439TIP3    H225733   4.808   5.904   1.019 -0.5833  0.2783 -0.9048
 1440TIP3   OH225734   5.927   1.012   3.334 -0.0273  0.4364  0.5752
 1440TIP3    H125735   5.957   1.099   3.308 -2.0663  1.2947  0.9898
 1440TIP3    H225736   5.997   0.953   3.307  1.1842  2.1583 -0.1107
 1441TIP3   OH225737   5.040   5.229   3.341 -0.0869 -0.2796  0.0454
 1441TIP3    H125738   5.046   5.145   3.296 -0.8695  0.5622 -1.6848
 1441TIP3    H225739   5.118   5.277   3.314  0.8244 -0.7829  1.7548
 1442TIP3   OH225740   0.326   3.640  14.620 -0.0136  0.1682  0.6981
 1442TIP3    H125741   0.377   3.576  14.571 -0.7009  0.3883 -0.3128
 1442TIP3    H225742   0.381   3.718  14.623  0.7554 -0.4112  1.7877
 1443TIP3   OH225743   5.378   4.374  16.618  0.2546 -0.1860 -0.5419
 1443TIP3    H125744   5.329   4.379  16.700  2.0568  0.4934  0.5149
 1443TIP3    H225745   5.442   4.304  16.633  1.2129  0.5857 -1.0402
 1444TIP3   OH225746   6.598   5.226  11.625  0.2807 -0.2464  0.5330
 1444TIP3    H125747   6.573   5.294  11.563 -2.4232 -1.2871  0.4380
 1444TIP3    H225748   6.598   5.145  11.573  2.5168 -0.4931  0.8627
 1445TIP3   OH225749   1.295   0.844  10.922  0.4706  0.1084  0.3229
 1445TIP3    H125750   1.341   0.911  10.973 -0.9028 -0.1654  1.9672
 1445TIP3    H225751   1.225   0.892  10.877  1.9957  0.4349 -1.7474
 1446TIP3   OH225752   1.008   1.748   0.502  0.3555  0.0032  0.0253
 1446TIP3    H125753   0.940   1.800   0.460 -0.8021 -0.8951  0.7755
 1446TIP3    H225754   1.088   1.769   0.453 -0.8263 -0.4464 -2.1668
 1447TIP3   OH225755   2.794   5.536   4.050  0.4047  0.0412  0.2366
 1447TIP3    H125756   2.806   5.626   4.018  1.2419 -0.1552  0.0030
 1447TIP3    H225757   2.753   5.547   4.136 -0.5867  0.6134 -0.3021
 1448TIP3   OH225758   6.701   1.922  11.330 -0.0381  0.1759  0.1227
 1448TIP3    H125759   6.669   1.832  11.326 -1.4732  0.5863  1.6562
 1448TIP3    H225760   6.692   1.946  11.422 -0.3174  2.1222 -0.3920
 1449TIP3   OH225761   0.938   6.303  13.382 -0.0968  0.2067  0.3873
 1449TIP3    H125762   0.983   6.371  13.433 -0.0167  1.4821 -1.3611
 1449TIP3    H225763   0.845   6.319  13.397 -0.0879  0.9771 -0.3661
 1450TIP3   OH225764   4.796   0.309  14.475 -1.0376  0.1040 -0.5278
 1450TIP3    H125765   4.777   0.389  14.524  0.8375  1.9019 -2.6599
 1450TIP3    H225766   4.871   0.331  14.420  1.0383 -3.8334  0.5255
 1451TIP3   OH225767   2.861   4.741  12.564 -0.5604  0.0325 -0.4328
 1451TIP3    H125768   2.929   4.703  12.620 -1.4438 -2.0580 -0.7617
 1451TIP3    H225769   2.896   4.827  12.540  1.0478 -0.1621  1.0755
 1452TIP3   OH225770   3.754   1.196   0.566 -0.1987  0.4676  0.1401
 1452TIP3    H125771   3.727   1.112   0.603  0.8082  0.5663  1.0982
 1452TIP3    H225772   3.674   1.248   0.564 -0.8922 -0.6023 -0.7376
 1453TIP3   OH225773   1.141   5.934   2.674  0.0218 -0.5667 -0.2514
 1453TIP3    H125774   1.152   5.983   2.755 -1.8195 -0.5032 -0.0286
 1453TIP3    H225775   1.174   5.846   2.694 -0.1789 -0.4789  0.4754
 1454TIP3   OH225776   5.050   1.246   1.346 -0.1840 -0.1636 -0.0611
 1454TIP3    H125777   5.095   1.328   1.326 -0.2274  0.1974  1.2765
 1454TIP3    H225778   4.958   1.265   1.331 -0.1542 -0.0923 -0.1580
 1455TIP3   OH225779   0.920   4.046  16.749  0.7369  0.2706 -0.3801
 1455TIP3    H125780   0.959   4.108  16.810 -0.7675  1.1006 -0.2385
 1455TIP3    H225781   0.968   4.060  16.667 -0.0538  2.1455 -0.5517
 1456TIP3   OH225782   1.944   2.100  17.227 -0.1004  0.1942  0.3951
 1456TIP3    H125783   1.942   2.007  17.204  1.2860  1.0653 -3.7089
 1456TIP3    H225784   1.985   2.103  17.313 -0.1719 -2.9867  0.5818
 1457TIP3   OH225785   5.055   2.848   0.497 -0.2263 -0.1634 -0.1283
 1457TIP3    H125786   4.989   2.866   0.564 -0.1894  1.7338 -0.5527
 1457TIP3    H225787   5.132   2.896   0.528  1.1110 -2.7060  0.5784
 1458TIP3   OH225788   2.772   1.682   0.867 -0.7924  0.1759 -0.4494
 1458TIP3    H125789   2.737   1.705   0.953  1.3072  0.7583  0.2823
 1458TIP3    H225790   2.702   1.705   0.806 -2.9384 -1.7326  1.2095
 1459TIP3   OH225791   5.880   2.273  17.221  0.5207 -0.1542 -0.2565
 1459TIP3    H125792   5.835   2.210  17.278  1.6543 -0.9956 -0.2823
 1459TIP3    H225793   5.888   2.229  17.137  0.1213  0.5433 -0.6656
 1460TIP3   OH225794   2.540   6.238  13.165 -0.4188  0.1717  0.4803
 1460TIP3    H125795   2.475   6.170  13.179 -1.0084  0.3910 -1.0859
 1460TIP3    H225796   2.511   6.310  13.221 -1.9821  0.5664 -0.8068
 1461TIP3   OH225797   5.016   4.822   0.404 -0.2145 -0.0648 -1.0628
 1461TIP3    H125798   5.021   4.744   0.348  2.4959  0.1148 -1.1665
 1461TIP3    H225799   5.029   4.788   0.492  0.9829  0.2432 -1.1088
 1462TIP3   OH225800   4.460   3.125  13.449  0.0016 -0.6638 -0.0852
 1462TIP3    H125801   4.552   3.146  13.433 -0.4080  1.6080  0.3178
 1462TIP3    H225802   4.432   3.077  13.371  0.1978  3.0948 -2.6093
 1463TIP3   OH225803   6.770   1.257  12.185 -0.0649 -0.0035 -0.5476
 1463TIP3    H125804   6.821   1.300  12.254  0.8268 -2.0276  0.0656
 1463TIP3    H225805   6.699   1.319  12.166  0.0853  0.8843  1.6705
 1464TIP3   OH225806   4.859   0.071  12.887  0.4162  0.0756 -0.2631
 1464TIP3    H125807   4.845  -0.018  12.919  1.4960 -0.0878 -0.2047
 1464TIP3    H225808   4.771   0.106  12.873 -0.0153 -1.0525 -0.4482
 1465TIP3   OH225809   6.202   6.161  13.386 -0.5156 -0.0813 -0.4958
 1465TIP3    H125810   6.280   6.184  13.435  1.1121 -1.2974 -2.4178
 1465TIP3    H225811   6.207   6.213  13.306 -2.2382  0.6347 -0.1619
 1466TIP3   OH225812   3.716   2.374  13.892 -0.0454  0.1340 -0.1257
 1466TIP3    H125813   3.784   2.364  13.826  0.8619 -1.0161  0.9589
 1466TIP3    H225814   3.634   2.363  13.844  0.5238  1.2581 -1.3925
 1467TIP3   OH225815   0.138   4.016  14.471 -0.0748  0.5615  0.1770
 1467TIP3    H125816   0.142   4.076  14.396 -0.7378  1.5208  0.8924
 1467TIP3    H225817   0.045   4.014  14.494 -0.2375 -1.7289 -0.6153
 1468TIP3   OH225818   0.043   0.323  15.874  0.6316 -0.4486 -0.2061
 1468TIP3    H125819  -0.011   0.338  15.796  0.9105  0.2445 -0.2720
 1468TIP3    H225820   0.094   0.245  15.854 -0.2925 -1.0696 -0.1739
 1469TIP3   OH225821   5.126   1.074  13.864  0.2083 -0.1528  0.1234
 1469TIP3    H125822   5.105   1.167  13.855  1.4046  0.3290  2.0352
 1469TIP3    H225823   5.089   1.049  13.948  0.6473 -1.2054  0.0076
 1470TIP3   OH225824   1.866   1.619  12.643  0.3996  0.0250 -0.1503
 1470TIP3    H125825   1.832   1.685  12.582  0.1600  0.4112  0.3919
 1470TIP3    H225826   1.818   1.635  12.724  3.1787  1.8023  1.2183
 1471TIP3   OH225827   1.691   5.485  16.196 -0.6134  0.8204  0.6140
 1471TIP3    H125828   1.670   5.418  16.131 -0.1482  1.1174  0.1590
 1471TIP3    H225829   1.743   5.549  16.148 -0.8239  1.3663  1.1229
 1472TIP3   OH225830   3.261   4.673   4.406  0.5200 -0.1762  0.2169
 1472TIP3    H125831   3.344   4.647   4.446  0.6256  0.1810  0.2344
 1472TIP3    H225832   3.273   4.765   4.384  0.1895 -0.1694  0.0580
 1473TIP3   OH225833   4.496   0.291  15.591 -0.1303 -0.7138 -0.6710
 1473TIP3    H125834   4.440   0.213  15.593  0.7246 -1.3354 -0.9380
 1473TIP3    H225835   4.577   0.261  15.549  1.2279 -0.3610  1.6629
 1474TIP3   OH225836   2.885   5.792   4.018  0.1456  0.5122 -0.3956
 1474TIP3    H125837   2.830   5.845   3.959 -0.9739  2.0990  1.9967
 1474TIP3    H225838   2.937   5.856   4.066  2.5148 -0.8856 -1.0584
 1475TIP3   OH225839   6.294   4.269   2.246  0.1218 -0.0931 -0.1661
 1475TIP3    H125840   6.218   4.235   2.292  1.0295 -0.8620  0.7897
 1475TIP3    H225841   6.279   4.363   2.239 -0.0744  0.0241  1.6205
 1476TIP3   OH225842   1.039   1.881   4.131 -0.5315 -0.1173 -0.3820
 1476TIP3    H125843   1.040   1.785   4.131 -1.5662 -0.1361  0.6749
 1476TIP3    H225844   1.101   1.905   4.200 -0.4379 -0.0322 -0.4961
 1477TIP3   OH225845   6.207   0.468   3.432  0.4218  0.0384 -0.1313
 1477TIP3    H125846   6.217   0.562   3.419  0.7614  0.1609  0.8999
 1477TIP3    H225847   6.297   0.434   3.428  0.4805  0.0027  1.1294
 1478TIP3   OH225848   4.730   2.857  16.893 -0.2291  0.3016 -0.6248
 1478TIP3    H125849   4.781   2.861  16.812  3.2875  1.6345  1.5388
 1478TIP3    H225850   4.733   2.764  16.917  0.2701  0.1911 -1.0776
 1479TIP3   OH225851   5.254   6.317   0.304  0.4929  0.0628  0.5077
 1479TIP3    H125852   5.295   6.328   0.390 -0.6197  1.0971  0.9164
 1479TIP3    H225853   5.172   6.270   0.321 -0.4582  1.5838  0.2130
 1480TIP3   OH225854   5.567   3.154   1.093 -0.0094 -0.1596 -0.2518
 1480TIP3    H125855   5.638   3.135   1.031  1.0813  2.5849  0.0924
 1480TIP3    H225856   5.499   3.195   1.040 -0.1653 -0.2037 -0.0864
 1481TIP3   OH225857   4.358   6.637  16.279  0.6838 -0.5012  0.3597
 1481TIP3    H125858   4.351   6.707  16.214 -0.6343 -0.3040  0.6977
 1481TIP3    H225859   4.278   6.586  16.269  0.0833 -0.0025  2.3606
 1482TIP3   OH225860   0.429   6.061   2.292  0.0459 -0.3663 -0.3554
 1482TIP3    H125861   0.470   5.975   2.289 -0.1395 -0.6113  2.5340
 1482TIP3    H225862   0.401   6.071   2.383 -1.3610  2.0926 -1.0041
 1483TIP3   OH225863   3.392   5.298   6.205  0.9772  0.7963  0.1631
 1483TIP3    H125864   3.442   5.305   6.123  0.1186  1.0483 -0.3495
 1483TIP3    H225865   3.422   5.371   6.258  1.5134  0.6536  0.0693
 1484TIP3   OH225866   3.791   3.487   6.479 -0.3539 -0.3096 -0.0249
 1484TIP3    H125867   3.713   3.432   6.492 -0.0750 -0.3221  1.6999
 1484TIP3    H225868   3.864   3.425   6.477 -0.2453 -0.1760 -0.1681
 1485TIP3   OH225869   0.426   5.177  12.597 -0.4070  0.2003  0.3516
 1485TIP3    H125870   0.469   5.124  12.530  0.4912 -1.6540  2.3175
 1485TIP3    H225871   0.498   5.213  12.648 -1.0774 -1.2912  2.4458
 1486TIP3   OH225872   5.033   3.750   6.637 -0.0126  0.0714  0.4801
 1486TIP3    H125873   5.007   3.759   6.546 -1.5288  1.0788  0.9954
 1486TIP3    H225874   5.067   3.660   6.644 -0.2456 -0.1302 -0.9648
 1487TIP3   OH225875   4.636   6.552  15.589  0.2808 -0.1515  0.2812
 1487TIP3    H125876   4.548   6.582  15.564 -0.1278 -0.7553  0.9542
 1487TIP3    H225877   4.643   6.574  15.682  0.7240 -0.3795  0.3046
 1488TIP3   OH225878   2.431   2.182  11.111  0.0715 -0.1309 -0.0893
 1488TIP3    H125879   2.380   2.233  11.173 -0.5910 -0.1508 -0.6082
 1488TIP3    H225880   2.369   2.160  11.041  1.0486  0.7260 -1.2448
 1489TIP3   OH225881   5.969   1.339   1.841  0.6219 -0.1170 -0.3146
 1489TIP3    H125882   5.970   1.268   1.777 -0.2518  1.1681 -1.8087
 1489TIP3    H225883   5.877   1.367   1.844  0.5924 -0.3836  1.7863
 1490TIP3   OH225884   1.709   4.462   3.080  0.6677  0.2872  0.0275
 1490TIP3    H125885   1.644   4.500   3.021 -0.5394 -1.3106  0.3199
 1490TIP3    H225886   1.793   4.492   3.044 -0.1313  0.9919 -1.3142
 1491TIP3   OH225887   6.540   6.606  16.579 -0.1679 -0.1126  0.2208
 1491TIP3    H125888   6.556   6.544  16.650  0.0337  0.9845  1.1510
 1491TIP3    H225889   6.527   6.690  16.623 -0.1073  0.5668 -1.0345
 1492TIP3   OH225890   3.386   1.250   4.535 -0.6541  0.2172  0.3692
 1492TIP3    H125891   3.456   1.256   4.600 -1.2992 -1.3811  1.2471
 1492TIP3    H225892   3.306   1.243   4.587 -1.2113 -0.7552 -0.6137
 1493TIP3   OH225893   5.949   0.829  12.144  0.1404 -0.3200 -0.3500
 1493TIP3    H125894   6.034   0.788  12.128 -0.7695 -1.4727 -2.5033
 1493TIP3    H225895   5.935   0.819  12.238  2.1339 -0.5707 -0.0385
 1494TIP3   OH225896   6.086   4.616   0.961  0.0779  0.1600  0.2378
 1494TIP3    H125897   6.037   4.542   0.925  1.1192 -0.8401  0.8438
 1494TIP3    H225898   6.121   4.584   1.044  2.3122  0.6281 -0.4884
 1495TIP3   OH225899   1.085   3.306  13.189  0.4615 -0.0315 -0.2972
 1495TIP3    H125900   1.013   3.316  13.127 -0.8340 -0.4146  1.1126
 1495TIP3    H225901   1.088   3.211  13.206 -0.2408  0.2436  1.4281
 1496TIP3   OH225902   6.661   4.649   1.135 -0.1524  0.2357 -0.0514
 1496TIP3    H125903   6.751   4.653   1.168 -0.2514  0.7710  0.1678
 1496TIP3    H225904   6.670   4.624   1.043  0.1432 -1.0363  0.3106
 1497TIP3   OH225905   0.936   6.488  13.098  0.1217  0.1681  0.2979
 1497TIP3    H125906   0.865   6.499  13.162 -0.5310  0.4329 -0.4708
 1497TIP3    H225907   1.013   6.522  13.143 -0.1054 -0.7629  1.3982
 1498TIP3   OH225908   2.760   2.469   1.291  0.3413  0.3584  0.3429
 1498TIP3    H125909   2.785   2.394   1.237  1.5752 -0.1266  1.5758
 1498TIP3    H225910   2.837   2.524   1.293 -0.2127  1.1441  0.3556
 1499TIP3   OH225911   5.904   3.071  15.563 -0.4200 -0.0810  0.2430
 1499TIP3    H125912   5.822   3.026  15.585 -1.1111  0.3267 -1.4141
 1499TIP3    H225913   5.888   3.110  15.478  1.9960 -1.2241 -0.7914
 1500TIP3   OH225914   5.199   2.923   1.523  0.7380  0.2963 -0.2904
 1500TIP3    H125915   5.214   2.856   1.590 -0.1777 -1.1510 -1.5178
 1500TIP3    H225916   5.279   2.924   1.471  1.0599  0.7157  0.2102
 1501TIP3   OH225917   6.681   6.305  12.323  0.2931 -0.2148 -0.0113
 1501TIP3    H125918   6.639   6.289  12.407  0.7269  2.6783  0.8032
 1501TIP3    H225919   6.615   6.352  12.272  0.9129  0.2191 -0.4169
 1502TIP3   OH225920   2.773   2.611  11.346  0.0780  0.3747  0.1200
 1502TIP3    H125921   2.733   2.696  11.364  1.8010  1.4574 -0.9544
 1502TIP3    H225922   2.863   2.620  11.378  0.6469 -0.5757 -1.1440
 1503TIP3   OH225923   6.622   1.999   3.907  0.0398  0.2750 -0.6650
 1503TIP3    H125924   6.559   2.059   3.947 -0.1369  0.1754 -0.7939
 1503TIP3    H225925   6.693   2.056   3.878  1.6836  0.0234  2.6508
 1504TIP3   OH225926   6.270   1.112   2.009 -0.0378 -0.3895 -0.2149
 1504TIP3    H125927   6.366   1.104   2.005 -0.2326 -2.6801 -0.9990
 1504TIP3    H225928   6.250   1.182   1.947  1.1876  0.7167  0.5998
 1505TIP3   OH225929   6.188   6.405  16.116  0.3833 -0.5223 -0.2274
 1505TIP3    H125930   6.228   6.326  16.080 -0.6628 -1.2051  0.0901
 1505TIP3    H225931   6.130   6.373  16.185  0.2023  0.5475  0.1220
 1506TIP3   OH225932   5.144   2.801  11.711 -0.1037 -0.0313  0.7249
 1506TIP3    H125933   5.167   2.819  11.802  1.2148  1.3300  0.1538
 1506TIP3    H225934   5.222   2.757  11.676 -1.1104 -1.7338  0.5873
 1507TIP3   OH225935   0.919   2.560  12.964  0.5481 -0.0841  0.0706
 1507TIP3    H125936   0.841   2.506  12.974  0.9926 -0.8270 -0.4180
 1507TIP3    H225937   0.903   2.611  12.884  0.5015 -0.1268  0.0521
 1508TIP3   OH225938   5.399   1.841   3.744  0.1926 -0.1585 -0.1406
 1508TIP3    H125939   5.345   1.855   3.822  0.7491 -0.8435  0.3784
 1508TIP3    H225940   5.489   1.849   3.776  0.4856 -2.6261 -0.2499
 1509TIP3   OH225941   1.890   0.994   2.817  0.1597 -0.0425 -0.0330
 1509TIP3    H125942   1.847   0.959   2.739  0.0110  0.7335 -0.3019
 1509TIP3    H225943   1.819   1.016   2.877  0.2800 -0.7826  0.3865
 1510TIP3   OH225944   2.023   5.697   0.072 -0.1957  0.3336  0.1891
 1510TIP3    H125945   2.111   5.719   0.103 -0.0826  1.4058 -0.8526
 1510TIP3    H225946   1.995   5.774   0.023 -1.2991 -0.4170 -0.3856
 1511TIP3   OH225947   5.171   3.611  14.137 -0.3970  0.1897  0.1344
 1511TIP3    H125948   5.263   3.636  14.146 -0.7438  1.1938  1.1275
 1511TIP3    H225949   5.161   3.535  14.195  0.4766 -1.8184 -2.2695
 1512TIP3   OH225950   1.926   0.239   4.270  0.0487 -0.7366 -0.5568
 1512TIP3    H125951   2.012   0.208   4.242  0.3671 -1.1244  0.8021
 1512TIP3    H225952   1.945   0.317   4.323 -0.4170 -1.0464  0.0604
 1513TIP3   OH225953   3.094   3.583   5.854  0.0810 -0.2785 -0.3827
 1513TIP3    H125954   3.144   3.644   5.909 -0.3468 -1.1894  1.0499
 1513TIP3    H225955   3.160   3.535   5.804  0.4938  0.3012 -0.3975
 1514TIP3   OH225956   3.231   4.970   4.523  0.6418 -0.3033  0.1931
 1514TIP3    H125957   3.287   4.910   4.573  2.4563  0.7518 -0.5288
 1514TIP3    H225958   3.278   4.983   4.441 -1.7952 -1.1825 -1.3693
 1515TIP3   OH225959   0.908   6.304   2.618  0.0380  0.2888 -0.0957
 1515TIP3    H125960   0.957   6.234   2.576 -0.1203 -0.6052  1.1604
 1515TIP3    H225961   0.817   6.287   2.596  0.1048  0.7907 -0.7706
 1516TIP3   OH225962   1.040   5.333  13.583 -0.0432 -0.5288  0.6786
 1516TIP3    H125963   1.093   5.390  13.638 -0.7474 -0.4453  1.2749
 1516TIP3    H225964   0.997   5.392  13.520  0.4666 -0.5824  0.2798
 1517TIP3   OH225965   2.788   2.693   6.842 -0.7545  1.0715 -1.1232
 1517TIP3    H125966   2.710   2.645   6.870 -0.2338  0.3399 -0.9058
 1517TIP3    H225967   2.774   2.782   6.874 -0.2289  0.2918  1.4357
 1518TIP3   OH225968   5.082   2.034   1.592  0.1252 -0.2744  0.2693
 1518TIP3    H125969   5.131   1.973   1.536 -1.3412  0.2880 -1.7074
 1518TIP3    H225970   5.139   2.049   1.667  1.6432 -2.0140 -0.4933
 1519TIP3   OH225971   4.649   4.241   5.360  0.1331  0.4077 -0.3265
 1519TIP3    H125972   4.575   4.259   5.419  0.3630 -0.5293  0.2607
 1519TIP3    H225973   4.689   4.162   5.396  0.6290  0.1592 -1.4126
 1520TIP3   OH225974   2.610   6.531  14.942 -0.1221  0.1599  0.2359
 1520TIP3    H125975   2.630   6.582  15.021 -0.9078 -1.1142  1.2834
 1520TIP3    H225976   2.695   6.514  14.902  0.2189  1.5724  0.3034
 1521TIP3   OH225977   0.722   0.994  12.366 -0.0334  0.2820  0.3965
 1521TIP3    H125978   0.671   0.973  12.287 -0.3728  0.0864  0.6664
 1521TIP3    H225979   0.768   0.913  12.387  2.1560  1.0768 -1.1354
 1522TIP3   OH225980   2.392   0.176   3.451  0.5264 -0.1302 -0.2192
 1522TIP3    H125981   2.414   0.268   3.461  0.5159 -0.0873 -0.5943
 1522TIP3    H225982   2.360   0.150   3.537  0.3488  0.2657 -0.1652
 1523TIP3   OH225983   3.229   0.021   2.926 -0.0618  0.9688 -0.2440
 1523TIP3    H125984   3.297   0.004   2.992 -0.8646 -0.2860  0.2807
 1523TIP3    H225985   3.241  -0.048   2.861 -2.2222 -0.6521  0.9928
 1524TIP3   OH225986   5.593   2.090   1.889 -0.0806  0.1525  0.0623
 1524TIP3    H125987   5.646   2.155   1.935  1.6459 -0.4104 -1.0668
 1524TIP3    H225988   5.629   2.088   1.800 -2.1573 -0.0950 -0.8075
 1525TIP3   OH225989   0.780   2.114  17.239 -0.3651  0.0124 -0.2208
 1525TIP3    H125990   0.694   2.088  17.271 -1.1876  1.6446 -1.0572
 1525TIP3    H225991   0.763   2.184  17.176  1.5398  0.0283 -0.7763
 1526TIP3   OH225992   2.229   2.855  11.827  0.2710 -0.3037  0.4885
 1526TIP3    H125993   2.313   2.876  11.868  0.2171 -1.4441  1.2107
 1526TIP3    H225994   2.165   2.866  11.898  0.2524 -2.9536  0.9193
 1527TIP3   OH225995   1.684   0.566   3.691 -0.1854  0.2602 -0.9879
 1527TIP3    H125996   1.721   0.480   3.671 -0.5096  0.5490 -2.9408
 1527TIP3    H225997   1.760   0.621   3.712 -0.0484 -0.6975  1.1032
 1528TIP3   OH225998   1.651   2.142  13.169  0.4722  0.6181 -0.0699
 1528TIP3    H125999   1.717   2.208  13.150  1.6446 -1.0012 -1.7420
 1528TIP3    H226000   1.699   2.066  13.202 -0.7099  0.0730  0.4655
 1529TIP3   OH226001   0.962   1.230  15.150 -0.0421  0.1403 -0.0464
 1529TIP3    H126002   1.018   1.152  15.146 -1.4414 -0.8366 -1.5598
 1529TIP3    H226003   0.893   1.207  15.211 -0.3431  0.2576 -0.3381
 1530TIP3   OH226004   5.786   6.710   6.326  0.5148 -0.1681 -0.4848
 1530TIP3    H126005   5.871   6.752   6.339  1.0372 -1.8643  2.0338
 1530TIP3    H226006   5.805   6.616   6.329 -1.2837 -0.5687 -1.0557
 1531TIP3   OH226007   2.293   5.991   5.540 -0.2585 -0.0462 -0.0553
 1531TIP3    H126008   2.204   6.011   5.511 -0.9036 -1.2677  1.0146
 1531TIP3    H226009   2.318   6.065   5.595 -1.7560 -1.0313  2.0340
 1532TIP3   OH226010   0.668   1.701  14.590 -0.1942 -0.5842 -1.0075
 1532TIP3    H126011   0.622   1.758  14.529 -1.2636 -0.9178 -0.5167
 1532TIP3    H226012   0.599   1.658  14.640  0.6717  0.4038  1.0989
 1533TIP3   OH226013   1.201   5.451   4.656  0.5884 -0.3347 -0.4862
 1533TIP3    H126014   1.185   5.357   4.652 -0.0336 -0.2748  0.4335
 1533TIP3    H226015   1.281   5.460   4.708  0.7216 -0.3569 -0.6853
 1534TIP3   OH226016   6.413   5.935  15.040 -0.7525 -0.5810  0.4701
 1534TIP3    H126017   6.488   5.916  15.096  1.1353 -0.3823 -1.9166
 1534TIP3    H226018   6.344   5.877  15.072  1.7527 -4.0627 -0.0949
 1535TIP3   OH226019   1.106   3.292   2.312 -0.6265 -0.4322 -0.0735
 1535TIP3    H126020   1.190   3.319   2.349 -0.6178 -0.7515  0.1401
 1535TIP3    H226021   1.041   3.320   2.377 -0.9578  2.4332 -1.5455
 1536TIP3   OH226022   2.921   0.155  16.576  0.8044  0.7010  0.0633
 1536TIP3    H126023   2.867   0.226  16.612 -0.8328 -0.2722 -0.3934
 1536TIP3    H226024   2.859   0.103  16.524  2.0783 -0.7973  0.0240
 1537TIP3   OH226025   0.779   4.436  14.349  0.4491  0.0447 -0.3393
 1537TIP3    H126026   0.868   4.448  14.384  0.4420 -1.8163  0.4130
 1537TIP3    H226027   0.790   4.368  14.282 -0.5960 -1.1616  0.6827
 1538TIP3   OH226028   1.672   3.546   6.101 -0.0317  0.7367 -0.4400
 1538TIP3    H126029   1.682   3.473   6.040 -1.2891  1.2729 -1.3246
 1538TIP3    H226030   1.726   3.523   6.176 -0.1584 -0.9553 -0.8480
 1539TIP3   OH226031   0.408   3.255  16.263 -0.2387 -0.0089 -0.2625
 1539TIP3    H126032   0.443   3.194  16.198 -0.6498 -1.5607  0.9364
 1539TIP3    H226033   0.379   3.199  16.336 -3.5041  1.3341 -0.4183
 1540TIP3   OH226034   6.431   4.151   1.055 -0.0996 -0.7873 -0.1786
 1540TIP3    H126035   6.400   4.071   1.012 -0.3237  0.6466 -2.8004
 1540TIP3    H226036   6.396   4.146   1.143 -1.2320 -2.9476 -0.7210
 1541TIP3   OH226037   0.077   6.410  14.348  0.1797 -0.3890  0.2100
 1541TIP3    H126038   0.105   6.494  14.311 -0.5545  0.1622  0.8779
 1541TIP3    H226039   0.153   6.379  14.398 -0.4951  1.3114  2.3878
 1542TIP3   OH226040   5.995   6.457  14.262 -0.1100 -0.2831  0.0322
 1542TIP3    H126041   6.063   6.418  14.317  2.3029  0.5544 -2.1975
 1542TIP3    H226042   5.946   6.515  14.321  3.6264  2.1055  1.0075
 1543TIP3   OH226043   1.210   0.468   3.138  0.4599 -0.0834  0.0045
 1543TIP3    H126044   1.159   0.526   3.081  1.7914 -0.4361 -1.6029
 1543TIP3    H226045   1.288   0.446   3.086  1.4614 -0.8436  1.7795
 1544TIP3   OH226046   5.963   0.674   5.178 -0.0654  0.0655  0.0561
 1544TIP3    H126047   5.982   0.756   5.132  0.6849  0.3057  0.7894
 1544TIP3    H226048   5.931   0.615   5.109 -0.7858  1.0211 -0.4483
 1545TIP3   OH226049   4.316   5.875   2.734  0.1664 -0.2604  0.3621
 1545TIP3    H126050   4.226   5.867   2.766  0.4576 -1.3309  0.9264
 1545TIP3    H226051   4.354   5.943   2.790 -0.6987  1.2626 -0.8414
 1546TIP3   OH226052   0.130   4.197   3.646 -0.2455 -0.0776 -0.3135
 1546TIP3    H126053   0.223   4.198   3.671 -0.1774  0.9176 -0.6112
 1546TIP3    H226054   0.118   4.276   3.594 -1.9950  1.4564  2.3277
 1547TIP3   OH226055   1.859   0.480  16.591  0.3248 -0.1331 -1.2243
 1547TIP3    H126056   1.897   0.473  16.679  0.2479  0.9998 -1.0990
 1547TIP3    H226057   1.773   0.440  16.599  0.0076  0.6784 -0.5929
 1548TIP3   OH226058   5.856   5.659   1.381  0.1981 -0.0168 -1.3393
 1548TIP3    H126059   5.920   5.588   1.379  0.4048  0.1728 -1.4318
 1548TIP3    H226060   5.772   5.616   1.369  0.0430 -0.5823  1.3815
 1549TIP3   OH226061   1.263   4.319   4.453  0.2474 -0.0497 -0.3823
 1549TIP3    H126062   1.257   4.266   4.533 -1.4622 -0.0290 -0.4980
 1549TIP3    H226063   1.321   4.268   4.396 -0.9123 -1.5215 -0.2721
 1550TIP3   OH226064   6.024   3.495   0.737 -0.0355  0.1068  0.6719
 1550TIP3    H126065   5.955   3.489   0.672 -0.0943  1.3584  0.5975
 1550TIP3    H226066   6.093   3.437   0.706  0.2377  1.2423 -0.8894
 1551TIP3   OH226067   4.195   4.505   1.963 -0.4863  0.6187 -0.4974
 1551TIP3    H126068   4.196   4.452   2.042  0.0280 -2.0727 -2.2372
 1551TIP3    H226069   4.251   4.580   1.983  2.3292 -1.7032  0.5969
 1552TIP3   OH226070   6.419   3.592  16.953 -0.5474 -0.4839 -0.4359
 1552TIP3    H126071   6.433   3.586  16.858 -0.6621 -1.0447 -0.4235
 1552TIP3    H226072   6.482   3.656  16.983 -1.1951  0.4482 -1.0428
 1553TIP3   OH226073   5.415   6.110   2.205  0.0008  0.3462  0.2560
 1553TIP3    H126074   5.494   6.090   2.155 -0.9238  2.1202 -2.0003
 1553TIP3    H226075   5.448   6.144   2.289  1.6585  0.9735 -0.6228
 1554TIP3   OH226076   3.656   0.054   3.750  0.0546  0.4379  0.1333
 1554TIP3    H126077   3.597  -0.008   3.706  1.5628  1.1027 -2.9646
 1554TIP3    H226078   3.717  -0.002   3.798 -1.7011 -0.3025  1.5808
 1555TIP3   OH226079   3.509   0.984  12.259 -0.2638  0.2042  0.2861
 1555TIP3    H126080   3.467   0.904  12.228 -1.4702  0.2115  1.8140
 1555TIP3    H226081   3.519   1.039  12.182  2.1891 -2.1147 -1.1211
 1556TIP3   OH226082   3.509   6.067   1.733  0.0378 -0.1770  0.2031
 1556TIP3    H126083   3.464   5.986   1.756 -1.7642  0.7708  0.0826
 1556TIP3    H226084   3.484   6.084   1.642  0.4126  0.5121  0.2235
 1557TIP3   OH226085   6.375   0.399  16.696 -0.5831 -0.0140  0.0535
 1557TIP3    H126086   6.350   0.411  16.605 -1.1965 -1.7483 -0.0206
 1557TIP3    H226087   6.300   0.355  16.736 -0.2707  0.6189  1.3643
 1558TIP3   OH226088   3.183   2.025  16.914 -0.7110  0.0657 -0.2808
 1558TIP3    H126089   3.137   2.025  16.830 -1.3325  0.7786  0.0515
 1558TIP3    H226090   3.258   2.083  16.900 -0.8888  0.2915 -0.3039
 1559TIP3   OH226091   2.876   3.557   1.086  0.1909  0.0672  0.1009
 1559TIP3    H126092   2.966   3.590   1.083  0.4361 -0.6980 -1.3847
 1559TIP3    H226093   2.886   3.461   1.086 -0.6432 -0.0260 -0.8277
 1560TIP3   OH226094   0.864   2.947   1.743 -0.1462 -0.1391  0.3810
 1560TIP3    H126095   0.913   2.874   1.780  0.9042 -0.8078 -2.2021
 1560TIP3    H226096   0.930   2.997   1.694 -1.8049 -0.3653 -2.1603
 1561TIP3   OH226097   2.042   0.919   5.413  0.2837  0.1525  0.5308
 1561TIP3    H126098   2.016   0.828   5.426 -0.3111  0.3774  0.9583
 1561TIP3    H226099   2.138   0.918   5.421  0.4487 -0.7317 -1.3775
 1562TIP3   OH226100   6.469   1.571  17.082 -0.1260  0.5645  0.4197
 1562TIP3    H126101   6.395   1.546  17.137 -0.3662 -0.8406 -0.5144
 1562TIP3    H226102   6.517   1.635  17.134 -1.5995  0.9465  1.3315
 1563TIP3   OH226103   0.283   3.584   2.886 -0.6350 -0.2017  0.6129
 1563TIP3    H126104   0.243   3.512   2.838  2.4241 -0.0634 -2.2838
 1563TIP3    H226105   0.326   3.542   2.961  1.0080 -1.4430 -0.9736
 1564TIP3   OH226106   6.157   1.005   2.976 -0.2029 -0.0058 -0.4636
 1564TIP3    H126107   6.218   0.949   2.928 -1.6503 -0.4829 -1.7596
 1564TIP3    H226108   6.136   1.076   2.916  0.1710  0.9354  0.4991
 1565TIP3   OH226109   5.794   1.969  17.080  0.4330 -0.1383  0.2518
 1565TIP3    H126110   5.760   1.990  17.167  0.8442 -1.4551  0.7318
 1565TIP3    H226111   5.889   1.968  17.091  0.4288 -3.7891  0.6478
 1566TIP3   OH226112   3.148   4.439   5.699 -0.1582 -0.5226  0.4973
 1566TIP3    H126113   3.191   4.381   5.637 -0.5125 -1.0357  0.7362
 1566TIP3    H226114   3.220   4.494   5.733 -0.0486  0.1227 -0.7453
 1567TIP3   OH226115   2.080   2.773  15.897 -0.1290 -0.6301  0.0439
 1567TIP3    H126116   2.171   2.794  15.919 -0.2668 -0.4191  0.4197
 1567TIP3    H226117   2.047   2.727  15.974 -0.8043  0.6604  0.5361
 1568TIP3   OH226118   2.198   4.044  16.690 -0.0645 -0.0157 -0.1525
 1568TIP3    H126119   2.235   4.069  16.775  1.3355 -0.2977 -0.6536
 1568TIP3    H226120   2.220   3.952  16.681 -0.4107 -0.0438 -0.7275
 1569TIP3   OH226121   1.813   2.763   1.085 -0.1603  0.0223 -0.3514
 1569TIP3    H126122   1.815   2.680   1.133 -0.0129 -1.2740 -2.4940
 1569TIP3    H226123   1.889   2.811   1.117 -0.5658 -0.4308  1.3309
 1570TIP3   OH226124   6.231   0.104  12.027  0.0481  0.3928  0.0900
 1570TIP3    H126125   6.191   0.127  12.110 -0.1113 -0.0411  0.1337
 1570TIP3    H226126   6.176   0.147  11.961 -1.0706 -1.0050  0.0943
 1571TIP3   OH226127   3.540   0.427   3.176  0.4322 -0.1892 -0.0599
 1571TIP3    H126128   3.567   0.515   3.150  0.9388 -0.4118 -0.2825
 1571TIP3    H226129   3.621   0.376   3.178  0.1525 -0.6287  0.1587
 1572TIP3   OH226130   4.415   4.297  16.021  0.1188  0.3835 -0.2696
 1572TIP3    H126131   4.450   4.286  16.109 -0.8438 -0.6980 -0.0108
 1572TIP3    H226132   4.459   4.230  15.969 -2.2879 -1.7127  0.2844
 1573TIP3   OH226133   1.883   5.282  14.738 -0.5625  0.3161  0.3663
 1573TIP3    H126134   1.830   5.340  14.793  0.8388  2.2050 -0.2101
 1573TIP3    H226135   1.972   5.316  14.747  0.2580 -1.6198 -0.1829
 1574TIP3   OH226136   1.541   3.161  16.085  0.4826  0.2225  0.5531
 1574TIP3    H126137   1.637   3.154  16.093  0.6888  1.3641 -0.6974
 1574TIP3    H226138   1.509   3.073  16.102  1.8373 -0.3923 -0.0245
 1575TIP3   OH226139   5.132   5.863   2.271  0.4528  0.3495 -0.2639
 1575TIP3    H126140   5.163   5.893   2.186  0.7037  2.5294  0.5655
 1575TIP3    H226141   5.122   5.943   2.323 -1.0785 -0.8080  1.3047
 1576TIP3   OH226142   2.089   2.783  16.687 -0.2511  0.0347  0.5123
 1576TIP3    H126143   2.113   2.863  16.641  0.5996 -0.6466 -0.2673
 1576TIP3    H226144   2.133   2.713  16.637 -0.2114 -0.8181  1.7165
 1577TIP3   OH226145   6.608   4.832   1.587 -0.1917 -0.2247 -0.1220
 1577TIP3    H126146   6.630   4.907   1.642  1.1044 -1.5506  1.2300
 1577TIP3    H226147   6.656   4.847   1.505  0.5235  0.1354  0.3610
 1578TIP3   OH226148   2.260   1.695  11.560  0.4444 -0.4279 -0.0996
 1578TIP3    H126149   2.191   1.668  11.500  1.7370  0.8631 -2.2679
 1578TIP3    H226150   2.249   1.790  11.569  1.5134 -0.3068  0.0627
 1579TIP3   OH226151   0.099   4.849   1.771  0.0466  0.5239  0.0688
 1579TIP3    H126152   0.171   4.883   1.825  1.1343  2.6675 -2.5938
 1579TIP3    H226153   0.032   4.916   1.776  0.1078  0.6811 -1.1206
 1580TIP3   OH226154   5.361   5.923  16.456  0.1927  0.6644  0.1728
 1580TIP3    H126155   5.431   5.925  16.522  0.3812  0.0892 -0.0082
 1580TIP3    H226156   5.348   5.830  16.437  0.2396  0.8281 -0.7020
 1581TIP3   OH226157   2.528   3.350  13.975 -0.0766  0.5478 -0.4798
 1581TIP3    H126158   2.469   3.283  14.009 -0.8032  0.8863 -1.0855
 1581TIP3    H226159   2.481   3.432  13.986  1.3006  1.1291  1.3998
 1582TIP3   OH226160   3.399   0.402  11.756  0.0700 -0.1440  0.2644
 1582TIP3    H126161   3.323   0.450  11.723  0.3201  0.5201  0.6240
 1582TIP3    H226162   3.405   0.429  11.848  2.0767  1.6043 -0.3328
 1583TIP3   OH226163   3.695   2.948  16.003 -0.4579  0.6841 -0.6347
 1583TIP3    H126164   3.650   2.888  15.943  0.0368  0.0096 -0.3338
 1583TIP3    H226165   3.758   2.995  15.948  0.3669 -0.3123 -0.5551
 1584TIP3   OH226166   0.410   6.495  15.911 -0.6742  0.0654 -0.4163
 1584TIP3    H126167   0.356   6.473  15.988 -0.5857 -0.2920 -0.4546
 1584TIP3    H226168   0.460   6.572  15.938 -1.5294  0.6691 -0.5310
 1585TIP3   OH226169   2.305   5.521   0.133  0.2717 -0.4949  0.2784
 1585TIP3    H126170   2.296   5.502   0.227 -3.6524  0.7743  0.2312
 1585TIP3    H226171   2.237   5.469   0.091  0.0384  1.2009 -1.5428
 1586TIP3   OH226172   4.103   1.678  16.909 -0.4883 -0.0776 -0.0184
 1586TIP3    H126173   4.139   1.595  16.941  1.2111 -0.4122 -2.6626
 1586TIP3    H226174   4.179   1.731  16.888 -1.5691  1.9563  1.0590
 1587TIP3   OH226175   5.628   2.609  15.401  0.1983  0.3128  0.3331
 1587TIP3    H126176   5.710   2.592  15.447  0.2422 -0.3549  0.0168
 1587TIP3    H226177   5.572   2.534  15.422  0.7224 -0.7156 -1.8249
 1588TIP3   OH226178   0.621   2.769   5.749  0.3949  0.3761 -0.2474
 1588TIP3    H126179   0.582   2.729   5.827 -0.9760  1.0066 -0.6027
 1588TIP3    H226180   0.614   2.701   5.682 -0.2204  0.5540 -0.3560
 1589TIP3   OH226181   4.500   1.652   5.973  0.4766  0.0791  0.0212
 1589TIP3    H126182   4.451   1.570   5.986  2.4644 -1.2387 -0.4810
 1589TIP3    H226183   4.544   1.667   6.056 -0.0478  0.7794  0.1800
 1590TIP3   OH226184   4.133   3.253  16.221  0.1908  0.8725  0.2698
 1590TIP3    H126185   4.194   3.201  16.169 -0.8657 -0.7341  0.6135
 1590TIP3    H226186   4.141   3.342  16.185  0.0883 -0.0352 -2.0493
 1591TIP3   OH226187   0.818   3.637  10.939  0.4747  0.0007  0.1837
 1591TIP3    H126188   0.768   3.628  10.858 -0.8281 -2.7382  1.2269
 1591TIP3    H226189   0.875   3.560  10.941  0.3020 -0.1112  1.9813
 1592TIP3   OH226190   2.758   1.802  14.808  0.0572  0.3700 -0.0342
 1592TIP3    H126191   2.832   1.798  14.747  0.5852  1.3286  0.5273
 1592TIP3    H226192   2.771   1.884  14.856 -1.5005  0.6607 -0.0876
 1593TIP3   OH226193   6.611   2.175   2.643  0.5539  0.7126  0.2539
 1593TIP3    H126194   6.681   2.158   2.580  1.1238  0.3766  0.9852
 1593TIP3    H226195   6.634   2.125   2.720 -1.6092 -1.1717 -0.2621
 1594TIP3   OH226196   0.801   4.302   0.362  0.5396 -0.5401  0.0544
 1594TIP3    H126197   0.888   4.341   0.353 -0.7088  2.2649 -0.3905
 1594TIP3    H226198   0.752   4.336   0.287 -1.3277 -1.0183  1.0369
 1595TIP3   OH226199   3.680   2.174  16.704 -0.2309 -0.4008  0.2701
 1595TIP3    H126200   3.772   2.149  16.714  0.1001  1.0761  0.9657
 1595TIP3    H226201   3.679   2.236  16.631 -0.2502  1.7911  2.0963
 1596TIP3   OH226202   2.141   5.296  12.737 -0.0347  0.2383 -0.1332
 1596TIP3    H126203   2.205   5.315  12.668 -0.9753  2.1245 -0.5305
 1596TIP3    H226204   2.056   5.319  12.699 -0.5407  1.6875  1.7436
 1597TIP3   OH226205   1.542   0.537  12.057  0.0181 -0.0251  0.8758
 1597TIP3    H126206   1.464   0.551  12.110 -0.9278 -0.6560 -0.3266
 1597TIP3    H226207   1.572   0.625  12.035  0.7138  0.2514  2.8513
 1598TIP3   OH226208   1.045   1.235   3.565 -0.8333  0.4165  0.4214
 1598TIP3    H126209   1.106   1.227   3.492  2.0065  3.2947  2.3661
 1598TIP3    H226210   1.080   1.176   3.632 -1.4771  0.4103  0.7626
 1599TIP3   OH226211   3.146   0.078   0.245  0.5120  0.8352  0.5759
 1599TIP3    H126212   3.177   0.148   0.187 -0.7175  1.9745  1.2555
 1599TIP3    H226213   3.077   0.120   0.297  2.0373  0.0193  3.3243
 1600TIP3   OH226214   6.178   6.367   3.965 -0.0214  0.3557 -0.0855
 1600TIP3    H126215   6.185   6.341   4.057  0.7160  1.3304  0.1333
 1600TIP3    H226216   6.090   6.339   3.940 -0.3948  0.4872  1.0360
 1601TIP3   OH226217   3.243   1.082  15.150 -0.3791 -0.6382  0.3925
 1601TIP3    H126218   3.178   1.150  15.132 -0.4726 -0.7014  0.4932
 1601TIP3    H226219   3.227   1.057  15.241 -1.9465 -2.5420 -0.3833
 1602TIP3   OH226220   3.188   3.240   4.424 -0.2510  0.0829  0.1083
 1602TIP3    H126221   3.243   3.265   4.499  1.9072  0.3268 -1.5165
 1602TIP3    H226222   3.160   3.151   4.444 -2.4762  1.2723  2.7659
 1603TIP3   OH226223   5.887   4.073  15.815 -0.2853  0.6705  0.3670
 1603TIP3    H126224   5.927   4.060  15.729 -0.4336 -0.1759  0.4223
 1603TIP3    H226225   5.849   3.988  15.837 -1.8955  1.3997  0.4319
 1604TIP3   OH226226   5.460   5.281   1.807  0.2790  0.2643  0.2102
 1604TIP3    H126227   5.472   5.375   1.816  2.5809 -0.0559  0.7680
 1604TIP3    H226228   5.368   5.266   1.828 -0.2325  2.4369 -0.3688
 1605TIP3   OH226229   6.661   4.988   0.124  0.3698  0.5281  0.2900
 1605TIP3    H126230   6.736   5.009   0.069  0.9845  0.1528  0.9633
 1605TIP3    H226231   6.598   5.058   0.108  0.5366  0.4149 -0.8897
 1606TIP3   OH226232   6.599   2.570   5.938 -0.1035  0.4200  0.1894
 1606TIP3    H126233   6.681   2.563   5.987 -0.7174  2.6050  1.6128
 1606TIP3    H226234   6.596   2.661   5.908 -1.1752 -0.1014 -1.3307
 1607TIP3   OH226235   6.753   3.556  13.578  0.1952  0.3279 -0.0762
 1607TIP3    H126236   6.687   3.555  13.509  1.4007  0.1453 -1.2466
 1607TIP3    H226237   6.817   3.621  13.550  1.4027 -0.7261  0.1704
 1608TIP3   OH226238   4.419   2.126   5.423  0.2597  0.0101  0.4012
 1608TIP3    H126239   4.326   2.132   5.445  0.2622 -2.4725  1.2212
 1608TIP3    H226240   4.463   2.180   5.489 -0.4922  0.1064  0.8212
 1609TIP3   OH226241   3.044   3.514  12.380  0.3775  0.6212  0.0285
 1609TIP3    H126242   3.102   3.456  12.331  0.7296  1.4066 -0.4960
 1609TIP3    H226243   3.012   3.460  12.452  0.0691 -0.4564 -0.9007
 1610TIP3   OH226244   6.376   6.478   0.080 -0.1637 -0.3229 -0.0362
 1610TIP3    H126245   6.333   6.418   0.020  0.4844  0.5122 -1.3539
 1610TIP3    H226246   6.467   6.481   0.051  0.1420  0.1567  0.9276
 1611TIP3   OH226247   3.405   1.550   0.169  0.1939 -0.0843  0.0728
 1611TIP3    H126248   3.353   1.585   0.242  0.2329  2.2801 -1.0040
 1611TIP3    H226249   3.372   1.596   0.092  2.3847 -0.1778 -0.9442
 1612TIP3   OH226250   0.760   0.871   2.478 -0.1548 -0.1533  0.5369
 1612TIP3    H126251   0.680   0.817   2.479  0.8865 -1.7156  1.4591
 1612TIP3    H226252   0.740   0.945   2.536 -1.3938  0.1785 -0.2907
 1613TIP3   OH226253   4.426   4.095   5.197  0.2259 -0.0349  0.3608
 1613TIP3    H126254   4.381   4.180   5.200 -1.6871 -1.0356  1.3612
 1613TIP3    H226255   4.501   4.105   5.255  1.9677  1.9983 -2.1235
 1614TIP3   OH226256   2.275   0.644   0.188  0.3848 -0.0183  0.2415
 1614TIP3    H126257   2.188   0.614   0.159 -0.1003  1.5379  0.0543
 1614TIP3    H226258   2.272   0.636   0.284  0.1752 -0.3243  0.2120
 1615TIP3   OH226259   4.534   5.659   4.569 -0.0700  0.1561 -0.2202
 1615TIP3    H126260   4.546   5.655   4.664 -0.6523 -2.0452 -0.2236
 1615TIP3    H226261   4.439   5.666   4.558  0.0716  1.6835 -0.6313
 1616TIP3   OH226262   2.105   5.145  13.898  0.3422  0.2904 -0.5124
 1616TIP3    H126263   2.022   5.168  13.939 -0.0316 -0.5582 -0.7837
 1616TIP3    H226264   2.099   5.051  13.883  1.5007  0.1540 -0.1935
 1617TIP3   OH226265   1.615   0.358  15.243 -0.5647 -0.0527 -0.4570
 1617TIP3    H126266   1.539   0.309  15.275  0.6241 -2.0069 -0.4666
 1617TIP3    H226267   1.676   0.357  15.317  0.7691 -1.4758 -1.5110
 1618TIP3   OH226268   4.265   2.558   0.083 -0.0141  0.1309 -0.2169
 1618TIP3    H126269   4.296   2.595   0.165  1.8979  1.7878 -1.6401
 1618TIP3    H226270   4.308   2.472   0.077  0.6789  0.4630  0.0054
 1619TIP3   OH226271   6.257   1.990   4.183 -0.4258 -0.0387  0.0884
 1619TIP3    H126272   6.211   1.950   4.109  0.7914  1.0902 -1.3044
 1619TIP3    H226273   6.344   1.951   4.182 -0.4726 -0.1890  1.0800
 1620TIP3   OH226274   1.091   5.528   5.586 -0.1778  0.6738  0.2286
 1620TIP3    H126275   1.130   5.571   5.510 -0.8232 -0.9401 -1.0367
 1620TIP3    H226276   1.037   5.596   5.627  0.6112  1.7067 -0.4349
 1621TIP3   OH226277   0.074   2.675   4.658  0.2035 -0.0380 -0.2118
 1621TIP3    H126278  -0.004   2.620   4.661  0.0976  0.1140 -0.1780
 1621TIP3    H226279   0.142   2.622   4.700  0.1917 -0.2862 -0.5002
 1622TIP3   OH226280   4.420   3.346   1.799  0.1591  0.0488 -0.2713
 1622TIP3    H126281   4.445   3.282   1.733  1.9049  0.0313  0.3847
 1622TIP3    H226282   4.440   3.431   1.760 -1.2684  0.1665 -0.7720
 1623TIP3   OH226283   4.333   3.736   1.491  0.0874 -0.2317  0.3215
 1623TIP3    H126284   4.263   3.671   1.493 -0.3715  0.2924  1.5019
 1623TIP3    H226285   4.293   3.812   1.449  0.4066 -0.4341 -0.3719
 1624TIP3   OH226286   4.635   3.471  11.227  0.5420 -0.2607  0.2852
 1624TIP3    H126287   4.604   3.447  11.139  3.5348 -1.6374 -0.4579
 1624TIP3    H226288   4.560   3.456  11.284 -0.6122 -2.0666 -1.6405
 1625TIP3   OH226289   0.298   1.968  16.183  0.2774 -0.2915 -0.1649
 1625TIP3    H126290   0.339   2.040  16.231 -0.6866 -0.1639  0.4885
 1625TIP3    H226291   0.207   1.996  16.171  0.1704 -0.9221 -0.8778
 1626TIP3   OH226292   5.563   2.154  14.815 -0.5202 -0.5821  1.0107
 1626TIP3    H126293   5.512   2.091  14.866 -0.1625 -1.4882  0.2542
 1626TIP3    H226294   5.652   2.146  14.850 -0.6276  0.0633  1.4416
 1627TIP3   OH226295   3.574   2.248   1.489  0.3915 -0.5178  0.1218
 1627TIP3    H126296   3.604   2.235   1.399  1.2477  1.1059  0.1524
 1627TIP3    H226297   3.503   2.312   1.482 -0.2290 -1.1578  0.5040
 1628TIP3   OH226298   0.761   0.496  16.448  0.3792 -0.0200  0.0857
 1628TIP3    H126299   0.668   0.514  16.461  0.3481  0.3668 -0.6113
 1628TIP3    H226300   0.798   0.493  16.536 -0.2514  0.0353  0.3559
 1629TIP3   OH226301   1.164   0.283   2.819  0.0537 -0.1690  0.1240
 1629TIP3    H126302   1.159   0.367   2.773 -0.3208 -0.4015 -0.2552
 1629TIP3    H226303   1.073   0.257   2.832  0.1382  0.3379  1.8166
 1630TIP3   OH226304   3.380   4.460  10.452 -0.0513 -0.5265 -0.0903
 1630TIP3    H126305   3.430   4.400  10.397  0.6838  0.7273 -0.8121
 1630TIP3    H226306   3.291   4.423  10.453  0.5874 -2.0803  0.1884
 1631TIP3   OH226307   2.818   6.580   6.268 -0.1931 -0.2319 -0.1742
 1631TIP3    H126308   2.729   6.554   6.247 -0.0606 -0.4984 -0.4031
 1631TIP3    H226309   2.816   6.676   6.269 -0.6729 -0.2406  0.6433
 1632TIP3   OH226310   0.136   0.436  16.375  0.4048 -0.0570  0.3159
 1632TIP3    H126311   0.045   0.466  16.380  0.5070  0.3094  0.0220
 1632TIP3    H226312   0.153   0.427  16.281  1.3807  2.1144  0.2496
 1633TIP3   OH226313   5.723   6.582  13.318 -0.0954  0.4960  0.1901
 1633TIP3    H126314   5.722   6.639  13.241  0.9474 -0.7057 -0.7315
 1633TIP3    H226315   5.780   6.510  13.294 -0.3668 -0.2916  1.8243
 1634TIP3   OH226316   2.579   0.808   3.294 -0.0859 -0.3361 -0.3162
 1634TIP3    H126317   2.575   0.757   3.213 -0.3998 -1.4543  0.3854
 1634TIP3    H226318   2.507   0.774   3.347  1.0070 -0.6195  1.0162
 1635TIP3   OH226319   5.461   0.378   1.266  0.0193  0.2552 -0.5162
 1635TIP3    H126320   5.436   0.379   1.358  0.6690  0.7527 -0.3385
 1635TIP3    H226321   5.379   0.379   1.217 -0.3363 -0.5070  0.0599
 1636TIP3   OH226322   6.647   4.463  14.568  0.5977  0.9234  0.1384
 1636TIP3    H126323   6.674   4.491  14.656  0.2816 -0.1023  0.5651
 1636TIP3    H226324   6.571   4.407  14.582  0.9865  0.1565 -0.7310
 1637TIP3   OH226325   0.269   1.992   1.096  0.4108 -0.6482  0.0519
 1637TIP3    H126326   0.312   2.071   1.127 -0.3223 -1.1368  2.3708
 1637TIP3    H226327   0.178   2.001   1.123  0.3565 -2.3680  0.5289
 1638TIP3   OH226328   6.607   5.590  14.161 -0.1698  0.0496 -0.1855
 1638TIP3    H126329   6.595   5.647  14.085 -1.0369  1.6415  1.1211
 1638TIP3    H226330   6.700   5.600  14.184 -0.7318  2.3971  1.1608
 1639TIP3   OH226331   2.848   4.865   0.009  0.1939  0.5096 -0.0173
 1639TIP3    H126332   2.849   4.953   0.048  0.1128  0.3206  0.4160
 1639TIP3    H226333   2.924   4.821   0.048 -0.5871 -0.0839  0.8690
 1640TIP3   OH226334   0.220   1.460   3.660  0.3530  0.7795 -0.0014
 1640TIP3    H126335   0.277   1.390   3.628  0.5305  1.5210 -1.3486
 1640TIP3    H226336   0.142   1.414   3.692  0.7644 -0.0768 -0.2069
 1641TIP3   OH226337   0.385   5.762   6.230  0.2446  0.2511 -0.1328
 1641TIP3    H126338   0.352   5.677   6.200  0.9794 -0.1455  0.1516
 1641TIP3    H226339   0.331   5.784   6.306  0.1789 -0.0648 -0.0871
 1642TIP3   OH226340   6.015   0.753   3.576 -0.4665 -0.0692  0.3971
 1642TIP3    H126341   6.087   0.742   3.515  0.2275  0.8672  1.0306
 1642TIP3    H226342   6.035   0.694   3.649  0.7380  1.6886  1.5250
 1643TIP3   OH226343   4.073   3.418  12.777 -0.3519  0.2028 -0.5283
 1643TIP3    H126344   4.079   3.506  12.814  0.5940 -0.7498  1.6848
 1643TIP3    H226345   3.986   3.414  12.738 -0.2317  2.2657 -1.0668
 1644TIP3   OH226346   0.447   2.213   1.110 -0.1887  0.6654  0.1644
 1644TIP3    H126347   0.533   2.172   1.109 -0.4339  0.1283  0.8925
 1644TIP3    H226348   0.430   2.235   1.018  0.4216  0.1550 -0.0758
 1645TIP3   OH226349   6.176   0.172  15.458  0.4524 -0.1823  0.2708
 1645TIP3    H126350   6.163   0.089  15.503 -1.0718  0.7827  1.6808
 1645TIP3    H226351   6.183   0.237  15.528 -0.0226  1.0822 -0.8232
 1646TIP3   OH226352   5.969   6.499   4.997  0.0148 -0.2827 -0.8089
 1646TIP3    H126353   6.014   6.583   5.005  1.0562 -0.7162 -1.8156
 1646TIP3    H226354   6.005   6.461   4.916 -0.7571 -1.4929 -0.5966
 1647TIP3   OH226355   1.391   3.909   6.782  0.5303  0.1945 -0.1965
 1647TIP3    H126356   1.339   3.869   6.852 -0.6151  1.0941 -0.5247
 1647TIP3    H226357   1.327   3.951   6.725  1.6121  1.2088 -0.6888
 1648TIP3   OH226358   1.057   2.733   3.867 -0.0577  0.2818  0.3678
 1648TIP3    H126359   1.136   2.717   3.816 -0.6663 -0.8189 -0.2549
 1648TIP3    H226360   1.008   2.797   3.816 -1.6847 -2.4315 -1.5750
 1649TIP3   OH226361   4.251   0.421  15.300 -0.4913  0.6214  0.5138
 1649TIP3    H126362   4.241   0.367  15.378 -1.6751 -0.4994 -0.3893
 1649TIP3    H226363   4.224   0.509  15.328 -2.8703 -0.1941  0.8661
 1650TIP3   OH226364   5.827   3.237  15.309  0.2102  0.9034  0.1812
 1650TIP3    H126365   5.739   3.216  15.340  0.0654 -0.9015 -1.3656
 1650TIP3    H226366   5.814   3.271  15.221  0.9688  1.6456  0.3546
 1651TIP3   OH226367   5.639   2.389  16.849  0.1233  0.0142  0.2148
 1651TIP3    H126368   5.643   2.301  16.886  2.1881  0.1868  0.4558
 1651TIP3    H226369   5.633   2.374  16.754 -1.7849 -0.3838  0.3720
 1652TIP3   OH226370   4.146   1.907  14.223  0.3449 -0.4051 -0.0749
 1652TIP3    H126371   4.194   1.925  14.304 -0.1582 -3.4981  0.9873
 1652TIP3    H226372   4.197   1.950  14.155  3.0483 -1.1694  1.3858
 1653TIP3   OH226373   2.353   6.491  16.660  0.1815 -0.3548  0.1604
 1653TIP3    H126374   2.444   6.519  16.654  0.0459  0.4586  1.6127
 1653TIP3    H226375   2.303   6.572  16.667 -0.6515 -0.7994 -0.4902
 1654TIP3   OH226376   5.190   2.625  12.051  0.0608 -0.0839  0.3996
 1654TIP3    H126377   5.152   2.661  12.131 -2.4694 -0.6714 -0.4803
 1654TIP3    H226378   5.213   2.535  12.074 -1.5042 -0.5375  0.2322
 1655TIP3   OH226379   1.638   4.087  13.015 -0.3312  0.4918 -0.4864
 1655TIP3    H126380   1.652   4.167  12.965 -1.5326 -0.1004 -1.7894
 1655TIP3    H226381   1.656   4.112  13.106  1.3469  1.7085 -1.1175
 1656TIP3   OH226382   1.550   4.661   2.678 -0.1995 -0.8612  0.1539
 1656TIP3    H126383   1.641   4.665   2.647 -0.5665 -1.4081 -1.0085
 1656TIP3    H226384   1.497   4.662   2.598 -1.2857  1.0855  0.8578
 1657TIP3   OH226385   0.825   1.591  10.707  0.3800 -0.2208 -0.2683
 1657TIP3    H126386   0.894   1.631  10.760  0.0987  1.3295 -1.0407
 1657TIP3    H226387   0.834   1.497  10.722  1.0631  0.1273  1.5889
 1658TIP3   OH226388   3.582   4.026  10.876 -0.1805 -0.3337 -0.0127
 1658TIP3    H126389   3.492   4.012  10.905 -0.4672  0.4872 -0.4902
 1658TIP3    H226390   3.592   3.968  10.800  0.2056 -1.6175  1.0046
 1659TIP3   OH226391   4.891   0.528  15.061  0.7129  0.1931 -0.2679
 1659TIP3    H126392   4.920   0.456  15.004 -2.9970 -2.0217  0.5071
 1659TIP3    H226393   4.852   0.590  15.001 -0.3102 -0.6492 -0.4864
 1660TIP3   OH226394   0.788   3.365   1.075 -0.4927 -0.4124 -0.3618
 1660TIP3    H126395   0.846   3.319   1.014  2.1211  0.7220  1.1890
 1660TIP3    H226396   0.816   3.337   1.161 -0.6712  1.9747  0.5174
 1661TIP3   OH226397   6.069   2.790  12.502 -0.1109  0.3768  0.5399
 1661TIP3    H126398   6.023   2.846  12.438 -0.2062 -1.4908 -1.0697
 1661TIP3    H226399   6.148   2.762  12.456  0.0494 -0.6237  1.4280
 1662TIP3   OH226400   3.284   0.459  12.407  0.1134  0.3414  0.2601
 1662TIP3    H126401   3.352   0.524  12.389  0.0900  0.4689  0.6415
 1662TIP3    H226402   3.203   0.510  12.412  0.1931  0.3776  1.2804
 1663TIP3   OH226403   6.762   2.644   3.378 -0.9370  0.0964  0.4133
 1663TIP3    H126404   6.672   2.674   3.364 -1.0991 -0.8907 -0.7684
 1663TIP3    H226405   6.755   2.548   3.380  0.1173  0.0074  0.0644
 1664TIP3   OH226406   3.538   0.945  14.918  0.0211 -0.4197 -0.0441
 1664TIP3    H126407   3.512   0.904  15.001 -0.1278  0.8151  0.5245
 1664TIP3    H226408   3.621   0.902  14.896 -0.0589 -0.9320  0.6157
 1665TIP3   OH226409   0.595   5.117   0.631 -0.3315 -0.1880  0.1306
 1665TIP3    H126410   0.685   5.085   0.634  0.3227  1.7076  1.5154
 1665TIP3    H226411   0.592   5.174   0.553 -0.5792 -0.8972 -0.3887
 1666TIP3   OH226412   1.895   3.990   6.490 -0.1548  0.3628  0.4745
 1666TIP3    H126413   1.864   3.902   6.511 -0.6599  0.6777  1.0912
 1666TIP3    H226414   1.815   4.039   6.468  0.0939  0.7189  0.3577
 1667TIP3   OH226415   4.060   3.360   4.356 -0.3552  0.7382  0.1555
 1667TIP3    H126416   4.056   3.434   4.295  0.6300  0.1603 -0.6133
 1667TIP3    H226417   4.092   3.287   4.304 -3.3794 -0.7963  0.4107
 1668TIP3   OH226418   4.100   2.785   2.388 -0.2261 -0.0004  0.2355
 1668TIP3    H126419   4.107   2.784   2.483 -1.4521 -0.6452  0.3210
 1668TIP3    H226420   4.169   2.725   2.359 -0.5633 -0.6412  0.7583
 1669TIP3   OH226421   4.074   2.707  13.638 -0.4247  0.5328  0.3046
 1669TIP3    H126422   4.076   2.612  13.640 -1.4105  0.4068 -2.3405
 1669TIP3    H226423   3.994   2.731  13.685 -0.5953  0.0021  0.2876
 1670TIP3   OH226424   4.676   3.112   0.118 -0.1356 -0.1186 -0.0182
 1670TIP3    H126425   4.754   3.087   0.168 -0.4671 -0.4785  0.3190
 1670TIP3    H226426   4.709   3.130   0.030  0.2023 -1.1543 -0.1133
 1671TIP3   OH226427   4.503   6.588   3.549  0.5767  1.1159  0.7239
 1671TIP3    H126428   4.439   6.517   3.550  2.0660 -0.2662  0.7187
 1671TIP3    H226429   4.451   6.668   3.543 -1.2333  0.1385  2.7765
 1672TIP3   OH226430   0.908   2.710  14.826 -0.4595 -0.1112  0.0505
 1672TIP3    H126431   0.876   2.629  14.786  2.3171 -0.6542 -1.1868
 1672TIP3    H226432   0.881   2.779  14.765  0.0306 -0.4636 -0.5624
 1673TIP3   OH226433   2.315   5.841   0.597  0.1671  0.0275 -0.0645
 1673TIP3    H126434   2.351   5.804   0.677 -0.0725 -1.2256 -0.5318
 1673TIP3    H226435   2.263   5.916   0.626  0.7464  0.0678  0.8725
 1674TIP3   OH226436   3.746   0.335   0.046 -0.3412  0.3361  0.7817
 1674TIP3    H126437   3.813   0.402   0.031 -0.0288 -0.1142  0.1416
 1674TIP3    H226438   3.728   0.299  -0.041 -0.1135 -0.7800  1.1877
 1675TIP3   OH226439   3.161   5.281  16.349  0.5125 -0.0762 -0.2949
 1675TIP3    H126440   3.206   5.338  16.287 -1.2676  0.1432 -1.4002
 1675TIP3    H226441   3.108   5.339  16.402  1.6871 -0.3127  1.1954
 1676TIP3   OH226442   3.252   4.864   5.555 -0.3015 -0.2082 -0.5706
 1676TIP3    H126443   3.297   4.791   5.513 -0.1567 -1.1608  1.1758
 1676TIP3    H226444   3.323   4.922   5.584 -0.2443 -0.9109  0.7494
 1677TIP3   OH226445   0.312   5.537   4.181 -0.0836 -0.1773 -0.3563
 1677TIP3    H126446   0.364   5.492   4.247 -2.4689  0.0742  1.7914
 1677TIP3    H226447   0.357   5.620   4.166  1.6204 -1.1336 -0.6395
 1678TIP3   OH226448   3.511   2.993  15.141 -0.3869  0.0891 -0.3657
 1678TIP3    H126449   3.573   2.971  15.072  0.8893 -0.3304  0.8888
 1678TIP3    H226450   3.440   2.930  15.131  0.8707 -1.4383  0.1185
 1679TIP3   OH226451   5.707   3.618  15.596 -0.7570  0.0013  0.9124
 1679TIP3    H126452   5.631   3.591  15.648 -1.3951  0.8031  0.4228
 1679TIP3    H226453   5.669   3.667  15.523  0.0915 -1.8056 -0.7616
 1680TIP3   OH226454   5.010   5.436   2.406 -0.3710 -0.0086 -0.1323
 1680TIP3    H126455   5.033   5.467   2.494 -1.7173 -0.7989  0.5238
 1680TIP3    H226456   4.983   5.514   2.359 -0.4624  0.3027  0.4336
 1681TIP3   OH226457   6.047   5.335  14.968  0.4156  0.1074  0.4106
 1681TIP3    H126458   6.007   5.342  15.054 -0.8941  0.0524 -0.1820
 1681TIP3    H226459   6.115   5.269  14.978 -0.0680 -0.2602  1.2858
 1682TIP3   OH226460   2.548   6.732   5.604  0.2049 -0.2662 -0.0007
 1682TIP3    H126461   2.539   6.639   5.627  0.9931 -0.3851 -0.1544
 1682TIP3    H226462   2.587   6.730   5.516 -1.6236  0.1902 -0.8429
 1683TIP3   OH226463   4.700   1.555   0.401 -0.1353  0.1745  0.2355
 1683TIP3    H126464   4.625   1.497   0.417  0.0350  0.3198  1.6839
 1683TIP3    H226465   4.773   1.495   0.386 -0.4563  0.0301 -0.7627
 1684TIP3   OH226466   0.985   2.475  13.474 -0.0487  0.3706 -0.1601
 1684TIP3    H126467   0.973   2.398  13.530 -0.5973 -0.0432 -0.8303
 1684TIP3    H226468   0.963   2.443  13.386 -0.4901  1.3499 -0.4104
 1685TIP3   OH226469   3.816   4.961  10.306  0.1868 -0.3530 -0.0930
 1685TIP3    H126470   3.810   4.877  10.261  1.3320 -1.5813  1.9702
 1685TIP3    H226471   3.726   4.994  10.307 -0.3815 -1.8405 -0.4214
 1686TIP3   OH226472   1.003   3.793  11.057  0.2504  0.6515  0.1977
 1686TIP3    H126473   0.938   3.729  11.027  0.3033  0.7025 -0.0252
 1686TIP3    H226474   1.085   3.764  11.016  0.3137  0.7468  0.2574
 1687TIP3   OH226475   0.371   0.697   5.118  0.4353 -0.0056  0.1562
 1687TIP3    H126476   0.289   0.697   5.068  0.5008  0.5301  0.0521
 1687TIP3    H226477   0.388   0.789   5.138 -0.2881 -0.3065  2.3340
 1688TIP3   OH226478   4.197   5.784  12.469 -0.1350 -0.2599  0.3583
 1688TIP3    H126479   4.146   5.865  12.466  2.5499  1.4618 -0.7814
 1688TIP3    H226480   4.285   5.812  12.495  1.2648 -2.5740 -1.6603
 1689TIP3   OH226481   3.316   2.106  11.603  0.0551 -0.0877  0.0172
 1689TIP3    H126482   3.383   2.038  11.613 -0.6263 -0.5334  1.6471
 1689TIP3    H226483   3.362   2.188  11.621  0.3623 -0.3069  0.2312
 1690TIP3   OH226484   5.310   5.763  13.858 -0.0401 -0.1624  0.5565
 1690TIP3    H126485   5.377   5.742  13.793 -0.1212 -0.4265  0.5550
 1690TIP3    H226486   5.358   5.774  13.940  0.2388  1.7598  0.1408
 1691TIP3   OH226487   6.451   5.983  13.998  0.1369  0.4996 -0.2342
 1691TIP3    H126488   6.385   6.007  13.934 -1.1299  0.3457  0.9971
 1691TIP3    H226489   6.420   5.901  14.036  1.9294 -0.5240 -0.8851
 1692TIP3   OH226490   1.922   1.759  15.667 -0.3675  0.2599 -0.2181
 1692TIP3    H126491   1.913   1.679  15.616 -0.2850  0.4295 -0.4988
 1692TIP3    H226492   1.898   1.829  15.606  0.6918  0.5461 -0.3237
 1693TIP3   OH226493   0.548   2.311   3.986  0.5293  0.0470  0.1355
 1693TIP3    H126494   0.482   2.340   4.050 -0.7248  1.0228 -1.5579
 1693TIP3    H226495   0.509   2.233   3.946  0.7929  0.1004 -0.2238
 1694TIP3   OH226496   0.700   5.663  10.858 -0.2600  0.3924  0.0621
 1694TIP3    H126497   0.760   5.592  10.837 -0.3717  0.2245  0.3057
 1694TIP3    H226498   0.727   5.735  10.802  0.1678  0.3183  0.1732
 1695TIP3   OH226499   0.626   1.153   3.563 -0.0917  0.1284  0.3930
 1695TIP3    H126500   0.635   1.110   3.648  0.4883  1.0812  0.8092
 1695TIP3    H226501   0.716   1.164   3.532 -0.3061 -0.4209 -0.4519
 1696TIP3   OH226502   5.300   1.843   0.405 -0.3918 -0.3126  0.3226
 1696TIP3    H126503   5.206   1.831   0.391 -0.7741  0.6244  1.9720
 1696TIP3    H226504   5.318   1.931   0.372 -0.0740 -0.5378 -0.1001
 1697TIP3   OH226505   2.513   2.940  16.841  0.4132 -0.0650  0.6491
 1697TIP3    H126506   2.485   2.904  16.757  0.7274  1.3519 -0.0823
 1697TIP3    H226507   2.433   2.977  16.878  0.2456 -0.8190  1.0458
 1698TIP3   OH226508   3.085   2.077  10.619 -0.1529 -0.7195  0.6409
 1698TIP3    H126509   3.013   2.129  10.583  0.9003 -0.2024 -0.7551
 1698TIP3    H226510   3.163   2.131  10.606  1.1456 -3.0524 -1.8852
 1699TIP3   OH226511   5.027   0.420  12.062  0.2009  0.0261 -0.0686
 1699TIP3    H126512   5.106   0.426  12.115  0.6392  0.0255 -0.7109
 1699TIP3    H226513   4.991   0.509  12.063  0.8614  0.3024 -0.7572
 1700TIP3   OH226514   0.623   1.317   3.281 -0.3625  0.3929  0.2473
 1700TIP3    H126515   0.648   1.226   3.267  0.3916  0.7048 -0.5222
 1700TIP3    H226516   0.677   1.346   3.354  0.3456  0.5995 -0.3590
 1701TIP3   OH226517   6.746   0.189   3.067  0.8445  0.1972 -0.0543
 1701TIP3    H126518   6.678   0.127   3.041  1.9943 -1.1488  0.0925
 1701TIP3    H226519   6.698   0.264   3.103 -0.5996  0.0043 -1.5359
 1702TIP3   OH226520   0.833   4.426  12.414  0.1494  0.3729  0.1640
 1702TIP3    H126521   0.772   4.363  12.452  0.7958 -0.1359  0.3668
 1702TIP3    H226522   0.786   4.509  12.416 -1.0916 -0.2746 -1.0280
 1703TIP3   OH226523   2.250   5.151  16.757 -0.4641 -0.0930 -0.3716
 1703TIP3    H126524   2.207   5.068  16.734 -0.7579  0.3499 -1.4762
 1703TIP3    H226525   2.335   5.147  16.713 -1.8803  1.6848 -3.4538
 1704TIP3   OH226526   1.436   5.329   1.403 -0.0304  0.1427 -0.1577
 1704TIP3    H126527   1.355   5.344   1.451 -0.2794 -0.8019 -0.2831
 1704TIP3    H226528   1.503   5.374   1.456 -0.8447  2.2853 -0.8850
 1705TIP3   OH226529   3.350   3.346  10.773  0.4789 -0.7582  0.0469
 1705TIP3    H126530   3.439   3.314  10.760  0.3141 -0.6563 -1.4327
 1705TIP3    H226531   3.352   3.390  10.858  2.5918  1.7225 -1.1870
 1706TIP3   OH226532   0.721   0.361   5.077 -0.5030 -0.1654 -0.3526
 1706TIP3    H126533   0.812   0.342   5.051 -0.7431  0.4130 -1.6588
 1706TIP3    H226534   0.703   0.447   5.039 -1.4990 -0.1454  0.1657
 1707TIP3   OH226535   2.409   0.076  16.508  0.4782 -0.3232 -0.0460
 1707TIP3    H126536   2.429   0.151  16.452  1.5061  0.1366  0.9038
 1707TIP3    H226537   2.379   0.008  16.447 -1.2314  1.1051 -0.8225
 1708TIP3   OH226538   6.187   0.604  15.949  0.0243  0.6505 -0.4751
 1708TIP3    H126539   6.170   0.572  15.860  0.3139 -1.3433  0.1701
 1708TIP3    H226540   6.282   0.600  15.958 -0.1204 -0.8283  0.5235
 1709TIP3   OH226541   5.988   2.914  15.330  0.5381 -0.1975 -0.0771
 1709TIP3    H126542   6.064   2.856  15.338  1.6941  1.1488 -0.9929
 1709TIP3    H226543   5.988   2.966  15.410 -1.3485 -2.4056  1.4142
 1710TIP3   OH226544   6.728   0.699  15.009  0.2289 -0.3378 -0.4157
 1710TIP3    H126545   6.739   0.787  14.973  1.5017  0.2027  1.2079
 1710TIP3    H226546   6.748   0.640  14.937 -0.0580  0.6991 -1.3549
 1711TIP3   OH226547   4.936   6.762   5.124  0.1211  0.4721 -0.4677
 1711TIP3    H126548   5.032   6.762   5.132  0.0803  1.6966  0.0935
 1711TIP3    H226549   4.919   6.716   5.042  1.1649 -0.1867 -0.3348
 1712TIP3   OH226550   6.116   2.707   2.864  0.0794  0.0581 -0.1490
 1712TIP3    H126551   6.169   2.672   2.937 -1.1408 -0.8346  0.3193
 1712TIP3    H226552   6.064   2.632   2.835 -0.6112  0.8252 -0.8917
 1713TIP3   OH226553   0.887   4.328  15.901 -0.3501 -0.0864  0.6203
 1713TIP3    H126554   0.945   4.321  15.976 -2.3541 -3.7729  1.9400
 1713TIP3    H226555   0.812   4.378  15.933  0.2496  1.1910  0.0746
 1714TIP3   OH226556   5.074   3.063  11.657  0.3710 -0.3975  0.0256
 1714TIP3    H126557   5.090   2.969  11.660  0.7493 -0.3236  0.3469
 1714TIP3    H226558   4.982   3.073  11.680  0.5516 -0.6248  0.8639
 1715TIP3   OH226559   5.436   6.111  15.865  0.1051  0.5755  0.2031
 1715TIP3    H126560   5.497   6.184  15.877  0.0047  0.7416 -0.2850
 1715TIP3    H226561   5.362   6.132  15.922 -0.1593  1.1204 -0.3329
 1716TIP3   OH226562   1.970   3.033  12.226 -0.0117  0.3558  0.0478
 1716TIP3    H126563   1.989   3.038  12.320 -1.2737  0.2212  0.3128
 1716TIP3    H226564   2.031   3.095  12.186  0.5511  0.3906  0.9525
 1717TIP3   OH226565   6.691   5.426   6.339  0.3635  0.5839 -0.1792
 1717TIP3    H126566   6.596   5.409   6.337  0.2212  1.3624 -0.1972
 1717TIP3    H226567   6.711   5.462   6.253  0.6364  0.6373 -0.0943
 1718TIP3   OH226568   1.182   3.707  12.748  0.6045  0.1053  0.1928
 1718TIP3    H126569   1.161   3.726  12.839  2.1373  0.3958  0.5018
 1718TIP3    H226570   1.098   3.684  12.708 -0.0910  0.0603  1.6511
 1719TIP3   OH226571   4.434   5.192  12.171  0.2426  0.0105  0.0498
 1719TIP3    H126572   4.395   5.199  12.084  0.5145  0.9881  0.0047
 1719TIP3    H226573   4.463   5.281  12.192  0.2156 -0.2267  1.1194
 1720TIP3   OH226574   2.994   0.046   5.805  0.1198  0.0374  0.3534
 1720TIP3    H126575   2.991   0.093   5.888 -1.0024  0.2601  0.2032
 1720TIP3    H226576   3.079   0.069   5.767  0.0654  1.0341  0.8073
 1721TIP3   OH226577   4.785   1.577  14.361 -0.4806 -0.5710 -0.3994
 1721TIP3    H126578   4.773   1.577  14.266 -1.3887  0.2464 -0.3043
 1721TIP3    H226579   4.754   1.491  14.389 -0.2955 -0.7817 -0.8334
 1722TIP3   OH226580   5.428   0.224  14.059 -0.0243 -0.2107  0.3965
 1722TIP3    H126581   5.396   0.134  14.068 -1.1362  0.2696  1.4425
 1722TIP3    H226582   5.350   0.278  14.069  0.7216  0.8931  0.3302
 1723TIP3   OH226583   0.359   2.673   3.907  0.4204  0.0840 -0.0874
 1723TIP3    H126584   0.453   2.662   3.922  0.5680 -0.7206 -1.4935
 1723TIP3    H226585   0.353   2.748   3.848  0.0821  1.0365  1.1520
 1724TIP3   OH226586   6.508   6.112  13.615 -0.2048 -0.1745 -0.8721
 1724TIP3    H126587   6.587   6.058  13.618 -0.7258 -0.9482 -1.0984
 1724TIP3    H226588   6.520   6.167  13.537  0.5474  0.3794 -0.3670
 1725TIP3   OH226589   1.512   3.191  11.364 -0.3319 -1.0592 -0.2528
 1725TIP3    H126590   1.540   3.124  11.302 -0.4397 -1.0038 -0.3613
 1725TIP3    H226591   1.582   3.194  11.429  0.2627 -0.4155 -0.9213
 1726TIP3   OH226592   0.966   2.987  12.587  0.0808  0.0529  0.3803
 1726TIP3    H126593   0.939   3.069  12.545  0.6794 -0.3834 -0.8884
 1726TIP3    H226594   1.026   2.947  12.524  1.0779 -0.5762  1.7058
 1727TIP3   OH226595   2.863   3.618  12.735  0.1215  0.5788 -0.0954
 1727TIP3    H126596   2.877   3.688  12.799  1.3242  1.4219 -1.2243
 1727TIP3    H226597   2.944   3.567  12.737 -0.5144 -0.4201  0.2896
 1728TIP3   OH226598   3.297   5.415  11.096 -0.3859  0.3525  0.3732
 1728TIP3    H126599   3.355   5.415  11.172  1.8191 -0.5755 -1.2449
 1728TIP3    H226600   3.349   5.457  11.027 -1.2003 -1.5311 -1.4309
 1729TIP3   OH226601   6.433   6.354  16.487 -0.6879  0.1762  0.4413
 1729TIP3    H126602   6.367   6.414  16.452 -0.0573  0.1583 -0.8124
 1729TIP3    H226603   6.478   6.403  16.555 -1.1032  0.6524  0.3701
 1730TIP3   OH226604   3.035   4.590  16.373 -0.0341  0.7896 -0.6820
 1730TIP3    H126605   3.070   4.623  16.290 -0.5252  0.1848 -1.1326
 1730TIP3    H226606   2.941   4.578  16.356 -0.3183  1.6261  0.2690
 1731TIP3   OH226607   1.004   0.268   1.830  0.6844 -0.3048  0.0701
 1731TIP3    H126608   0.946   0.194   1.846  0.7303 -0.1620  0.9454
 1731TIP3    H226609   0.946   0.343   1.820  0.4034 -1.0224 -4.5875
 1732TIP3   OH226610   0.853   3.016   0.716 -0.5666 -0.9115 -0.0451
 1732TIP3    H126611   0.771   2.967   0.701  0.0654 -2.0089  0.0012
 1732TIP3    H226612   0.922   2.951   0.703  0.2910 -0.0735  0.2696
 1733TIP3   OH226613   4.561   4.914   5.608  0.2104 -0.4955 -0.5904
 1733TIP3    H126614   4.524   4.993   5.647  0.3358 -1.7571  2.2248
 1733TIP3    H226615   4.655   4.931   5.602  0.0676  0.0784 -1.3014
 1734TIP3   OH226616   5.219   1.751   3.534 -0.3792  0.5701  1.0405
 1734TIP3    H126617   5.272   1.802   3.595  1.6292 -1.7225  1.3444
 1734TIP3    H226618   5.264   1.666   3.530 -2.4517 -0.4845 -0.9499
 1735TIP3   OH226619   1.528   4.996  15.293 -0.2102  0.3887  0.8124
 1735TIP3    H126620   1.517   4.919  15.348 -1.1553 -0.6019 -0.7361
 1735TIP3    H226621   1.441   5.012  15.255 -0.0263  2.2044  1.0958
 1736TIP3   OH226622   1.180   3.235  15.792 -0.1254  0.0093  0.0537
 1736TIP3    H126623   1.259   3.248  15.845  0.8176 -1.8824 -0.8439
 1736TIP3    H226624   1.192   3.149  15.751 -1.3221  0.9264 -2.3532
 1737TIP3   OH226625   1.771   3.997   3.562 -0.3192 -0.4392 -0.4752
 1737TIP3    H126626   1.864   4.018   3.560 -0.2394 -0.3415  2.3391
 1737TIP3    H226627   1.730   4.074   3.603 -1.3319 -1.3471  0.2536
 1738TIP3   OH226628   3.613   4.864  16.800  0.5266  0.2222  0.0288
 1738TIP3    H126629   3.644   4.839  16.888  0.9473 -3.1392 -0.9783
 1738TIP3    H226630   3.532   4.814  16.789  1.1967 -0.4553 -1.9825
 1739TIP3   OH226631   6.405   5.385   1.602  0.1587  0.7978 -0.4865
 1739TIP3    H126632   6.438   5.310   1.551  0.1311  0.0321  0.6099
 1739TIP3    H226633   6.321   5.406   1.561 -0.0018 -0.0038 -0.5865
 1740TIP3   OH226634   5.144   1.044   0.478 -0.0896  0.1501 -0.4183
 1740TIP3    H126635   5.166   0.960   0.519  2.0491  0.2820 -1.2484
 1740TIP3    H226636   5.161   1.109   0.546  0.9097  0.1370 -0.6486
 1741TIP3   OH226637   1.546   1.735   5.582  0.3389 -0.2738 -0.1377
 1741TIP3    H126638   1.624   1.787   5.599  0.8526 -0.0189 -2.9545
 1741TIP3    H226639   1.579   1.647   5.565 -0.2809 -0.8936  1.7706
 1742TIP3   OH226640   5.498   6.124  17.099  0.3403  0.8100  0.2604
 1742TIP3    H126641   5.566   6.057  17.106  0.7206  1.2183  0.4771
 1742TIP3    H226642   5.460   6.128  17.187  0.1235  0.6786  0.1739
 1743TIP3   OH226643   3.095   1.191  14.900  0.1760 -0.2384 -0.4869
 1743TIP3    H126644   3.187   1.168  14.890  0.4955  0.9757 -0.3835
 1743TIP3    H226645   3.095   1.275  14.946 -1.0349 -1.1215  1.2232
 1744TIP3   OH226646   1.944   5.500   0.251 -0.1224 -0.6654  0.0315
 1744TIP3    H126647   1.991   5.425   0.215  2.2603 -0.3574  2.3265
 1744TIP3    H226648   1.971   5.574   0.197  0.3869 -0.8358  0.0575
 1745TIP3   OH226649   5.596   0.341   3.877 -0.1164 -0.3214 -0.0784
 1745TIP3    H126650   5.588   0.426   3.922  1.3047 -0.4333  0.4411
 1745TIP3    H226651   5.691   0.326   3.873 -0.2915 -1.0868 -1.6892
 1746TIP3   OH226652   3.059   2.272   2.168  0.1985  0.1740  0.1452
 1746TIP3    H126653   3.022   2.275   2.079 -0.1126  1.0496  0.2988
 1746TIP3    H226654   3.082   2.180   2.181  1.8667  0.3417 -1.5127
 1747TIP3   OH226655   4.514   4.419   3.239 -0.3051  0.0868  0.6012
 1747TIP3    H126656   4.493   4.408   3.146  0.1512 -1.3948  0.6639
 1747TIP3    H226657   4.435   4.458   3.276 -0.8589 -0.2235 -0.2204
 1748TIP3   OH226658   5.042   0.793  17.122 -1.2553 -0.2603  0.0448
 1748TIP3    H126659   5.120   0.754  17.161 -0.4932  1.3492  0.1455
 1748TIP3    H226660   4.970   0.764  17.178 -0.4063  0.4499  1.5143
 1749TIP3   OH226661   2.152   0.169  11.508  0.1605  0.1703 -0.1937
 1749TIP3    H126662   2.110   0.242  11.552  0.4913 -0.3290  0.9812
 1749TIP3    H226663   2.143   0.095  11.569  0.4425 -0.5923 -1.0525
 1750TIP3   OH226664   4.234   1.031   2.439 -0.3117  0.0835 -0.6567
 1750TIP3    H126665   4.292   0.960   2.412  0.4223  0.3450  0.2001
 1750TIP3    H226666   4.291   1.091   2.487 -1.6112 -0.5517  1.7713
 1751TIP3   OH226667   3.927   5.628  14.231 -1.0265  0.0650 -0.5934
 1751TIP3    H126668   3.908   5.710  14.275  0.1243  0.9936 -1.8123
 1751TIP3    H226669   3.963   5.653  14.146  0.0288 -1.6801 -0.6894
 1752TIP3   OH226670   6.622   4.016  11.008  0.0663  0.3408  0.3446
 1752TIP3    H126671   6.564   3.941  11.019  1.2117 -0.5929  0.1461
 1752TIP3    H226672   6.710   3.980  11.018  0.7975  0.9860 -3.1658
 1753TIP3   OH226673   6.316   0.145   4.791  0.5240 -0.3865  0.4280
 1753TIP3    H126674   6.386   0.208   4.773  0.5183 -0.9060 -1.5525
 1753TIP3    H226675   6.361   0.060   4.796  0.1313 -0.6314 -0.1631
 1754TIP3   OH226676   2.396   6.550   1.953 -0.4547 -0.4425 -0.5268
 1754TIP3    H126677   2.373   6.505   2.034  1.0504  0.1804  0.2657
 1754TIP3    H226678   2.314   6.590   1.924 -0.9440 -0.4077  0.8531
 1755TIP3   OH226679   4.369   1.631   0.130 -0.0438 -0.1776  0.1732
 1755TIP3    H126680   4.451   1.681   0.128 -0.3775  0.3454 -1.9470
 1755TIP3    H226681   4.310   1.686   0.182 -0.0578  1.1262 -1.1691
 1756TIP3   OH226682   2.633   1.002  13.545 -0.2872 -0.9015  0.2110
 1756TIP3    H126683   2.647   0.987  13.451  1.1208 -2.0569  0.5835
 1756TIP3    H226684   2.541   0.981  13.559 -0.1582 -2.1504 -0.6532
 1757TIP3   OH226685   5.260   6.205   4.875 -0.1814 -0.1996 -0.2595
 1757TIP3    H126686   5.292   6.116   4.861 -0.5063 -0.1464 -1.3987
 1757TIP3    H226687   5.336   6.261   4.855 -0.5555 -0.1390 -1.6136
 1758TIP3   OH226688   5.523   0.594   1.475 -0.5306  0.6640  0.1197
 1758TIP3    H126689   5.530   0.513   1.524  1.1737  2.0101  2.1944
 1758TIP3    H226690   5.565   0.575   1.391 -0.0047 -0.5464  0.6428
 1759TIP3   OH226691   5.753   4.428   1.804  0.1173  0.2080 -0.2343
 1759TIP3    H126692   5.781   4.437   1.713  1.3416  1.2119  0.2248
 1759TIP3    H226693   5.801   4.351   1.836 -0.7481 -0.4848 -0.5960
 1760TIP3   OH226694   0.944   0.093   5.953  0.3280 -0.4475  0.5613
 1760TIP3    H126695   0.954   0.078   6.047 -0.1877  0.7638  0.8144
 1760TIP3    H226696   1.034   0.101   5.920  0.5093 -0.8478  0.9478
 1761TIP3   OH226697   0.244   3.513  12.217  0.2953 -0.9863 -0.3211
 1761TIP3    H126698   0.267   3.604  12.235  0.6900 -1.2383  0.4993
 1761TIP3    H226699   0.150   3.508  12.233  0.6091 -1.1693  1.6363
 1762TIP3   OH226700   0.388   4.306   4.975  0.2310  0.0643 -0.6790
 1762TIP3    H126701   0.389   4.302   4.880 -1.2338  0.5993 -0.7271
 1762TIP3    H226702   0.353   4.393   4.995  0.0303 -0.2443  0.3398
 1763TIP3   OH226703   2.404   1.556   1.586 -0.4286 -0.2475 -0.5751
 1763TIP3    H126704   2.461   1.604   1.646 -0.4680  1.4336 -1.8271
 1763TIP3    H226705   2.319   1.600   1.594 -0.8772 -1.1074 -0.5959
 1764TIP3   OH226706   2.409   5.592   2.852  0.1004  0.2888  0.3120
 1764TIP3    H126707   2.455   5.510   2.832 -0.3085 -0.0879  0.8866
 1764TIP3    H226708   2.319   5.576   2.825  0.0992  0.6765  0.0903
 1765TIP3   OH226709   1.614   4.207   1.966  0.2359  0.0589 -0.0936
 1765TIP3    H126710   1.626   4.257   1.884 -3.2375  1.9678  0.4589
 1765TIP3    H226711   1.536   4.155   1.951  1.7498 -2.5444  0.7131
 1766TIP3   OH226712   1.815   6.377   2.443 -0.5557  0.4225  0.1042
 1766TIP3    H126713   1.775   6.318   2.378  1.1120  1.9169 -2.3483
 1766TIP3    H226714   1.781   6.463   2.421  2.3732  1.4080 -0.7568
 1767TIP3   OH226715   3.443   4.680   5.706  0.1194  0.1114 -0.3174
 1767TIP3    H126716   3.371   4.714   5.759  0.5000 -1.5029  1.2907
 1767TIP3    H226717   3.400   4.624   5.641 -0.2845  1.3524 -1.1174
 1768TIP3   OH226718   4.457   5.480   0.386 -0.0083  0.3953 -0.1813
 1768TIP3    H126719   4.551   5.495   0.373 -0.4565  2.3980 -1.3424
 1768TIP3    H226720   4.429   5.550   0.445 -0.8029 -0.1130  0.0532
 1769TIP3   OH226721   5.449   5.914   2.822  0.4384 -0.1405  0.3973
 1769TIP3    H126722   5.449   5.824   2.855  1.6183 -0.8128 -1.3581
 1769TIP3    H226723   5.387   5.912   2.748  0.3725  0.5191  0.4350
 1770TIP3   OH226724   5.654   2.435  17.205 -0.5477  0.0098  0.4487
 1770TIP3    H126725   5.725   2.370  17.204 -0.0645  0.5503 -0.3635
 1770TIP3    H226726   5.575   2.383  17.223  0.3034 -0.3469  3.5646
 1771TIP3   OH226727   4.709   4.123  10.847  0.1756  0.3691  0.3845
 1771TIP3    H126728   4.712   4.173  10.766 -1.8383  0.7279  0.5277
 1771TIP3    H226729   4.652   4.048  10.828 -0.7451  0.7356  1.6103
 1772TIP3   OH226730   2.678   1.820  13.629  0.6629  0.1766 -0.3930
 1772TIP3    H126731   2.746   1.853  13.571 -0.0402  1.6301 -0.4043
 1772TIP3    H226732   2.613   1.781  13.571  0.0034  1.5508 -0.6062
 1773TIP3   OH226733   1.245   5.597  14.774 -0.2358  0.0859 -0.0379
 1773TIP3    H126734   1.213   5.582  14.685  1.8435 -1.0235 -0.6244
 1773TIP3    H226735   1.173   5.566  14.830 -1.0150 -0.4918 -1.3238
 1774TIP3   OH226736   4.770   0.691   2.555 -0.8280  0.0212  0.1036
 1774TIP3    H126737   4.811   0.731   2.632 -1.2138  1.0343 -0.1951
 1774TIP3    H226738   4.824   0.721   2.481  0.3266 -2.0358  0.0997
 1775TIP3   OH226739   5.103   1.462   0.992 -0.4773  0.1575 -0.4920
 1775TIP3    H126740   5.034   1.474   0.927 -0.8036 -1.0645 -0.3785
 1775TIP3    H226741   5.182   1.492   0.948 -1.3949  3.7495  0.1562
 1776TIP3   OH226742   2.317   6.689   4.298  0.0066  0.1275  0.9225
 1776TIP3    H126743   2.334   6.736   4.380 -0.8688  1.6905  0.2226
 1776TIP3    H226744   2.224   6.663   4.304 -0.4118  1.3455 -0.1097
 1777TIP3   OH226745   4.363   4.771   4.825 -0.6150 -0.3421 -0.3148
 1777TIP3    H126746   4.455   4.760   4.801 -1.2645 -1.3516 -2.3870
 1777TIP3    H226747   4.362   4.852   4.877  1.2224  0.4812 -1.4858
 1778TIP3   OH226748   2.009   1.021  13.053  0.4751 -0.1472 -0.2152
 1778TIP3    H126749   2.088   1.016  12.999 -1.6683 -2.1457 -3.2958
 1778TIP3    H226750   1.980   0.931  13.062 -3.0934  0.8112 -1.6320
 1779TIP3   OH226751   3.229   4.941  12.380 -0.2464  0.5645  0.5247
 1779TIP3    H126752   3.253   5.027  12.345  0.7047 -0.4736 -1.4707
 1779TIP3    H226753   3.292   4.881  12.340 -0.5539 -0.9935  2.3277
 1780TIP3   OH226754   4.971   4.854   1.355  0.2163 -0.1552  0.7233
 1780TIP3    H126755   5.052   4.857   1.405 -0.0479 -0.1521  1.1505
 1780TIP3    H226756   4.970   4.766   1.316  0.3209 -0.2277  0.8849
 1781TIP3   OH226757   5.672   4.782   5.891  0.5554 -0.1454  0.2477
 1781TIP3    H126758   5.657   4.808   5.982  1.7902 -0.3506  0.5283
 1781TIP3    H226759   5.750   4.831   5.865 -0.8619  1.3547 -1.3186
 1782TIP3   OH226760   1.521   3.863  16.113 -0.3210  0.1762 -0.7411
 1782TIP3    H126761   1.469   3.864  16.194 -0.8675 -1.7022 -1.0471
 1782TIP3    H226762   1.460   3.891  16.045 -0.1635  0.6870 -0.6706
 1783TIP3   OH226763   6.682   0.825   1.257 -0.0734 -0.1401 -0.4635
 1783TIP3    H126764   6.723   0.909   1.278  0.7075 -1.0043  1.5834
 1783TIP3    H226765   6.751   0.760   1.270 -0.8567 -1.1861 -1.3654
 1784TIP3   OH226766   1.608   4.304  14.460  0.1323 -0.1447  0.5796
 1784TIP3    H126767   1.626   4.219  14.420  0.3205 -0.3059  1.0077
 1784TIP3    H226768   1.693   4.347  14.465  0.5229 -1.1323  3.1158
 1785TIP3   OH226769   0.259   6.534  14.670  0.1009  0.3906  0.5732
 1785TIP3    H126770   0.220   6.600  14.612  0.5134 -0.6777 -0.9379
 1785TIP3    H226771   0.350   6.528  14.642 -0.0884 -1.2673  0.2866
 1786TIP3   OH226772   1.461   5.171  10.988 -0.0542 -0.2828 -0.2030
 1786TIP3    H126773   1.390   5.107  10.981 -0.3437 -0.2400  1.9755
 1786TIP3    H226774   1.541   5.119  10.991 -0.1385 -0.4340 -0.5863
 1787TIP3   OH226775   6.589   5.880  12.128  0.0468  0.4446  0.2840
 1787TIP3    H126776   6.578   5.894  12.222  0.3440  0.0607  0.3784
 1787TIP3    H226777   6.519   5.820  12.103  0.7532 -0.4863  0.5149
 1788TIP3   OH226778   2.124   2.312  12.994  0.5854 -0.7505  0.3573
 1788TIP3    H126779   2.171   2.239  13.034 -0.4069 -0.7701  1.4999
 1788TIP3    H226780   2.185   2.386  12.999  0.6757 -0.8980  1.4005
 1789TIP3   OH226781   0.605   2.825   4.016  0.0760  0.3278  0.2489
 1789TIP3    H126782   0.683   2.850   4.067 -1.1137 -0.4648  2.5220
 1789TIP3    H226783   0.596   2.896   3.952  2.6399  0.4478 -0.0694
 1790TIP3   OH226784   0.348   6.438  17.083 -0.3661 -0.5104  0.4731
 1790TIP3    H126785   0.336   6.419  16.990 -0.1336 -1.7726  0.6983
 1790TIP3    H226786   0.280   6.389  17.127 -0.6117  0.2600  0.9645
 1791TIP3   OH226787   4.189   4.382  16.519 -0.6885 -0.0996  0.3919
 1791TIP3    H126788   4.277   4.414  16.499 -1.1049  1.2557  0.6874
 1791TIP3    H226789   4.203   4.307  16.577  0.2685  0.0995  0.4251
 1792TIP3   OH226790   0.457   3.836  13.135  0.3687 -0.2602 -0.2783
 1792TIP3    H126791   0.395   3.845  13.062  1.0012 -3.7811 -1.3508
 1792TIP3    H226792   0.429   3.901  13.199 -2.4856  0.3577 -2.0860
 1793TIP3   OH226793   5.688   6.406  12.694  0.0030 -0.4153 -0.1063
 1793TIP3    H126794   5.637   6.411  12.613 -1.4775 -1.7017  0.7122
 1793TIP3    H226795   5.713   6.496  12.712 -1.5960  0.1922 -0.8001
 1794TIP3   OH226796   1.302   4.207   5.471  0.0264 -0.6202 -0.2844
 1794TIP3    H126797   1.262   4.293   5.482  2.0446  0.0912  1.7713
 1794TIP3    H226798   1.251   4.149   5.527  0.9004 -0.0292  1.1316
 1795TIP3   OH226799   0.645   2.328  11.472 -0.5532  0.5041  0.3849
 1795TIP3    H126800   0.730   2.296  11.442 -1.0257  0.3209 -0.8007
 1795TIP3    H226801   0.648   2.318  11.567  0.2790 -0.6840  0.2512
 1796TIP3   OH226802   2.689   0.992  14.209 -0.0982  0.0697 -0.6505
 1796TIP3    H126803   2.643   0.963  14.287  0.3767 -0.5570 -0.5945
 1796TIP3    H226804   2.720   0.911  14.168  0.5082  0.4514 -0.9569
 1797TIP3   OH226805   0.545   6.109   3.450 -0.7747  0.2864  0.6033
 1797TIP3    H126806   0.615   6.123   3.386 -0.6017 -3.8428 -0.2278
 1797TIP3    H226807   0.467   6.144   3.407 -0.1929 -0.0463 -0.7675
 1798TIP3   OH226808   0.518   3.315   1.676  0.2240  0.8245  0.0697
 1798TIP3    H126809   0.433   3.305   1.632  0.0341  1.1579  0.3566
 1798TIP3    H226810   0.514   3.254   1.750  0.4498  0.4390 -0.2337
 1799TIP3   OH226811   3.217   1.257  16.658  0.0016  0.1371 -0.0600
 1799TIP3    H126812   3.220   1.161  16.665 -1.8297  0.2655  3.5162
 1799TIP3    H226813   3.292   1.287  16.708 -0.6683  0.6371  0.6440
 1800TIP3   OH226814   5.513   0.075   1.241  0.0269  0.1866 -0.2960
 1800TIP3    H126815   5.512   0.019   1.163 -0.4569  0.5596 -0.5599
 1800TIP3    H226816   5.530   0.163   1.207  1.9131  0.0346  0.2302
 1801TIP3   OH226817   0.615   4.546   1.632 -0.1377  0.6590 -0.0249
 1801TIP3    H126818   0.549   4.615   1.633 -2.1159 -1.1067 -3.2430
 1801TIP3    H226819   0.691   4.586   1.591 -1.4614  0.8547 -2.3826
 1802TIP3   OH226820   1.757   5.437  16.459  0.1363 -0.1042  0.1035
 1802TIP3    H126821   1.710   5.466  16.382  0.5172 -1.3963 -0.6366
 1802TIP3    H226822   1.815   5.368  16.427 -0.9996 -1.9280  1.8265
 1803TIP3   OH226823   1.580   0.023   2.987 -0.0948 -0.6174  0.1270
 1803TIP3    H126824   1.485   0.034   2.994  0.0877  2.6308 -1.6252
 1803TIP3    H226825   1.596   0.011   2.894  1.3280  0.0284  0.2758
 1804TIP3   OH226826   6.666   0.369  15.678  0.3130 -0.5891  0.7441
 1804TIP3    H126827   6.576   0.385  15.706  0.7520  0.7344  1.4342
 1804TIP3    H226828   6.663   0.378  15.583 -0.6605 -2.4855  0.5752
 1805TIP3   OH226829   6.052   4.762   5.742 -0.0255  0.3279  0.1489
 1805TIP3    H126830   5.985   4.696   5.725 -0.2085  0.1965  1.3493
 1805TIP3    H226831   6.024   4.804   5.824  0.0636  1.9131 -0.6010
 1806TIP3   OH226832   4.261   5.026  16.944 -0.0058 -0.1294  0.1385
 1806TIP3    H126833   4.229   5.038  16.855 -2.9176 -0.7596  1.0577
 1806TIP3    H226834   4.278   4.933  16.952  0.2245 -0.0791  0.2475
 1807TIP3   OH226835   5.280   6.220  15.370 -0.4408  0.8408 -0.0642
 1807TIP3    H126836   5.232   6.263  15.299  1.2502  1.2939 -0.9632
 1807TIP3    H226837   5.250   6.263  15.450 -3.9162 -1.0718 -0.2314
 1808TIP3   OH226838   1.215   3.362   4.780 -0.1067  0.6555  0.2352
 1808TIP3    H126839   1.188   3.271   4.795 -0.5899  0.8609  0.6163
 1808TIP3    H226840   1.287   3.355   4.717  1.2028 -0.1363  1.7848
 1809TIP3   OH226841   1.585   4.809   0.110  0.2079  0.2932  0.0120
 1809TIP3    H126842   1.551   4.824   0.022 -0.4973  0.4614  0.3143
 1809TIP3    H226843   1.679   4.798   0.097 -0.0184 -0.7945 -0.9022
 1810TIP3   OH226844   4.986   6.605  16.407  0.3605 -0.1364  0.3647
 1810TIP3    H126845   4.968   6.696  16.384  0.5525  0.0122  0.8076
 1810TIP3    H226846   4.953   6.554  16.333  1.3174  0.3685 -0.4172
 1811TIP3   OH226847   6.439   2.542  13.336 -0.0080 -0.0562  0.0870
 1811TIP3    H126848   6.375   2.600  13.376  0.8707  2.1947 -1.6604
 1811TIP3    H226849   6.391   2.496  13.268 -0.2779 -0.0304  0.2592
 1812TIP3   OH226850   6.222   0.060  17.068  0.6530 -0.0894  0.0089
 1812TIP3    H126851   6.299   0.005  17.073  0.9812  0.3841  0.2016
 1812TIP3    H226852   6.150   0.005  17.100  1.2908  0.1730  1.9464
 1813TIP3   OH226853   2.438   1.454  14.832 -0.0787  0.3441  0.3513
 1813TIP3    H126854   2.383   1.378  14.854 -0.4505 -0.0786 -1.9165
 1813TIP3    H226855   2.410   1.522  14.893 -2.6817 -0.0850 -0.2997
 1814TIP3   OH226856   0.979   6.368   0.435 -0.5084  0.2245 -0.1664
 1814TIP3    H126857   1.000   6.362   0.341 -1.8847  2.7161 -0.6883
 1814TIP3    H226858   1.063   6.358   0.479  0.5549  1.6416 -1.7911
 1815TIP3   OH226859   6.308   2.396   3.522 -0.5922  0.3836 -0.0506
 1815TIP3    H126860   6.325   2.467   3.583  1.5353  1.8629 -2.3051
 1815TIP3    H226861   6.225   2.420   3.479 -0.7362  0.6513  0.3802
 1816TIP3   OH226862   0.324   4.094   5.470 -0.1251  0.0500  0.6068
 1816TIP3    H126863   0.234   4.125   5.480 -0.0474  0.1963  0.8394
 1816TIP3    H226864   0.342   4.102   5.376  0.3430  1.9272  0.8513
 1817TIP3   OH226865   4.441   1.959  10.438  0.1840 -0.2424 -0.0893
 1817TIP3    H126866   4.395   2.042  10.431 -0.4194 -0.3985  1.7091
 1817TIP3    H226867   4.374   1.897  10.470  0.8645 -1.1864 -0.4672
 1818TIP3   OH226868   5.476   1.228  11.654  0.3435 -0.1651 -0.1941
 1818TIP3    H126869   5.426   1.235  11.736  2.3514  1.0815  0.9468
 1818TIP3    H226870   5.439   1.297  11.598 -0.4624 -0.4737 -0.0584
 1819TIP3   OH226871   2.604   2.631  15.506  0.6168  0.3317 -0.2884
 1819TIP3    H126872   2.588   2.537  15.492 -1.4576  0.5821  0.2055
 1819TIP3    H226873   2.674   2.634  15.572 -1.3268 -0.9273  1.9247
 1820TIP3   OH226874   1.490   4.879   2.867  0.0328  0.0563 -0.7384
 1820TIP3    H126875   1.509   4.830   2.947  0.1307  0.6598 -0.3869
 1820TIP3    H226876   1.490   4.813   2.798 -3.0057 -0.9880  0.1487
 1821TIP3   OH226877   1.706   6.576  13.629  0.2815 -0.2486  0.4116
 1821TIP3    H126878   1.652   6.559  13.551 -0.7771 -1.0110  1.2993
 1821TIP3    H226879   1.645   6.569  13.702  1.8492 -2.4454  1.5517
 1822TIP3   OH226880   3.486   3.622  15.399  0.2746 -1.0233  0.5614
 1822TIP3    H126881   3.439   3.691  15.353  0.3104 -1.3606  0.0189
 1822TIP3    H226882   3.579   3.644  15.386  0.2679 -0.3017  1.7188
 1823TIP3   OH226883   4.054   0.653   2.258 -0.3829  0.2404  0.1085
 1823TIP3    H126884   4.141   0.643   2.220 -1.3149  0.8406 -2.2692
 1823TIP3    H226885   4.043   0.576   2.314  1.5398  0.0029  0.1908
 1824TIP3   OH226886   3.243   2.021   2.995 -0.3446 -0.4132 -0.1475
 1824TIP3    H126887   3.211   2.007   2.906  0.1154  1.0037 -0.5540
 1824TIP3    H226888   3.198   1.955   3.047  0.3653 -2.1295 -1.6296
 1825TIP3   OH226889   0.506   6.631  16.254 -0.1851  0.1274  0.2057
 1825TIP3    H126890   0.435   6.692  16.276  0.5421  0.1379  2.6677
 1825TIP3    H226891   0.553   6.675  16.182 -0.2851  1.9922  1.2431
 1826TIP3   OH226892   4.136   2.758   5.578 -0.5399  0.5037 -0.2751
 1826TIP3    H126893   4.059   2.785   5.528 -0.4048  2.7316  0.6651
 1826TIP3    H226894   4.126   2.800   5.663  0.9891 -0.3720  0.3638
 1827TIP3   OH226895   6.073   1.346   5.456  0.1643  0.4449 -0.4135
 1827TIP3    H126896   6.006   1.343   5.387 -0.1970  0.3645 -0.0603
 1827TIP3    H226897   6.079   1.256   5.487  1.0927  0.2830 -1.0736
 1828TIP3   OH226898   4.678   5.508   5.764 -0.4173  0.3671  0.4761
 1828TIP3    H126899   4.710   5.455   5.837  0.0224 -1.9759 -1.3355
 1828TIP3    H226900   4.743   5.577   5.753  2.3070 -2.3003 -0.9601
 1829TIP3   OH226901   5.693   3.241   3.883  0.2230  0.1550 -0.4709
 1829TIP3    H126902   5.650   3.156   3.888 -0.4352  0.5894  1.8232
 1829TIP3    H226903   5.766   3.235   3.944  0.3690  1.1263 -0.5404
 1830TIP3   OH226904   2.669   3.757  12.435  0.0779 -0.1087  0.3349
 1830TIP3    H126905   2.693   3.665  12.445 -0.2932 -0.2703 -0.2498
 1830TIP3    H226906   2.642   3.785  12.523  0.9899 -0.3238  0.6889
 1831TIP3   OH226907   3.888   1.535  16.725  0.1905 -0.1271 -0.2840
 1831TIP3    H126908   3.962   1.591  16.749  0.0075  0.1595 -0.3850
 1831TIP3    H226909   3.927   1.461  16.679  0.5209 -0.5527  0.6656
 1832TIP3   OH226910   4.401   5.312   5.098 -0.7193 -0.4544 -0.3128
 1832TIP3    H126911   4.431   5.222   5.086 -0.5496 -0.5210  0.5999
 1832TIP3    H226912   4.306   5.305   5.095 -0.6878 -0.3975 -2.0964
 1833TIP3   OH226913   4.541   5.924  13.362  0.1698  0.4701  0.2059
 1833TIP3    H126914   4.506   6.012  13.377  0.5479  0.5485  0.6274
 1833TIP3    H226915   4.585   5.929  13.278 -1.4681  0.1812 -0.7046
 1834TIP3   OH226916   5.698   1.566  14.706 -0.2319 -0.7283 -0.7028
 1834TIP3    H126917   5.683   1.659  14.723 -1.5535 -1.0506 -0.0337
 1834TIP3    H226918   5.630   1.541  14.643 -0.3733 -1.4193 -0.2849
 1835TIP3   OH226919   1.884   6.779  10.941  0.1567 -0.3760  0.0491
 1835TIP3    H126920   1.901   6.861  10.988  0.4748 -0.0811 -0.5678
 1835TIP3    H226921   1.960   6.724  10.961 -0.7879 -1.1014  1.7043
 1836TIP3   OH226922   1.016   5.361  17.188 -0.6599 -0.1556 -0.3720
 1836TIP3    H126923   1.001   5.406  17.104  0.2287 -0.0628 -0.4963
 1836TIP3    H226924   1.006   5.268  17.167 -0.6390 -0.1208 -0.5406
 1837TIP3   OH226925   4.718   1.870  13.902  0.5319  0.2006 -0.2762
 1837TIP3    H126926   4.808   1.900  13.891  0.2392  0.4350 -2.1615
 1837TIP3    H226927   4.703   1.811  13.828 -0.0342 -1.9040  1.4520
 1838TIP3   OH226928   5.888   6.276   5.883 -0.4894 -0.0262 -0.1971
 1838TIP3    H126929   5.971   6.233   5.905 -0.0190  0.3169 -1.2546
 1838TIP3    H226930   5.859   6.315   5.965 -1.1286 -2.6794  0.8830
 1839TIP3   OH226931   5.461   0.524   1.887 -0.1971 -0.4894 -0.0985
 1839TIP3    H126932   5.410   0.604   1.871  1.1916  0.3950 -0.1545
 1839TIP3    H226933   5.443   0.503   1.979  1.6213  1.4922  0.7556
 1840TIP3   OH226934   6.082   1.054  14.032  0.2515 -0.2452  0.2803
 1840TIP3    H126935   6.136   1.071  13.955 -0.3198  0.3988  0.0167
 1840TIP3    H226936   6.139   1.006  14.092  1.3580  1.1297  0.3370
 1841TIP3   OH226937   5.570   3.317   4.725  0.1611  0.1708  0.3665
 1841TIP3    H126938   5.660   3.347   4.737  0.0858  0.1785  0.9421
 1841TIP3    H226939   5.559   3.248   4.791 -0.5570  0.8413  0.9604
 1842TIP3   OH226940   2.395   0.920  15.572  0.1442  0.9475 -0.1127
 1842TIP3    H126941   2.411   0.925  15.477  1.3756  0.0522  0.0380
 1842TIP3    H226942   2.482   0.911  15.610 -0.5409 -1.6184  0.9103
 1843TIP3   OH226943   2.346   3.201   2.664  0.2714  0.1321  0.5239
 1843TIP3    H126944   2.385   3.247   2.739  0.9247  0.8857 -0.2726
 1843TIP3    H226945   2.331   3.269   2.599 -1.1133 -0.3769  0.2839
 1844TIP3   OH226946   0.871   6.257   3.810 -0.4179  0.7432 -0.3114
 1844TIP3    H126947   0.894   6.236   3.719  0.1253 -1.6947  0.3547
 1844TIP3    H226948   0.777   6.272   3.808 -0.0907  2.9808 -1.6519
 1845TIP3   OH226949   2.395   1.420   2.209 -0.7010 -0.2419 -0.6052
 1845TIP3    H126950   2.406   1.325   2.214 -1.6104 -0.3067  0.5062
 1845TIP3    H226951   2.321   1.439   2.267  1.1601  1.4456  1.3194
 1846TIP3   OH226952   5.179   4.090  15.092 -0.5013  0.5384 -0.2914
 1846TIP3    H126953   5.142   4.089  15.003  1.6192 -0.8843 -1.2003
 1846TIP3    H226954   5.173   3.999  15.121  0.6794  0.6188  0.2176
 1847TIP3   OH226955   4.779   3.707   2.903  0.5632  0.4473 -0.2341
 1847TIP3    H126956   4.858   3.684   2.952  1.2348  1.3798 -0.8805
 1847TIP3    H226957   4.733   3.769   2.960  0.4309  0.1279  0.0123
 1848TIP3   OH226958   0.558   5.345  11.521  0.2894 -0.0625  0.0857
 1848TIP3    H126959   0.554   5.276  11.455  0.4536  0.8575 -0.9076
 1848TIP3    H226960   0.484   5.402  11.502 -0.2108 -0.2884  1.2832
 1849TIP3   OH226961   2.192   4.919   3.554 -0.4632 -0.3208 -0.0822
 1849TIP3    H126962   2.105   4.949   3.578  0.6214  1.1102  2.2207
 1849TIP3    H226963   2.214   4.854   3.620  0.2707 -0.5678 -0.5671
 1850TIP3   OH226964   4.156   1.494   6.292 -0.0462  0.4349 -0.7022
 1850TIP3    H126965   4.168   1.440   6.214 -1.5752 -0.7613 -0.1245
 1850TIP3    H226966   4.186   1.440   6.364 -2.8951 -0.2179  0.0427
 1851TIP3   OH226967   3.886   2.695   3.988  0.0287  0.4785  0.3505
 1851TIP3    H126968   3.903   2.745   3.908 -0.0425 -1.8011 -1.1577
 1851TIP3    H226969   3.799   2.657   3.975  0.0800 -0.0390  1.4530
 1852TIP3   OH226970   3.343   1.311  14.660 -0.1013  0.0955  0.0604
 1852TIP3    H126971   3.328   1.320  14.566 -0.8508 -0.6106  0.1066
 1852TIP3    H226972   3.352   1.217  14.674 -0.2969  0.1781  0.7445
 1853TIP3   OH226973   4.354   0.886  14.158  0.1826  0.7538 -0.3490
 1853TIP3    H126974   4.304   0.822  14.108 -0.4956  0.4580  0.6966
 1853TIP3    H226975   4.442   0.847  14.164  0.2204  0.7005 -1.1184
 1854TIP3   OH226976   0.422   4.864  17.215 -0.0055  0.0441 -0.3609
 1854TIP3    H126977   0.329   4.867  17.193 -0.2690 -2.6105  0.3077
 1854TIP3    H226978   0.442   4.954  17.242 -2.5177  0.5128  0.1280
 1855TIP3   OH226979   4.798   6.529   2.933 -0.0216 -0.6744 -0.1241
 1855TIP3    H126980   4.760   6.443   2.947 -1.2917 -0.1154 -0.0658
 1855TIP3    H226981   4.724   6.584   2.906  0.8985  0.2298 -0.8483
 1856TIP3   OH226982   0.694   2.056   2.213 -0.1606  0.2235 -0.6503
 1856TIP3    H126983   0.679   2.052   2.119  0.8465 -2.8504 -0.7384
 1856TIP3    H226984   0.713   1.966   2.238  2.5055  1.4296  2.0015
 1857TIP3   OH226985   3.911   0.499   1.139  0.5733  0.1277  0.3187
 1857TIP3    H126986   3.957   0.583   1.137  1.5399 -0.4013  0.1128
 1857TIP3    H226987   3.826   0.517   1.099  0.0948  1.4113  1.8650
 1858TIP3   OH226988   0.064   5.520   4.297  0.1612 -0.6899 -0.4879
 1858TIP3    H126989   0.072   5.592   4.359 -2.1596  1.2279 -2.3032
 1858TIP3    H226990   0.144   5.523   4.245  0.3753  0.1450 -0.1128
 1859TIP3   OH226991   6.134   3.669   5.507  0.6909  0.4884  0.2199
 1859TIP3    H126992   6.179   3.746   5.473 -0.5047  1.8695  1.7425
 1859TIP3    H226993   6.163   3.661   5.598 -0.7297  0.3292  0.6722
 1860TIP3   OH226994   2.433   2.161  15.454  0.0942 -0.1225  0.2800
 1860TIP3    H126995   2.520   2.155  15.415 -0.5652 -0.1757 -1.2198
 1860TIP3    H226996   2.400   2.071  15.452 -1.0739  0.3204 -1.7433
 1861TIP3   OH226997   5.566   6.767  14.467 -0.6096  0.6474  0.3815
 1861TIP3    H126998   5.513   6.715  14.407 -0.5586  1.4220 -0.3336
 1861TIP3    H226999   5.567   6.855  14.429  0.4212  0.8573  0.8758
 1862TIP3   OH227000   5.343   2.278  12.944 -0.2725 -0.1313 -0.5255
 1862TIP3    H127001   5.265   2.298  12.892 -0.4421 -0.9150 -0.5741
 1862TIP3    H227002   5.324   2.193  12.984 -0.1791  0.4996  0.8869
 1863TIP3   OH227003   5.485   1.937   6.303 -0.0968  0.4974  0.0717
 1863TIP3    H127004   5.549   1.971   6.240 -1.0317  2.1088 -0.0381
 1863TIP3    H227005   5.529   1.862   6.344  1.0028  0.2204 -1.5806
 1864TIP3   OH227006   2.078   0.783  15.878  0.1532 -0.2923 -0.2729
 1864TIP3    H127007   2.089   0.749  15.789 -0.8239  0.3883 -0.6594
 1864TIP3    H227008   2.152   0.843  15.889  1.3013 -1.7273  0.0422
 1865TIP3   OH227009   5.606   4.485  13.706 -0.1146 -0.1316  0.9975
 1865TIP3    H127010   5.696   4.467  13.730 -0.6826 -3.2899  0.9801
 1865TIP3    H227011   5.612   4.555  13.641  2.5140 -1.6856 -0.5451
 1866TIP3   OH227012   2.716   0.839  17.082 -0.2493 -0.0782 -0.3122
 1866TIP3    H127013   2.655   0.812  17.014 -1.4656  0.4775  0.5529
 1866TIP3    H227014   2.742   0.758  17.125 -0.1152 -0.3468 -0.8964
 1867TIP3   OH227015   6.423   5.695   2.234  0.0244 -0.4083 -0.4452
 1867TIP3    H127016   6.352   5.679   2.296 -0.0539 -0.9781 -0.6860
 1867TIP3    H227017   6.475   5.615   2.236  0.2639 -0.2614 -0.7983
 1868TIP3   OH227018   0.194   3.596   5.524 -0.4829 -0.0378 -0.1810
 1868TIP3    H127019   0.196   3.677   5.574 -0.2070  0.4148 -0.9251
 1868TIP3    H227020   0.108   3.558   5.544 -0.8459  0.7194 -0.2833
 1869TIP3   OH227021   3.058   5.595   1.446  0.1448  0.4379 -0.0111
 1869TIP3    H127022   2.999   5.633   1.381 -0.3087  0.1240  0.2177
 1869TIP3    H227023   3.068   5.503   1.419  0.0455  0.3360  0.2962
 1870TIP3   OH227024   3.894   0.756  12.183 -0.2331  0.5076  0.2315
 1870TIP3    H127025   3.920   0.848  12.186  0.6586  0.3344 -1.5538
 1870TIP3    H227026   3.974   0.709  12.156 -0.2050 -0.9930  2.7847
 1871TIP3   OH227027   3.384   3.647  11.456  0.0094  0.0156 -0.1711
 1871TIP3    H127028   3.429   3.575  11.412 -1.1871 -0.4667 -0.6325
 1871TIP3    H227029   3.380   3.716  11.390  0.4900  0.2297  0.0231
 1872TIP3   OH227030   3.186   3.687  12.540  0.8236 -0.5914 -0.0237
 1872TIP3    H127031   3.241   3.608  12.540  0.5415 -0.7952  0.7363
 1872TIP3    H227032   3.115   3.667  12.479 -0.3532 -1.7288  1.6604
 1873TIP3   OH227033   1.007   6.353   0.167 -0.3825 -0.7432 -0.0653
 1873TIP3    H127034   1.018   6.282   0.103 -1.2061 -1.3194  0.4193
 1873TIP3    H227035   0.916   6.381   0.157 -0.1697 -0.0165  0.0226
 1874TIP3   OH227036   5.820   0.447  17.208 -0.7332  0.6851 -0.1638
 1874TIP3    H127037   5.794   0.371  17.156 -1.4877 -0.4134  1.7554
 1874TIP3    H227038   5.816   0.520  17.147  0.7212 -0.8977 -2.2474
 1875TIP3   OH227039   4.460   5.575   2.332 -0.2647  0.1633  0.5504
 1875TIP3    H127040   4.553   5.570   2.310 -0.1737  1.5928  0.6149
 1875TIP3    H227041   4.459   5.595   2.426 -0.6432 -0.3819  0.6646
 1876TIP3   OH227042   4.915   2.478  14.879 -0.9086 -0.2434  0.2478
 1876TIP3    H127043   4.932   2.420  14.804 -2.8647  0.4526 -0.7720
 1876TIP3    H227044   4.834   2.443  14.918  0.5987 -1.1840  2.6404
 1877TIP3   OH227045   0.728   4.441  11.622  0.0364  0.3628  0.2734
 1877TIP3    H127046   0.819   4.415  11.606 -0.0347  2.0468 -3.3984
 1877TIP3    H227047   0.677   4.364  11.597  0.3548  0.2883 -0.1612
 1878TIP3   OH227048   5.043   2.365  15.483  0.0150 -0.4252  0.0704
 1878TIP3    H127049   5.125   2.324  15.454 -0.8800 -2.3425  0.1753
 1878TIP3    H227050   4.994   2.379  15.402 -0.1528 -0.6082  0.1399
 1879TIP3   OH227051   5.765   4.326  16.346 -0.3395  0.2705 -0.1265
 1879TIP3    H127052   5.825   4.254  16.327  0.0403  0.2180  1.1871
 1879TIP3    H227053   5.814   4.404  16.321  0.0817  0.1966  0.4519
 1880TIP3   OH227054   0.122   1.387  15.407 -0.2129  0.3287 -0.4158
 1880TIP3    H127055   0.135   1.473  15.446  1.2078  0.5019 -1.2071
 1880TIP3    H227056   0.055   1.345  15.460 -0.0818  1.4907  0.6723
 1881TIP3   OH227057   5.247   6.450   1.610 -0.1461  0.3247 -0.2494
 1881TIP3    H127058   5.161   6.489   1.625 -0.2290  0.3629 -0.7856
 1881TIP3    H227059   5.286   6.506   1.543  0.4930  0.5945  0.3453
 1882TIP3   OH227060   4.820   5.886   2.199  0.5133  0.1279  0.1588
 1882TIP3    H127061   4.827   5.971   2.242  1.2118  0.9917 -1.6349
 1882TIP3    H227062   4.901   5.841   2.222  1.4725  1.0875 -1.2982
 1883TIP3   OH227063   6.024   3.702  13.298 -0.4045 -0.0463 -0.1199
 1883TIP3    H127064   5.946   3.652  13.318 -0.5334  1.0853  2.3041
 1883TIP3    H227065   6.007   3.790  13.332  0.8313  0.9944 -2.0181
 1884TIP3   OH227066   3.932   1.305   6.052  0.9573 -0.0252 -0.4261
 1884TIP3    H127067   4.019   1.321   6.090  0.5975  0.9903 -0.0107
 1884TIP3    H227068   3.924   1.210   6.051  2.5078 -0.1810 -1.4622
 1885TIP3   OH227069   0.362   5.394   0.593 -0.7392  0.3387  0.2050
 1885TIP3    H127070   0.341   5.478   0.553  1.0518  0.1757 -1.1770
 1885TIP3    H227071   0.362   5.411   0.687 -1.5934  1.5935 -0.0167
 1886TIP3   OH227072   2.543   1.223   0.073  0.3911  0.1254  0.4303
 1886TIP3    H127073   2.600   1.300   0.079  0.6862 -0.1402  1.0878
 1886TIP3    H227074   2.600   1.153   0.042 -0.3706  0.6790 -2.3661
 1887TIP3   OH227075   1.961   1.677   6.007  0.4157 -0.3112 -0.2515
 1887TIP3    H127076   1.945   1.768   5.982  3.1818  0.6724  1.4107
 1887TIP3    H227077   2.043   1.654   5.964  0.7698 -1.3651  0.9632
 1888TIP3   OH227078   2.172   4.024   4.600  0.6307 -0.0627 -0.0782
 1888TIP3    H127079   2.092   3.993   4.641  0.5421  0.4724  0.1652
 1888TIP3    H227080   2.226   3.946   4.588  0.1881 -0.3819  0.0148
 1889TIP3   OH227081   0.139   5.896   6.169  0.1483 -0.1600  0.2615
 1889TIP3    H127082   0.079   5.839   6.217  1.3377  0.0964  2.0842
 1889TIP3    H227083   0.226   5.867   6.195  0.8125  0.4622 -1.1965
 1890TIP3   OH227084   0.201   3.072  12.361 -0.0178 -0.2669  0.5309
 1890TIP3    H127085   0.182   3.162  12.386 -0.6561 -0.2490 -0.0055
 1890TIP3    H227086   0.273   3.045  12.418  0.4855  0.7389  0.3653
 1891TIP3   OH227087   3.331   4.056  12.161 -0.6509 -0.4126  0.1325
 1891TIP3    H127088   3.300   4.064  12.252 -0.3087 -0.8410  0.2901
 1891TIP3    H227089   3.341   3.961  12.148  0.5587 -0.2733  0.0683
 1892TIP3   OH227090   0.041   0.849  13.648  0.2328  0.3581  0.2170
 1892TIP3    H127091   0.067   0.924  13.596 -0.6793  2.2604  2.3987
 1892TIP3    H227092   0.107   0.783  13.630  1.8208  2.1628 -0.7167
 1893TIP3   OH227093   4.178   1.161  11.671 -0.1766  0.5548 -0.2006
 1893TIP3    H127094   4.110   1.141  11.607  0.3472  0.6893 -0.8039
 1893TIP3    H227095   4.250   1.196  11.619 -0.8621  3.5241  0.7501
 1894TIP3   OH227096   0.232   5.012   1.376 -0.2339  0.5235 -0.6667
 1894TIP3    H127097   0.232   5.079   1.308 -1.4523 -1.2109 -2.4371
 1894TIP3    H227098   0.289   4.943   1.342 -1.4439 -0.6858 -0.2923
 1895TIP3   OH227099   5.623   2.272  12.888 -0.4546 -0.2547 -0.7392
 1895TIP3    H127100   5.687   2.275  12.959 -0.5085  1.8288 -0.7492
 1895TIP3    H227101   5.539   2.285  12.930 -0.7127 -1.3196 -0.9216
 1896TIP3   OH227102   0.591   0.987  11.485  0.0447 -0.2095  0.1544
 1896TIP3    H127103   0.633   1.008  11.568  0.9177 -1.3040  0.0001
 1896TIP3    H227104   0.663   0.981  11.422 -0.4584 -0.8747 -0.3670
 1897TIP3   OH227105   1.574   3.030  13.595 -0.0854 -0.0873  0.4073
 1897TIP3    H127106   1.591   3.121  13.621 -0.5515  0.0284  0.3173
 1897TIP3    H227107   1.660   2.995  13.572  0.2551 -0.0194  1.5552
 1898TIP3   OH227108   4.539   1.476  15.007  0.3995  0.0173  0.0376
 1898TIP3    H127109   4.560   1.560  15.048 -1.8596  0.7583 -0.2440
 1898TIP3    H227110   4.535   1.495  14.914 -0.4173 -0.3222 -0.0041
 1899TIP3   OH227111   3.847   2.580  13.262  0.0888  0.4169 -0.6952
 1899TIP3    H127112   3.876   2.495  13.297  2.1655  1.6789  0.7541
 1899TIP3    H227113   3.876   2.579  13.171  0.0006 -0.4865 -0.7182
 1900TIP3   OH227114   5.583   1.741  16.369  0.1018  0.1022  0.2706
 1900TIP3    H127115   5.618   1.682  16.302 -0.5496  0.6128 -0.5439
 1900TIP3    H227116   5.656   1.798  16.393  0.5889 -0.6925  0.6805
 1901TIP3   OH227117   5.472   3.951  14.870  0.6981 -0.4912  0.0816
 1901TIP3    H127118   5.393   3.906  14.843  1.3545 -1.8125  0.3305
 1901TIP3    H227119   5.451   4.044  14.863 -0.5968 -0.8374 -0.6332
 1902TIP3   OH227120   3.906   4.008   1.725 -0.2601  0.2058  0.5760
 1902TIP3    H127121   3.838   4.012   1.658 -1.7859  0.3325  2.0875
 1902TIP3    H227122   3.929   3.915   1.731  0.1124  0.2325 -0.3160
 1903TIP3   OH227123   3.942   1.161   2.512  0.4947 -0.2826 -0.3424
 1903TIP3    H127124   3.990   1.241   2.533  2.4525 -1.9769  1.9690
 1903TIP3    H227125   4.003   1.110   2.459  0.3982 -1.4640  0.6616
 1904TIP3   OH227126   3.482   3.461  14.171  0.2090  0.0532  0.3978
 1904TIP3    H127127   3.508   3.545  14.208  0.0136  0.1438  0.3314
 1904TIP3    H227128   3.489   3.399  14.244 -0.4865  0.2921  0.6723
 1905TIP3   OH227129   3.001   2.558  16.718 -0.4757 -0.3136  0.5714
 1905TIP3    H127130   3.055   2.573  16.796 -0.1846 -0.7840  0.4661
 1905TIP3    H227131   3.003   2.641  16.671 -0.8147  0.0343  1.1639
 1906TIP3   OH227132   0.653   5.973   4.229  0.1273 -0.3078 -0.1301
 1906TIP3    H127133   0.565   5.978   4.268  0.4629  0.5375  0.5360
 1906TIP3    H227134   0.638   5.941   4.140 -0.6803 -1.9384  0.5661
 1907TIP3   OH227135   1.384   4.677  14.606 -0.2594  0.3446 -0.3576
 1907TIP3    H127136   1.320   4.739  14.641 -0.6223  0.3337 -0.9963
 1907TIP3    H227137   1.335   4.624  14.545  0.1960 -0.1650 -0.2843
 1908TIP3   OH227138   2.343   3.026  14.668 -0.0949 -0.4190 -0.0291
 1908TIP3    H127139   2.328   3.005  14.576 -0.3548  1.6470 -0.5005
 1908TIP3    H227140   2.433   2.998  14.685  0.3792  0.2782 -1.2742
 1909TIP3   OH227141   1.759   0.800  14.310  0.2499 -0.1165 -0.1176
 1909TIP3    H127142   1.854   0.794  14.321  0.3570 -2.2425 -1.7877
 1909TIP3    H227143   1.747   0.827  14.219 -0.7528  1.6393  0.5159
 1910TIP3   OH227144   2.996   1.852  12.647  0.2034  0.2322  0.4185
 1910TIP3    H127145   2.905   1.871  12.622  1.4180  4.2373 -1.5159
 1910TIP3    H227146   3.031   1.802  12.573  0.4956  1.7511 -0.4964
 1911TIP3   OH227147   1.466   0.073  16.813  0.4137  0.2776 -0.6371
 1911TIP3    H127148   1.451  -0.018  16.838  0.2349  0.4439 -0.1234
 1911TIP3    H227149   1.421   0.124  16.881 -0.9671  0.7372 -1.8558
 1912TIP3   OH227150   3.815   1.266   2.947 -0.5876  0.4337 -0.2673
 1912TIP3    H127151   3.724   1.256   2.920  0.1837 -1.6002 -2.3357
 1912TIP3    H227152   3.814   1.338   3.010 -3.6254  0.3564 -0.1473
 1913TIP3   OH227153   2.449   4.036   5.437  0.2292 -0.4492  0.4373
 1913TIP3    H127154   2.433   4.122   5.477  1.7651 -0.7865  1.8124
 1913TIP3    H227155   2.507   4.055   5.363  0.9375 -0.3316  1.0098
 1914TIP3   OH227156   1.199   3.450   0.868 -0.0315  0.2985 -0.0579
 1914TIP3    H127157   1.193   3.361   0.902  1.5997  0.8130  1.7567
 1914TIP3    H227158   1.292   3.471   0.876 -0.3021  1.9188 -1.0892
 1915TIP3   OH227159   2.615   2.465  13.576  0.1737  0.3454  0.6585
 1915TIP3    H127160   2.549   2.441  13.511  0.5285  0.6687  0.1780
 1915TIP3    H227161   2.647   2.551  13.547  0.7035  0.2553  0.9666
 1916TIP3   OH227162   2.918   3.726  14.404 -0.0474 -0.2722 -0.4646
 1916TIP3    H127163   2.825   3.742  14.388  0.3367  0.3433 -2.1592
 1916TIP3    H227164   2.931   3.749  14.496 -0.6971  3.6854 -1.2828
 1917TIP3   OH227165   6.341   4.226   6.354 -0.1467 -0.3448  0.1500
 1917TIP3    H127166   6.363   4.285   6.426  2.1484 -0.3988 -0.4497
 1917TIP3    H227167   6.397   4.149   6.368 -0.5302 -0.8583 -1.0399
 1918TIP3   OH227168   4.970   4.172   3.063 -0.0058  0.2130 -0.3530
 1918TIP3    H127169   4.913   4.216   3.127 -0.3792  0.0554 -0.5743
 1918TIP3    H227170   4.915   4.162   2.985  0.7915  1.3947 -1.0811
 1919TIP3   OH227171   4.701   1.912   4.996  0.3201 -0.1921 -0.4491
 1919TIP3    H127172   4.683   1.924   5.089 -0.5263  1.1239 -0.7595
 1919TIP3    H227173   4.768   1.978   4.976 -0.8532  0.8180 -1.1516
 1920TIP3   OH227174   5.452   4.456  11.591 -0.2592 -0.2142  0.2425
 1920TIP3    H127175   5.415   4.377  11.631  0.3732 -0.5373  0.1913
 1920TIP3    H227176   5.422   4.452  11.500 -0.6940 -0.1073  0.3809
 1921TIP3   OH227177   4.610   6.506   4.423 -0.3814 -0.2290 -0.2841
 1921TIP3    H127178   4.591   6.492   4.330  1.8197  2.3545 -1.2023
 1921TIP3    H227179   4.669   6.581   4.424  0.9459 -1.2146  3.1067
 1922TIP3   OH227180   6.252   1.406  15.633  0.5841 -0.0828  0.4077
 1922TIP3    H127181   6.325   1.349  15.608  2.0809  2.0733 -0.2410
 1922TIP3    H227182   6.191   1.401  15.559  1.6406  0.6817 -0.5255
 1923TIP3   OH227183   4.622   2.221  15.762 -0.3321 -0.3017  0.0308
 1923TIP3    H127184   4.710   2.242  15.733 -0.0380 -1.8438 -0.2291
 1923TIP3    H227185   4.568   2.292  15.728  0.6747  0.2052 -0.5309
 1924TIP3   OH227186   0.849   5.040  11.625  0.7344 -0.0867  0.0165
 1924TIP3    H127187   0.874   4.947  11.618  0.9430  0.0247 -0.7556
 1924TIP3    H227188   0.777   5.050  11.563 -0.8506 -0.2518  1.7732
 1925TIP3   OH227189   5.719   3.683  13.128  0.1107 -0.2110  0.4672
 1925TIP3    H127190   5.715   3.778  13.114  1.9246  0.1427  2.1424
 1925TIP3    H227191   5.663   3.647  13.059  0.9593  1.9529 -1.4400
 1926TIP3   OH227192   6.574   4.774   2.615  0.4453  0.2582 -0.8278
 1926TIP3    H127193   6.546   4.718   2.543 -0.6396 -0.0089 -0.2064
 1926TIP3    H227194   6.603   4.714   2.683  0.8074  0.4961 -0.7687
 1927TIP3   OH227195   3.003   1.210  15.169 -0.1712  0.0175 -0.3603
 1927TIP3    H127196   2.975   1.293  15.131 -0.3027 -0.2455 -0.8474
 1927TIP3    H227197   2.922   1.173  15.205  0.0737  0.5821  0.7966
 1928TIP3   OH227198   1.656   0.361  11.727 -0.3397  0.2323  0.2413
 1928TIP3    H127199   1.615   0.326  11.805 -0.8754 -1.8232 -0.9007
 1928TIP3    H227200   1.606   0.439  11.705 -0.0796  0.9221  2.0029
 1929TIP3   OH227201   2.381   2.352  12.136 -0.3333 -0.3270 -0.4412
 1929TIP3    H127202   2.438   2.290  12.091 -0.4697 -1.0340  0.3520
 1929TIP3    H227203   2.335   2.398  12.065  0.6803 -0.2606 -1.0613
 1930TIP3   OH227204   4.059   1.371   6.671 -0.0569  0.4721 -0.0055
 1930TIP3    H127205   4.037   1.459   6.700  1.2044  0.7792  0.0424
 1930TIP3    H227206   4.143   1.380   6.627  0.3083 -0.7749  0.3958
 1931TIP3   OH227207   5.367   2.426  14.222 -0.0386 -0.0678  0.3836
 1931TIP3    H127208   5.428   2.363  14.184 -1.2181 -0.5233 -0.7910
 1931TIP3    H227209   5.408   2.452  14.304  2.1523  0.2758 -0.7782
 1932TIP3   OH227210   1.799   4.545  14.114  0.4599  0.5799 -0.3383
 1932TIP3    H127211   1.879   4.537  14.165  0.7834  0.4438 -0.8680
 1932TIP3    H227212   1.762   4.630  14.140 -0.0248 -0.0334  1.0417
 1933TIP3   OH227213   0.774   4.212  11.432 -0.4430  0.1951 -0.2946
 1933TIP3    H127214   0.784   4.257  11.348 -0.8059 -3.1060 -2.2264
 1933TIP3    H227215   0.679   4.203  11.443 -0.3970  0.7066  0.5006
 1934TIP3   OH227216   5.547   1.621  10.843 -0.4648 -0.5177  0.2517
 1934TIP3    H127217   5.565   1.713  10.824 -0.6594 -0.6049 -0.3510
 1934TIP3    H227218   5.452   1.614  10.837 -0.6198 -0.3747  2.0365
 1935TIP3   OH227219   0.906   0.118   2.165  1.0604 -0.3727 -0.2264
 1935TIP3    H127220   0.952   0.200   2.149 -0.9571  0.9826  0.7075
 1935TIP3    H227221   0.891   0.081   2.078 -0.1034  1.4430 -0.8230
 1936TIP3   OH227222   1.114   2.895  13.604 -0.0294 -0.2129  0.5334
 1936TIP3    H127223   1.198   2.875  13.645  1.1587 -0.2983 -1.8186
 1936TIP3    H227224   1.119   2.987  13.581 -0.1339 -0.4596 -0.5358
 1937TIP3   OH227225   3.739   2.119   4.184  1.0050  0.0034 -0.3193
 1937TIP3    H127226   3.649   2.136   4.154  1.4101  1.0183 -0.9756
 1937TIP3    H227227   3.771   2.052   4.123  0.2882 -1.2728  0.6750
 1938TIP3   OH227228   0.768   4.422  10.392  0.0441  0.5086  0.0339
 1938TIP3    H127229   0.758   4.376  10.475 -0.9518  0.3051 -0.1957
 1938TIP3    H227230   0.709   4.497  10.399 -0.5971  0.0873 -0.7719
 1939TIP3   OH227231   6.340   1.293   1.512 -0.2068  0.1377  0.1530
 1939TIP3    H127232   6.353   1.332   1.599  0.2297  0.9199 -0.2569
 1939TIP3    H227233   6.379   1.356   1.452 -2.5163  0.6977 -0.8126
 1940TIP3   OH227234   0.307   5.966  13.846 -0.1605 -0.3253 -0.0336
 1940TIP3    H127235   0.396   5.992  13.873  0.2032 -1.2193 -0.3838
 1940TIP3    H227236   0.250   6.025  13.895  0.6680  1.1432 -0.7983
 1941TIP3   OH227237   1.488   5.146   5.139  0.0810  0.1477 -0.4846
 1941TIP3    H127238   1.427   5.079   5.169 -0.9937  0.4758 -1.8916
 1941TIP3    H227239   1.525   5.182   5.219 -2.5184  0.8392  0.4429
 1942TIP3   OH227240   0.159   2.516   3.103  0.1531 -0.1766 -0.0717
 1942TIP3    H127241   0.207   2.458   3.162 -0.3891 -0.4166  0.1314
 1942TIP3    H227242   0.166   2.602   3.144  0.3680 -0.2163 -0.0211
 1943TIP3   OH227243   2.120   1.251   3.437  0.2448 -0.2298 -0.2387
 1943TIP3    H127244   2.182   1.323   3.441  1.0353 -0.7981 -1.8585
 1943TIP3    H227245   2.163   1.185   3.384 -1.6199 -0.7367 -1.1766
 1944TIP3   OH227246   3.987   0.051   0.151  0.2293 -0.3742  0.0352
 1944TIP3    H127247   3.910  -0.006   0.148  1.8246 -2.8083  3.0899
 1944TIP3    H227248   4.037   0.027   0.073 -0.5114 -1.1086 -0.2204
 1945TIP3   OH227249   3.021   5.920  10.279  0.1224 -0.6350 -0.0287
 1945TIP3    H127250   2.980   5.835  10.295  0.4071 -0.9570 -0.9881
 1945TIP3    H227251   3.098   5.900  10.226  0.8333  0.1017  0.7227
 1946TIP3   OH227252   2.689   4.177  15.408  0.1178  0.0579  0.1126
 1946TIP3    H127253   2.661   4.259  15.449 -0.2162 -0.9377  1.9402
 1946TIP3    H227254   2.629   4.111  15.443  0.6434 -1.0491 -1.0130
 1947TIP3   OH227255   5.668   3.350   2.737  0.1572  0.0170 -0.2203
 1947TIP3    H127256   5.601   3.411   2.704 -0.1194  0.3019  0.8173
 1947TIP3    H227257   5.748   3.403   2.741  0.1445  0.0398 -0.2642
 1948TIP3   OH227258   3.735   2.719  11.762  0.0755 -0.0440  0.0110
 1948TIP3    H127259   3.738   2.814  11.767 -1.3410  0.0124  0.0660
 1948TIP3    H227260   3.750   2.699  11.669 -0.9444  0.2987 -0.2266
 1949TIP3   OH227261   1.689   3.144   5.077  0.2864 -0.7059  0.4857
 1949TIP3    H127262   1.674   3.050   5.082 -0.5642 -0.4845  2.3076
 1949TIP3    H227263   1.774   3.157   5.119  0.5678 -0.6855 -0.0781
 1950TIP3   OH227264   2.632   6.256  14.163  0.0632  0.4683 -0.0256
 1950TIP3    H127265   2.592   6.326  14.216 -0.4479  0.6093 -0.5877
 1950TIP3    H227266   2.706   6.298  14.119  0.2707  0.4407  0.2945
 1951TIP3   OH227267   6.560   4.028  11.566  0.1242 -0.0437  0.2512
 1951TIP3    H127268   6.490   4.051  11.506  0.3244  1.5164  0.6081
 1951TIP3    H227269   6.515   4.011  11.649  0.0140 -0.6322  0.0758
 1952TIP3   OH227270   1.357   3.927  15.457  0.0172 -0.3092  0.2160
 1952TIP3    H127271   1.430   3.878  15.495  0.5189  0.8793  0.8084
 1952TIP3    H227272   1.304   3.861  15.413  1.8688 -1.1117 -0.8954
 1953TIP3   OH227273   2.290   3.368  15.556 -0.3392 -0.1325 -0.4072
 1953TIP3    H127274   2.341   3.425  15.613 -1.7267 -0.9929  1.7653
 1953TIP3    H227275   2.232   3.426  15.508  0.6765  0.5700 -0.8174
 1954TIP3   OH227276   5.769   3.483  13.292 -0.2081 -0.1693  0.7830
 1954TIP3    H127277   5.758   3.553  13.227  0.4232  0.7761  1.6803
 1954TIP3    H227278   5.795   3.529  13.372  1.4585 -1.5457  1.0617
 1955TIP3   OH227279   2.275   0.676   4.422 -0.1579  0.1687  0.0797
 1955TIP3    H127280   2.320   0.751   4.382 -1.2113  0.8170  0.0793
 1955TIP3    H227281   2.254   0.706   4.510  2.3406 -1.3342  1.2413
 1956TIP3   OH227282   0.023   1.380   1.752 -0.0347 -0.3959 -0.0013
 1956TIP3    H127283  -0.025   1.433   1.689 -0.8645 -1.0662  0.0603
 1956TIP3    H227284   0.058   1.443   1.815 -1.2144  0.0614  0.2034
 1957TIP3   OH227285   4.125   4.332  13.130  0.3480  0.0883 -0.1272
 1957TIP3    H127286   4.178   4.308  13.206  0.6037 -0.0182 -0.3363
 1957TIP3    H227287   4.062   4.396  13.164 -1.5128 -2.1584  0.8136
 1958TIP3   OH227288   0.069   2.990  14.548  0.2845 -0.4866 -0.2889
 1958TIP3    H127289   0.152   3.034  14.567  0.8157 -0.5763 -2.3274
 1958TIP3    H227290   0.053   2.936  14.626  1.3480  0.6881  0.7842
 1959TIP3   OH227291   1.325   1.067   1.957  0.0170  0.3677  0.0592
 1959TIP3    H127292   1.268   1.006   1.912  1.3009  0.6719 -2.0289
 1959TIP3    H227293   1.297   1.154   1.928  1.1941  0.5406 -0.6035
 1960TIP3   OH227294   0.061   6.572   5.964  0.6304  0.0468  0.0056
 1960TIP3    H127295   0.121   6.559   6.037  0.6746 -2.1100 -0.3644
 1960TIP3    H227296   0.074   6.663   5.938  1.8249  0.3557  1.6043
 1961TIP3   OH227297   6.662   1.481   4.982  0.4040  0.2904  0.7020
 1961TIP3    H127298   6.708   1.428   5.047  0.6384  0.4658  0.6803
 1961TIP3    H227299   6.694   1.570   4.997 -1.5965  0.8049  2.1972
 1962TIP3   OH227300   6.782   4.627   0.419 -0.2855  1.1230 -0.8226
 1962TIP3    H127301   6.712   4.584   0.468  0.4790 -0.2039 -0.8546
 1962TIP3    H227302   6.740   4.700   0.374 -1.5166  0.7013 -0.3636
 1963TIP3   OH227303   6.530   0.814  14.439 -0.6203  0.4442 -0.0940
 1963TIP3    H127304   6.451   0.772  14.404  0.2787 -0.5511 -0.9943
 1963TIP3    H227305   6.555   0.760  14.514 -0.4461  0.3783 -0.1968
 1964TIP3   OH227306   1.822   0.245   1.997  0.7332 -0.5711 -0.0653
 1964TIP3    H127307   1.785   0.329   2.026 -1.0503 -1.7672  1.2788
 1964TIP3    H227308   1.839   0.257   1.904 -0.0413  1.0989 -0.0158
 1965TIP3   OH227309   3.210   0.397  15.959 -0.1274 -0.0162 -0.3305
 1965TIP3    H127310   3.193   0.492  15.958  1.2834  0.2257 -2.1663
 1965TIP3    H227311   3.129   0.358  15.927  0.4320  0.7763 -2.8121
 1966TIP3   OH227312   3.839   6.151  10.656  0.5173  0.2868 -0.7234
 1966TIP3    H127313   3.753   6.180  10.686  0.8587  0.4001  0.1599
 1966TIP3    H227314   3.900   6.211  10.698  1.1887 -1.2963  0.5961
 1967TIP3   OH227315   4.692   0.844   5.464 -0.3644  0.5211 -0.0092
 1967TIP3    H127316   4.703   0.887   5.549  1.1382 -0.0017  0.0867
 1967TIP3    H227317   4.701   0.751   5.483  0.1742  0.4144 -0.7660
 1968TIP3   OH227318   2.751   1.289   5.184  0.1425  0.3767 -0.3209
 1968TIP3    H127319   2.846   1.280   5.174 -0.0959 -2.0511 -0.9031
 1968TIP3    H227320   2.716   1.267   5.097 -1.0075 -0.3097  0.3008
 1969TIP3   OH227321   2.201   2.377  11.933 -0.1024  0.1226 -0.0583
 1969TIP3    H127322   2.130   2.436  11.961  0.1543 -0.3649  1.7232
 1969TIP3    H227323   2.160   2.291  11.926  0.1088  0.0023  0.1358
 1970TIP3   OH227324   3.697   3.989  16.977 -0.1926  0.6824  0.3654
 1970TIP3    H127325   3.719   4.067  16.926  0.3608  0.3689  0.1148
 1970TIP3    H227326   3.690   3.919  16.912 -0.3393  0.4547  0.6268
 1971TIP3   OH227327   0.981   1.610   0.189  0.0201  0.1609  0.6488
 1971TIP3    H127328   0.948   1.698   0.171 -1.4150 -0.8724 -2.1750
 1971TIP3    H227329   0.970   1.564   0.106  1.1705 -2.5535  1.9575
 1972TIP3   OH227330   6.464   6.451  14.287 -0.0676 -0.1278  0.2474
 1972TIP3    H127331   6.495   6.467  14.198  1.7806  0.8711  1.0200
 1972TIP3    H227332   6.381   6.406  14.277  1.0597 -1.7857 -1.9701
 1973TIP3   OH227333   1.201   4.818   1.423 -0.8307  0.2154 -0.4536
 1973TIP3    H127334   1.116   4.833   1.382  0.5545  2.6403 -2.6219
 1973TIP3    H227335   1.202   4.876   1.499 -2.2119 -2.0126  1.3247
 1974TIP3   OH227336   6.326   2.268  11.641 -0.0932  0.0782 -1.0459
 1974TIP3    H127337   6.323   2.330  11.713  1.7502 -1.5290  0.4951
 1974TIP3    H227338   6.330   2.322  11.562  0.3094  1.8870  0.1985
 1975TIP3   OH227339   0.808   5.106   1.630  1.3450 -0.2913 -0.0451
 1975TIP3    H127340   0.852   5.056   1.699  3.2252 -0.3702 -1.2690
 1975TIP3    H227341   0.758   5.040   1.581  2.3544 -0.7139 -0.5293
 1976TIP3   OH227342   4.508   5.453   2.764 -0.3669 -0.6600  0.0860
 1976TIP3    H127343   4.573   5.402   2.716 -0.9311 -0.3783 -0.9746
 1976TIP3    H227344   4.440   5.389   2.787 -0.7308 -0.5342 -0.6294
 1977TIP3   OH227345   4.727   5.374   1.022 -0.5329 -0.1584  0.6124
 1977TIP3    H127346   4.676   5.414   0.952  1.8745 -3.6881 -3.3578
 1977TIP3    H227347   4.673   5.301   1.053  0.6998 -2.0242 -1.5020
 1978TIP3   OH227348   4.519   3.917  15.180  0.0627 -0.0184 -0.0016
 1978TIP3    H127349   4.548   3.883  15.265 -1.9933  0.4936  0.9308
 1978TIP3    H227350   4.508   3.839  15.125 -0.3577 -0.5044  0.7618
 1979TIP3   OH227351   2.780   4.076   1.423 -0.0995  0.0316  0.2386
 1979TIP3    H127352   2.707   4.015   1.413  1.2426 -1.3284 -1.7764
 1979TIP3    H227353   2.792   4.085   1.517 -1.9802 -0.7954  0.5630
 1980TIP3   OH227354   6.515   5.110  14.587  0.1846 -0.0333  0.0595
 1980TIP3    H127355   6.513   5.025  14.631 -2.2922 -0.8790 -1.5405
 1980TIP3    H227356   6.487   5.173  14.653 -0.3783 -0.8331  0.5876
 1981TIP3   OH227357   1.920   3.527   6.498 -0.1231  0.2239 -0.2040
 1981TIP3    H127358   1.933   3.510   6.405  0.8637  1.1460 -0.2523
 1981TIP3    H227359   1.873   3.450   6.531 -1.1166  0.2024 -1.5975
 1982TIP3   OH227360   5.930   4.045  16.439 -0.3501  0.1787  0.8015
 1982TIP3    H127361   5.970   4.002  16.514 -0.2485 -0.9343  0.1286
 1982TIP3    H227362   5.941   3.983  16.367  0.7196  1.7693 -0.4435
 1983TIP3   OH227363   5.763   0.992  10.741  0.0415 -0.3632 -0.4080
 1983TIP3    H127364   5.691   0.929  10.743 -0.5407  0.3446  2.0702
 1983TIP3    H227365   5.737   1.060  10.804  0.9326  2.0630 -2.5603
 1984TIP3   OH227366   0.159   6.669  13.274 -0.1820 -0.5314  0.0155
 1984TIP3    H127367   0.130   6.730  13.342 -0.5359 -0.6303 -0.0437
 1984TIP3    H227368   0.181   6.589  13.320  0.6777 -0.2333  0.1395
 1985TIP3   OH227369   5.024   6.530  14.023  0.4225  0.0666 -0.1835
 1985TIP3    H127370   5.087   6.587  14.066 -0.7086  1.4523 -0.3502
 1985TIP3    H227371   5.075   6.483  13.957  1.3130  1.0013 -0.1579
 1986TIP3   OH227372   1.924   3.837   3.929 -0.4558  0.0443 -0.2120
 1986TIP3    H127373   1.914   3.746   3.956  1.4574 -0.0212  0.3780
 1986TIP3    H227374   1.940   3.885   4.011  0.0645  0.6766 -0.6756
 1987TIP3   OH227375   1.751   6.620  12.639 -0.4152  0.0084 -1.1689
 1987TIP3    H127376   1.666   6.619  12.683 -1.3370 -2.9094 -2.8456
 1987TIP3    H227377   1.783   6.530  12.647  2.3716  0.9898 -0.8495
 1988TIP3   OH227378   2.524   4.005  13.215 -0.3771 -0.3437  0.6777
 1988TIP3    H127379   2.504   3.913  13.201  0.6462 -0.4524 -0.1418
 1988TIP3    H227380   2.480   4.050  13.143  1.2633 -0.4658 -0.4315
 1989TIP3   OH227381   0.235   6.711   2.926 -0.1976  0.0555 -0.1958
 1989TIP3    H127382   0.213   6.804   2.934  0.4053  0.2567 -0.7984
 1989TIP3    H227383   0.256   6.700   2.833 -1.1660 -0.8849 -0.3033
 1990TIP3   OH227384   3.932   0.182  15.295  0.0239 -0.3230  0.4777
 1990TIP3    H127385   4.006   0.227  15.338  0.4879 -0.7673  0.1511
 1990TIP3    H227386   3.855   0.228  15.327  0.4316  0.0283  0.9737
 1991TIP3   OH227387   2.135   1.441   0.440 -1.2645 -0.0802  0.6177
 1991TIP3    H127388   2.226   1.411   0.441 -1.4201 -0.5878  2.4973
 1991TIP3    H227389   2.141   1.536   0.439 -0.7090 -0.1110  0.9802
 1992TIP3   OH227390   3.126   6.566   0.660  0.2860 -0.1988  0.0996
 1992TIP3    H127391   3.220   6.549   0.662  0.8727  2.8500  0.5509
 1992TIP3    H227392   3.118   6.661   0.665 -2.8370 -0.3957  0.1807
 1993TIP3   OH227393   3.215   1.308  13.374 -0.1478  0.1147  0.0999
 1993TIP3    H127394   3.234   1.265  13.291 -0.7738  0.1582 -0.0668
 1993TIP3    H227395   3.204   1.237  13.437 -1.3727  0.0198 -0.2153
 1994TIP3   OH227396   5.432   6.186   5.776  0.0107 -0.1831  0.1735
 1994TIP3    H127397   5.388   6.266   5.746 -1.5741  0.0823  3.0676
 1994TIP3    H227398   5.408   6.120   5.712 -1.0821  0.9647 -0.6226
 1995TIP3   OH227399   2.125   6.025  17.115 -0.3456  0.0482 -0.8811
 1995TIP3    H127400   2.176   6.076  17.052  0.0257 -0.5235 -1.0526
 1995TIP3    H227401   2.187   6.004  17.185 -1.2103  2.1753  0.5488
 1996TIP3   OH227402   2.791   3.811  11.459 -0.4969 -0.4634  0.3637
 1996TIP3    H127403   2.772   3.778  11.371  0.0829 -0.9285  0.4071
 1996TIP3    H227404   2.767   3.903  11.456  1.4544  0.0262 -0.8883
 1997TIP3   OH227405   0.533   1.829  12.677  0.8004  0.2166 -0.1428
 1997TIP3    H127406   0.609   1.814  12.620 -0.2403 -0.4726 -1.3994
 1997TIP3    H227407   0.490   1.906  12.640  1.7519  1.5934  1.5390
 1998TIP3   OH227408   1.068   1.273   1.141 -0.5019 -0.1804 -0.7688
 1998TIP3    H127409   1.029   1.207   1.199 -0.0722  0.1368 -0.1153
 1998TIP3    H227410   1.127   1.223   1.085 -1.0124 -0.5081 -1.0172
 1999TIP3   OH227411   0.196   3.951   0.074 -0.5079 -0.0566  0.0987
 1999TIP3    H127412   0.167   4.042   0.076 -0.7965 -0.1401 -0.2597
 1999TIP3    H227413   0.158   3.912   0.153 -1.0812 -0.0768 -0.1859
 2000TIP3   OH227414   6.721   4.148   1.394 -0.7606 -0.3965  0.8801
 2000TIP3    H127415   6.805   4.103   1.399 -1.2548 -1.9920 -2.8520
 2000TIP3    H227416   6.737   4.234   1.433  2.4947 -0.7955  0.5854
 2001TIP3   OH227417   2.075   5.347  16.901  0.4169  0.3345 -0.2045
 2001TIP3    H127418   2.109   5.286  16.967  2.1054  2.7087  1.1811
 2001TIP3    H227419   1.984   5.319  16.888  0.5697 -1.2762  1.8071
 2002TIP3   OH227420   3.400   4.614  15.822 -0.2795 -0.0171 -0.6836
 2002TIP3    H127421   3.326   4.635  15.765 -1.0975 -0.5801  0.1671
 2002TIP3    H227422   3.475   4.656  15.780 -1.3261  1.8003 -0.7844
 2003TIP3   OH227423   3.341   0.801  13.854  0.3379 -0.7820  0.3712
 2003TIP3    H127424   3.252   0.823  13.882  0.1472 -0.3970 -0.5292
 2003TIP3    H227425   3.388   0.783  13.936  0.3056  2.2578  1.1410
 2004TIP3   OH227426   4.953   3.695  16.357 -0.1634  0.4193  0.1289
 2004TIP3    H127427   4.933   3.605  16.332  0.2585  0.7318 -1.3677
 2004TIP3    H227428   4.929   3.747  16.281  1.6084  1.3496  0.1793
 2005TIP3   OH227429   1.207   5.334  14.208  0.3034 -1.0172  0.0365
 2005TIP3    H127430   1.197   5.417  14.161  1.2923  0.5780  2.5507
 2005TIP3    H227431   1.124   5.323  14.255  0.9425 -0.3504  1.3574
 2006TIP3   OH227432   2.912   3.917   3.564  0.4672 -0.0737  0.0280
 2006TIP3    H127433   2.902   4.012   3.571  1.5796  0.1043 -0.6442
 2006TIP3    H227434   2.904   3.900   3.470 -2.9263 -1.0357  0.4304
 2007TIP3   OH227435   3.673   3.198  10.753 -0.3650 -0.3055 -1.4472
 2007TIP3    H127436   3.662   3.262  10.683 -1.1049 -0.1803 -1.2139
 2007TIP3    H227437   3.706   3.120  10.709  0.3202  0.1553 -1.7642
 2008TIP3   OH227438   2.845   3.289   4.166 -0.3680 -0.0890  0.0910
 2008TIP3    H127439   2.885   3.262   4.083 -0.1397 -1.0649  0.5078
 2008TIP3    H227440   2.752   3.301   4.145 -0.7703 -2.7130  0.2170
 2009TIP3   OH227441   4.180   2.992   2.200  0.7254 -0.5101 -0.0475
 2009TIP3    H127442   4.152   2.966   2.288  1.2530 -2.7679 -0.5111
 2009TIP3    H227443   4.114   3.055   2.171 -0.7909 -1.5750  1.0288
 2010TIP3   OH227444   0.671   3.362  11.278 -0.4724  0.6405  0.2287
 2010TIP3    H127445   0.594   3.322  11.238  0.4181  0.5620 -1.4551
 2010TIP3    H227446   0.670   3.453  11.247 -1.0412  1.2353  1.9244
 2011TIP3   OH227447   0.255   3.885   1.131 -0.0523 -0.5766  0.3780
 2011TIP3    H127448   0.168   3.868   1.167  0.1939 -0.3125  1.1146
 2011TIP3    H227449   0.314   3.839   1.190  0.3822  0.1721  0.5303
 2012TIP3   OH227450   2.628   1.238   0.350  0.1700  0.1141 -0.2954
 2012TIP3    H127451   2.680   1.260   0.272  2.7927 -1.3066  0.9774
 2012TIP3    H227452   2.626   1.142   0.350 -0.7058  0.1296  0.8428
 2013TIP3   OH227453   4.767   3.983   6.326 -0.0500 -0.0736 -0.3591
 2013TIP3    H127454   4.684   4.006   6.369 -1.4294 -1.4638 -2.1939
 2013TIP3    H227455   4.755   4.010   6.235  1.0424 -1.4022 -0.9101
 2014TIP3   OH227456   5.201   6.173   4.206  0.1720 -0.0870  0.0986
 2014TIP3    H127457   5.236   6.235   4.142  2.3989  0.0862  1.4217
 2014TIP3    H227458   5.266   6.173   4.276 -1.4332 -1.4753  1.6168
 2015TIP3   OH227459   0.048   6.567   4.973  0.3857  0.4941  0.6754
 2015TIP3    H127460   0.119   6.583   5.035  1.3876 -1.3816  0.0457
 2015TIP3    H227461   0.086   6.585   4.887  0.3403 -1.3074  0.2742
 2016TIP3   OH227462   2.861   1.527  12.422  0.0660  0.2549 -0.1600
 2016TIP3    H127463   2.853   1.590  12.351  2.0682 -1.4274 -1.9491
 2016TIP3    H227464   2.952   1.536  12.452  0.1165 -1.1730  0.1429
 2017TIP3   OH227465   4.005   2.199   2.335 -0.1342 -0.5370  0.1977
 2017TIP3    H127466   4.081   2.209   2.392  0.6552 -2.4873 -0.4590
 2017TIP3    H227467   3.993   2.104   2.327 -2.7115 -0.2699  0.3801
 2018TIP3   OH227468   4.027   6.182   2.910 -0.1997  0.1835 -0.7925
 2018TIP3    H127469   3.980   6.190   2.993  1.5034 -1.4494  0.3817
 2018TIP3    H227470   3.978   6.236   2.849 -0.9609  2.1697  1.5143
 2019TIP3   OH227471   5.015   2.504   6.184 -0.1441  0.0188  0.3888
 2019TIP3    H127472   4.943   2.460   6.231  0.4649  0.4867  1.7680
 2019TIP3    H227473   5.083   2.516   6.250  1.3896 -0.8091 -1.0215
 2020TIP3   OH227474   6.189   5.610  12.495  0.3262 -0.3125  0.2515
 2020TIP3    H127475   6.174   5.628  12.402 -0.3606 -2.0417  0.0033
 2020TIP3    H227476   6.284   5.601  12.503  0.3021 -1.3843 -0.5297
 2021TIP3   OH227477   3.782   5.833   4.989 -0.1977 -0.2727  0.3043
 2021TIP3    H127478   3.874   5.845   5.014 -0.1602 -0.4260  0.2437
 2021TIP3    H227479   3.786   5.776   4.912 -0.3769 -0.8006  0.6847
 2022TIP3   OH227480   5.620   3.714  16.026 -0.5637 -0.2920  0.4965
 2022TIP3    H127481   5.680   3.756  15.964  0.6427 -2.2752  0.2980
 2022TIP3    H227482   5.604   3.781  16.093  1.2040  0.5459  0.1095
 2023TIP3   OH227483   4.279   4.954   4.546  0.2334  0.1318  0.3624
 2023TIP3    H127484   4.282   4.958   4.641  1.6691 -2.3261  0.4632
 2023TIP3    H227485   4.218   4.883   4.526 -1.3672  1.7374 -0.6041
 2024TIP3   OH227486   2.796   6.172  10.544 -0.0059 -0.3692  0.0311
 2024TIP3    H127487   2.755   6.257  10.531 -1.0889 -0.7594  0.8261
 2024TIP3    H227488   2.806   6.164  10.639 -1.2962 -1.7605  0.0728
 2025TIP3   OH227489   6.188   0.742   1.269  0.0576  0.0357  0.2690
 2025TIP3    H127490   6.232   0.744   1.184 -0.1404  1.0758  0.1858
 2025TIP3    H227491   6.102   0.705   1.250  0.5258 -1.0860  0.2679
 2026TIP3   OH227492   6.289   0.907   2.389 -0.3626  0.0077 -0.1391
 2026TIP3    H127493   6.256   0.833   2.339  2.0211 -0.7283 -0.6921
 2026TIP3    H227494   6.216   0.969   2.392 -1.8740 -1.7025 -0.9701
 2027TIP3   OH227495   1.632   4.452  10.889 -0.0211 -0.1372 -0.1881
 2027TIP3    H127496   1.716   4.454  10.844  1.2684 -1.7837  1.9781
 2027TIP3    H227497   1.612   4.358  10.898 -0.1080  0.1088  2.7440
 2028TIP3   OH227498   6.727   0.067  17.213  0.5119 -0.1878 -0.1478
 2028TIP3    H127499   6.710   0.157  17.185  1.8091  0.2757  0.5246
 2028TIP3    H227500   6.765   0.076  17.300  1.5493 -1.3309 -0.4735
 2029TIP3   OH227501   6.030   2.614   2.094  0.1351 -0.2187  0.0561
 2029TIP3    H127502   6.070   2.528   2.078  0.2678 -0.7788  3.1755
 2029TIP3    H227503   6.059   2.638   2.182  0.6608  3.3650 -1.0114
 2030TIP3   OH227504   5.503   0.844   1.602  0.0300  0.4774 -0.3695
 2030TIP3    H127505   5.581   0.892   1.572  0.2621  1.1994  1.3227
 2030TIP3    H227506   5.517   0.754   1.572  1.6058  0.5662  0.0403
 2031TIP3   OH227507   3.771   4.333  12.110 -0.3173 -0.0856  0.5548
 2031TIP3    H127508   3.834   4.382  12.164 -1.3131  2.3022 -0.3892
 2031TIP3    H227509   3.735   4.268  12.170 -0.0364  1.2974  2.2957
 2032TIP3   OH227510   3.149   2.872   0.903  0.3066 -0.4322  0.1731
 2032TIP3    H127511   3.134   2.965   0.921 -0.6114 -0.3353 -1.0232
 2032TIP3    H227512   3.077   2.827   0.945 -0.5236 -0.3989 -1.1776
 2033TIP3   OH227513   5.616   4.864  15.358  0.3778  0.0187  0.1647
 2033TIP3    H127514   5.654   4.854  15.271 -1.8557  0.0206 -0.8308
 2033TIP3    H227515   5.634   4.955  15.383 -0.9026  0.6761 -1.2500
 2034TIP3   OH227516   1.608   1.313  12.609  0.3613  0.8284  0.2260
 2034TIP3    H127517   1.564   1.364  12.677  1.9325  1.4798  0.7699
 2034TIP3    H227518   1.700   1.337  12.617  0.7158  0.0655 -1.4093
 2035TIP3   OH227519   4.214   0.051  11.884 -0.1907 -0.1304 -0.4993
 2035TIP3    H127520   4.298   0.006  11.896 -0.5851 -0.8836 -0.5049
 2035TIP3    H227521   4.175   0.051  11.971 -0.3022 -0.0144 -0.5508
 2036TIP3   OH227522   1.928   3.575   3.986 -0.2056  0.3362 -0.0151
 2036TIP3    H127523   1.915   3.498   3.930  0.8726  0.3155 -0.2463
 2036TIP3    H227524   1.928   3.539   4.075 -1.0024  0.2476 -0.0437
 2037TIP3   OH227525   3.674   0.704   4.307 -0.0567 -0.4205  0.9096
 2037TIP3    H127526   3.682   0.796   4.281 -1.8952 -0.4809 -0.0007
 2037TIP3    H227527   3.735   0.694   4.380  1.2222  1.1514  0.0967
 2038TIP3   OH227528   1.047   2.363   0.240 -0.3118 -0.0392 -0.0250
 2038TIP3    H127529   1.133   2.344   0.278 -0.2422 -0.3793 -0.3516
 2038TIP3    H227530   0.997   2.403   0.311 -0.4683 -1.4660  0.6801
 2039TIP3   OH227531   0.019   2.562  16.361 -0.9474 -0.1313 -0.3689
 2039TIP3    H127532   0.014   2.625  16.290  0.9037 -0.5927 -0.9458
 2039TIP3    H227533   0.072   2.605  16.428  0.9575 -1.3278 -1.0716
 2040TIP3   OH227534   5.567   2.185   0.488  0.2564 -0.8349  0.0406
 2040TIP3    H127535   5.518   2.259   0.525  1.7749  0.4410 -0.4286
 2040TIP3    H227536   5.500   2.120   0.468 -0.9147 -0.3958  2.2988
 2041TIP3   OH227537   2.800   5.695  16.942 -0.5527 -0.1891  0.7814
 2041TIP3    H127538   2.798   5.688  17.038 -1.9637  1.9379  0.9477
 2041TIP3    H227539   2.716   5.658  16.914  1.0136 -3.3827  0.1199
 2042TIP3   OH227540   5.594   4.513  14.223 -1.0539 -0.1331  0.0929
 2042TIP3    H127541   5.523   4.468  14.269 -2.2124  2.1649  0.5872
 2042TIP3    H227542   5.551   4.580  14.171  0.6555  0.4240 -0.6317
 2043TIP3   OH227543   6.629   1.822  15.104 -0.0373 -0.3616  0.2049
 2043TIP3    H127544   6.685   1.867  15.168 -0.0200  0.0398 -0.0908
 2043TIP3    H227545   6.544   1.866  15.112 -0.5314 -1.4709  1.1912
 2044TIP3   OH227546   5.163   4.322   5.429 -0.2197  0.2460  0.1153
 2044TIP3    H127547   5.168   4.349   5.338 -0.8505 -2.1273 -0.6764
 2044TIP3    H227548   5.250   4.288   5.449  0.0285  1.1110  0.5257
 2045TIP3   OH227549   2.095   4.502   4.183  0.0274  0.2641  0.1707
 2045TIP3    H127550   2.119   4.543   4.266  1.1398 -0.2430  0.1110
 2045TIP3    H227551   2.036   4.431   4.209 -0.4929  0.7907  0.4316
 2046TIP3   OH227552   2.460   5.838  14.239  0.4285 -0.3995  0.0991
 2046TIP3    H127553   2.449   5.905  14.172 -1.3059  0.7352  1.4749
 2046TIP3    H227554   2.419   5.760  14.202  1.1248 -0.3105 -0.8898
 2047TIP3   OH227555   3.095   0.777   6.111  0.8588 -0.4965  0.2323
 2047TIP3    H127556   3.111   0.832   6.188 -1.2234 -1.7672  1.6471
 2047TIP3    H227557   3.172   0.721   6.106  2.0630  1.1433 -0.0113
 2048TIP3   OH227558   4.364   4.368  14.656  0.3011  0.4309 -0.0558
 2048TIP3    H127559   4.292   4.335  14.603  0.0002  0.3706  0.3871
 2048TIP3    H227560   4.442   4.326  14.619  0.0277 -0.0709 -0.0744
 2049TIP3   OH227561   4.824   6.058  17.136  0.7610  0.3606 -0.1930
 2049TIP3    H127562   4.853   5.980  17.089  0.9200 -0.4906  1.2885
 2049TIP3    H227563   4.905   6.102  17.163  0.7057 -0.2542  1.0473
 2050TIP3   OH227564   5.462   2.647   0.612  0.6846 -0.1647 -0.0469
 2050TIP3    H127565   5.512   2.602   0.680  0.8860 -0.5501 -0.4446
 2050TIP3    H227566   5.485   2.740   0.622  1.7913 -0.3835 -0.4855
 2051TIP3   OH227567   0.104   3.957  12.543  0.3581 -0.4152 -0.2802
 2051TIP3    H127568   0.081   3.870  12.510 -0.8139 -0.2553  0.1089
 2051TIP3    H227569   0.052   3.968  12.622  1.1039  0.3197  0.1203
 2052TIP3   OH227570   5.839   1.391   0.677 -0.2671  0.4451  0.3689
 2052TIP3    H127571   5.745   1.407   0.671 -0.3024 -0.0953 -0.6545
 2052TIP3    H227572   5.864   1.361   0.590  0.4895 -1.3734  1.1931
 2053TIP3   OH227573   0.574   0.245  14.313 -0.2688 -0.5811 -0.9595
 2053TIP3    H127574   0.567   0.334  14.347 -0.5916 -0.6986 -0.7119
 2053TIP3    H227575   0.661   0.240  14.274 -0.5130  0.0588 -1.5970
 2054TIP3   OH227576   4.512   4.220   1.315 -0.7678 -0.1456  0.4282
 2054TIP3    H127577   4.579   4.276   1.275 -1.9554  1.3175  0.4205
 2054TIP3    H227578   4.559   4.143   1.345  0.9848  1.0224  0.7382
 2055TIP3   OH227579   0.549   5.397   1.226  0.9919  0.0213 -0.6929
 2055TIP3    H127580   0.563   5.413   1.319  0.6879 -0.1746 -0.6120
 2055TIP3    H227581   0.636   5.386   1.189  1.1799  1.2030 -0.6290
 2056TIP3   OH227582   0.981   2.212  11.038  0.0314  0.4094 -0.2071
 2056TIP3    H127583   0.961   2.305  11.047 -0.1554  0.2907  0.6726
 2056TIP3    H227584   0.999   2.200  10.945  0.6093  1.4347 -0.2365
 2057TIP3   OH227585   0.782   6.643  15.283 -0.1230 -0.1883 -0.4187
 2057TIP3    H127586   0.870   6.654  15.247  0.2576  0.7084  0.7435
 2057TIP3    H227587   0.743   6.730  15.279 -0.4091 -0.2663  0.4559
 2058TIP3   OH227588   2.379   1.150   1.363  0.1182 -0.6676  0.5084
 2058TIP3    H127589   2.446   1.155   1.295  0.5896 -0.4757  0.9843
 2058TIP3    H227590   2.304   1.111   1.320  0.0492  0.4620 -0.4100
 2059TIP3   OH227591   0.168   1.224   2.270 -0.1047  0.3689 -0.3482
 2059TIP3    H127592   0.123   1.183   2.344  1.3181  1.4120  1.1254
 2059TIP3    H227593   0.208   1.150   2.223  0.0327 -0.1886  0.6293
 2060TIP3   OH227594   5.144   6.179   5.971 -0.0195  0.0634  0.6714
 2060TIP3    H127595   5.055   6.151   5.991  0.6427 -3.1849 -0.6376
 2060TIP3    H227596   5.142   6.200   5.877  0.7810 -0.9717  0.4070
 2061TIP3   OH227597   3.670   6.613   0.848  0.1780 -0.3003  0.1994
 2061TIP3    H127598   3.706   6.676   0.785  1.7553 -0.6316  0.7380
 2061TIP3    H227599   3.679   6.528   0.804 -1.2348 -0.2354 -0.2172
 2062TIP3   OH227600   0.045   1.829  11.622  0.1273 -0.2638  0.5341
 2062TIP3    H127601  -0.006   1.843  11.702 -1.3408 -0.5773 -0.3185
 2062TIP3    H227602   0.043   1.734  11.608 -0.7380 -0.0964 -0.5739
 2063TIP3   OH227603   3.467   1.449  13.385 -0.4564  0.1277 -0.5707
 2063TIP3    H127604   3.378   1.414  13.385 -1.2572  1.9974  1.5936
 2063TIP3    H227605   3.501   1.430  13.472  0.3967  1.4290 -0.5938
 2064TIP3   OH227606   4.785   3.204   2.170  0.1626 -0.1426  0.0352
 2064TIP3    H127607   4.693   3.185   2.191  0.8127 -1.7226  1.4956
 2064TIP3    H227608   4.808   3.140   2.103  0.4497 -0.2726  0.2605
 2065TIP3   OH227609   0.148   2.135   0.825 -0.0130 -0.1372 -1.0508
 2065TIP3    H127610   0.111   2.155   0.911  1.3102 -0.6908 -0.3319
 2065TIP3    H227611   0.083   2.168   0.763 -0.5566  1.1471  0.1500
 2066TIP3   OH227612   2.589   3.358   4.169 -0.2067 -0.7968 -0.4100
 2066TIP3    H127613   2.531   3.282   4.167 -1.3845  0.0752  0.1375
 2066TIP3    H227614   2.532   3.432   4.148  0.2349  0.3426  2.1303
 2067TIP3   OH227615   1.490   4.269  17.126  0.2828 -0.6642  0.3470
 2067TIP3    H127616   1.491   4.176  17.152  1.0284 -0.4700  1.0211
 2067TIP3    H227617   1.542   4.272  17.046 -0.2512 -0.9239 -0.0158
 2068TIP3   OH227618   0.046   3.889   2.701 -0.6922 -0.7930 -0.0282
 2068TIP3    H127619   0.063   3.812   2.646 -0.6600 -1.4657  0.9218
 2068TIP3    H227620   0.032   3.854   2.789  1.1050  0.4228  0.7727
 2069TIP3   OH227621   3.129   1.627  12.463 -1.0660 -0.7326 -0.1418
 2069TIP3    H127622   3.150   1.534  12.472 -0.0447 -0.3638  1.5237
 2069TIP3    H227623   3.214   1.671  12.471 -1.7061  0.4111  0.4619
 2070TIP3   OH227624   6.078   0.229   4.894  0.7958  0.2889 -0.0860
 2070TIP3    H127625   6.050   0.290   4.826  1.4291  0.1674 -0.4549
 2070TIP3    H227626   6.173   0.224   4.885  0.6851 -1.4220 -0.6452
 2071TIP3   OH227627   1.557   2.673   1.869 -0.1170 -0.3696 -0.2068
 2071TIP3    H127628   1.596   2.608   1.810 -1.8048 -1.0374 -0.6128
 2071TIP3    H227629   1.506   2.621   1.931 -1.5119  0.5739 -0.5526
 2072TIP3   OH227630   4.208   5.290   0.209 -0.0126  0.2833  0.0677
 2072TIP3    H127631   4.187   5.296   0.302  0.0596 -0.5403  0.1425
 2072TIP3    H227632   4.302   5.271   0.207 -0.3685 -1.4753 -0.1227
 2073TIP3   OH227633   3.678   4.385  15.114 -0.3520 -0.5171 -0.0588
 2073TIP3    H127634   3.637   4.356  15.033  0.1217 -0.2560 -0.3941
 2073TIP3    H227635   3.621   4.351  15.183 -1.9418  1.0555 -0.5410
 2074TIP3   OH227636   3.211   3.578  11.864 -0.2150 -0.1016 -0.3388
 2074TIP3    H127637   3.230   3.657  11.914  0.7842 -0.6177  0.1228
 2074TIP3    H227638   3.287   3.521  11.880 -0.8959 -1.1278 -0.7065
 2075TIP3   OH227639   3.260   1.034  11.515 -0.2246  0.3522 -0.4250
 2075TIP3    H127640   3.202   1.101  11.478 -0.0631  0.3438 -0.6974
 2075TIP3    H227641   3.337   1.083  11.544 -0.9806  0.5651  1.2941
 2076TIP3   OH227642   1.494   0.622  15.586  0.3502  0.7792  0.4463
 2076TIP3    H127643   1.486   0.699  15.528 -2.7059  0.2296  0.0406
 2076TIP3    H227644   1.466   0.549  15.532 -0.2491 -0.0923  1.9235
 2077TIP3   OH227645   1.256   5.680  11.314 -0.5354  0.3680  0.0901
 2077TIP3    H127646   1.339   5.673  11.361 -0.6917 -1.0206  0.1551
 2077TIP3    H227647   1.196   5.623  11.362 -0.8746 -0.5206 -1.3739
 2078TIP3   OH227648   6.211   0.684  12.139  0.1536 -0.4206  0.5452
 2078TIP3    H127649   6.144   0.616  12.150 -0.2280 -0.0596  0.4478
 2078TIP3    H227650   6.252   0.663  12.056  1.0506 -1.4129  1.2179
 2079TIP3   OH227651   0.141   5.177   3.912 -0.0408 -0.7044  0.3312
 2079TIP3    H127652   0.047   5.161   3.901  0.0421 -0.4149 -0.9133
 2079TIP3    H227653   0.183   5.098   3.880  0.1985  0.0122 -1.1909
 2080TIP3   OH227654   1.372   4.581   3.922  0.1505  0.3704  0.0864
 2080TIP3    H127655   1.287   4.564   3.962  0.4358 -0.6835  0.2568
 2080TIP3    H227656   1.409   4.652   3.974 -0.7825  1.0995 -0.2276
 2081TIP3   OH227657   6.262   3.826   5.943  0.2439  0.1295  0.0701
 2081TIP3    H127658   6.185   3.779   5.976 -0.6869  1.3010 -0.3999
 2081TIP3    H227659   6.296   3.872   6.019  0.5381 -0.4450  0.2944
 2082TIP3   OH227660   0.237   5.920   0.047  0.0259 -0.4104 -0.3359
 2082TIP3    H127661   0.236   5.858  -0.026 -1.3127 -1.8972  0.8820
 2082TIP3    H227662   0.191   5.874   0.117 -0.5790  1.8064  0.7658
 2083TIP3   OH227663   3.712   5.744  15.016  0.0872  0.3473 -0.4733
 2083TIP3    H127664   3.750   5.759  15.102  3.1124  0.4844 -1.7670
 2083TIP3    H227665   3.730   5.651  14.998 -2.2459 -0.2047 -0.1991
 2084TIP3   OH227666   4.294   6.708  13.662  0.3163 -0.7574  0.0983
 2084TIP3    H127667   4.377   6.685  13.620  0.7638  0.9943 -0.0191
 2084TIP3    H227668   4.320   6.748  13.746 -0.3395  0.8432 -0.4425
 2085TIP3   OH227669   2.677   3.945   4.928  0.5074 -0.3135  0.1685
 2085TIP3    H127670   2.601   3.986   4.887  0.8719  0.7687  0.5384
 2085TIP3    H227671   2.651   3.855   4.944  0.0480 -0.5052 -1.5991
 2086TIP3   OH227672   4.839   4.569  13.828 -0.2127 -0.3606  0.1239
 2086TIP3    H127673   4.868   4.555  13.738 -0.9933  1.0563 -0.3807
 2086TIP3    H227674   4.836   4.664  13.837  0.6101 -0.4874  1.9167
 2087TIP3   OH227675   5.379   4.553   6.305  0.7107  0.3871 -0.4248
 2087TIP3    H127676   5.299   4.593   6.339 -0.2389  0.2414 -2.4178
 2087TIP3    H227677   5.418   4.620   6.250  0.2232 -0.6228 -2.0686
 2088TIP3   OH227678   2.955   3.875   1.452 -0.5259 -0.4082 -0.5675
 2088TIP3    H127679   2.906   3.954   1.428 -0.6148 -0.5493 -0.8584
 2088TIP3    H227680   2.978   3.887   1.544  2.6094  1.6123 -1.5590
 2089TIP3   OH227681   1.352   1.369   5.264 -0.0799 -0.1694  0.4399
 2089TIP3    H127682   1.333   1.380   5.357 -0.8544  0.3586  0.2215
 2089TIP3    H227683   1.313   1.285   5.240  0.6833 -0.6184  0.7319
 2090TIP3   OH227684   0.343   1.096  14.972 -0.6985 -0.1265  0.4536
 2090TIP3    H127685   0.304   1.182  14.962  0.6892  0.4489 -0.1362
 2090TIP3    H227686   0.301   1.060  15.050 -0.9223  1.2760  0.9976
 2091TIP3   OH227687   3.652   5.626   3.522  0.4381  0.3493  0.1708
 2091TIP3    H127688   3.666   5.538   3.487  1.1910  1.8164 -3.4301
 2091TIP3    H227689   3.567   5.653   3.488  1.1994  1.8296 -0.6093
 2092TIP3   OH227690   0.944   2.482  16.114  0.0637  1.0209  0.2248
 2092TIP3    H127691   0.914   2.547  16.050  0.7308  0.1128 -1.0377
 2092TIP3    H227692   0.877   2.414  16.111  0.7452  0.3697 -0.4665
 2093TIP3   OH227693   4.464   5.624  15.655 -0.1878 -0.2249  0.4469
 2093TIP3    H127694   4.461   5.688  15.727 -1.5773  1.5327 -1.1264
 2093TIP3    H227695   4.549   5.640  15.613 -0.0098 -0.2548  0.7858
 2094TIP3   OH227696   4.714   2.201  12.848 -0.2837 -0.7212 -0.6590
 2094TIP3    H127697   4.709   2.107  12.862 -0.7135 -0.6699 -0.4610
 2094TIP3    H227698   4.779   2.231  12.911 -0.4318 -0.8301 -0.4554
 2095TIP3   OH227699   1.284   4.353  14.081  0.2163 -0.2866  0.1892
 2095TIP3    H127700   1.338   4.338  14.004  0.7558 -0.1951  0.5470
 2095TIP3    H227701   1.206   4.398  14.047  0.1642 -0.8075 -0.3871
 2096TIP3   OH227702   0.266   4.418  15.026  0.2177 -0.2887  0.3091
 2096TIP3    H127703   0.275   4.487  14.961  0.6599  0.4227  1.1164
 2096TIP3    H227704   0.291   4.338  14.980  0.0769  0.1471 -0.5180
 2097TIP3   OH227705   4.424   6.779  11.431  0.7002 -0.6263 -0.1969
 2097TIP3    H127706   4.338   6.775  11.390  0.4592 -0.0445  0.2552
 2097TIP3    H227707   4.481   6.817  11.364  0.1830  0.8875  0.2255
 2098TIP3   OH227708   2.732   6.593   0.665 -0.3260 -0.2602  0.3102
 2098TIP3    H127709   2.774   6.522   0.713 -1.4971 -2.1793 -1.4081
 2098TIP3    H227710   2.803   6.652   0.641  0.6139 -0.6417  2.0864
 2099TIP3   OH227711   6.297   5.966  11.455 -0.1746  0.0337 -0.1292
 2099TIP3    H127712   6.232   5.898  11.473  0.2019 -0.1632  0.4581
 2099TIP3    H227713   6.249   6.031  11.404 -1.2868  0.6980  1.7251
 2100TIP3   OH227714   1.556   0.282   4.313 -0.2764  0.0330 -0.0168
 2100TIP3    H127715   1.531   0.190   4.316 -0.1329 -0.0691 -1.5061
 2100TIP3    H227716   1.473   0.330   4.315 -0.3288 -0.0874  1.4318
 2101TIP3   OH227717   5.426   3.843  15.255 -0.2015 -0.1222 -0.5790
 2101TIP3    H127718   5.510   3.815  15.291 -0.5274 -0.3657  0.0007
 2101TIP3    H227719   5.371   3.765  15.259 -0.2724 -0.1164 -1.5043
 2102TIP3   OH227720   0.357   1.435   2.305  0.1702 -0.5129  0.0474
 2102TIP3    H127721   0.298   1.360   2.318  1.1441 -1.5413 -1.3313
 2102TIP3    H227722   0.434   1.398   2.263 -0.5281  1.7228 -3.3983
 2103TIP3   OH227723   0.658   4.860   2.030 -0.6346 -0.1697 -0.5936
 2103TIP3    H127724   0.583   4.845   2.087  0.3877 -0.4761  0.6882
 2103TIP3    H227725   0.659   4.955   2.015 -1.5508 -0.2174 -1.0248
 2104TIP3   OH227726   4.205   4.681  13.990 -0.4247 -0.0955 -0.2929
 2104TIP3    H127727   4.129   4.700  13.936 -0.3341  0.6486 -0.1601
 2104TIP3    H227728   4.179   4.705  14.079  0.2630  1.0097 -0.3817
 2105TIP3   OH227729   3.344   6.771   0.659 -0.6790  0.7336 -0.1368
 2105TIP3    H127730   3.378   6.844   0.608  0.0010 -0.2484 -1.1377
 2105TIP3    H227731   3.411   6.755   0.725  0.3813 -0.5181 -1.4470
 2106TIP3   OH227732   4.758   5.457  13.183  0.1498 -0.0146 -0.2548
 2106TIP3    H127733   4.811   5.514  13.238  1.0168 -3.3671  2.5560
 2106TIP3    H227734   4.802   5.372  13.187 -3.4004 -1.9798 -0.8819
 2107TIP3   OH227735   2.888   6.429   2.480  0.9301 -0.2412 -0.0449
 2107TIP3    H127736   2.842   6.366   2.425  0.7173  1.0378 -1.3810
 2107TIP3    H227737   2.918   6.497   2.419  2.7243  0.0499  1.0938
 2108TIP3   OH227738   6.534   1.506   4.538  0.0132  0.2087 -0.4585
 2108TIP3    H127739   6.629   1.499   4.550  0.1205  0.9857 -0.7855
 2108TIP3    H227740   6.497   1.477   4.621  0.5863  1.0513  0.1058
 2109TIP3   OH227741   1.948   0.746   0.198 -0.2731  0.2625 -0.1455
 2109TIP3    H127742   1.898   0.665   0.187 -0.5134  0.4105 -0.1513
 2109TIP3    H227743   2.001   0.752   0.118 -0.2479  0.1051 -0.1399
 2110TIP3   OH227744   0.287   2.010  13.595 -0.7780 -0.1461  0.3883
 2110TIP3    H127745   0.317   2.043  13.510  1.2139 -2.1711  0.2750
 2110TIP3    H227746   0.261   2.089  13.643  1.3155  1.3456 -0.8444
 2111TIP3   OH227747   3.968   1.521   0.774  0.4224 -0.1514  0.2158
 2111TIP3    H127748   3.920   1.602   0.790 -0.1502 -0.5383  0.4751
 2111TIP3    H227749   4.031   1.515   0.845  1.6411  0.9327 -0.7431
 2112TIP3   OH227750   3.685   3.241  13.670 -0.6341 -0.5077 -0.1339
 2112TIP3    H127751   3.654   3.206  13.754  0.2095 -0.4519  0.2017
 2112TIP3    H227752   3.696   3.335  13.684 -0.5871 -0.4813 -0.3358
 2113TIP3   OH227753   0.168   1.404  15.751 -0.0340 -0.0061  0.5125
 2113TIP3    H127754   0.248   1.430  15.796  0.6958 -2.5117  0.7372
 2113TIP3    H227755   0.169   1.309  15.754 -2.1538 -0.1073 -1.0495
 2114TIP3   OH227756   5.310   3.680   4.568 -0.1288  0.5552  0.4054
 2114TIP3    H127757   5.300   3.771   4.598 -0.8110  0.3215  0.9222
 2114TIP3    H227758   5.333   3.631   4.647 -1.4107  0.0158  0.4567
 2115TIP3   OH227759   1.647   2.210  13.532  0.5678  0.4503  0.1847
 2115TIP3    H127760   1.586   2.280  13.509 -1.3722 -1.3991 -0.4221
 2115TIP3    H227761   1.733   2.243  13.505 -0.4342  2.2319 -0.8905
 2116TIP3   OH227762   2.427   3.128   2.087  0.2789 -0.2046  0.2362
 2116TIP3    H127763   2.391   3.086   2.165  1.3079  0.3151  1.0031
 2116TIP3    H227764   2.356   3.182   2.053 -0.6368 -1.5539 -0.0099
 2117TIP3   OH227765   1.126   5.419  12.820 -0.1660  0.3440 -0.0767
 2117TIP3    H127766   1.164   5.491  12.769  0.3962  0.1615  0.0790
 2117TIP3    H227767   1.056   5.385  12.764 -0.7264  1.2839  0.0323
 2118TIP3   OH227768   0.052   1.761   2.484 -0.0674  0.2464  0.7605
 2118TIP3    H127769   0.135   1.773   2.437 -0.6262  1.1397 -0.0491
 2118TIP3    H227770   0.016   1.850   2.489 -0.5868 -0.0264  1.8264
 2119TIP3   OH227771   1.828   1.543   0.730 -0.2809  0.4590  0.3506
 2119TIP3    H127772   1.830   1.564   0.637  0.2671 -1.2616 -0.0317
 2119TIP3    H227773   1.815   1.628   0.773  0.6270  1.4134 -1.2213
 2120TIP3   OH227774   2.692   0.568   6.019  0.4360 -0.0538 -0.6185
 2120TIP3    H127775   2.616   0.513   5.998  0.7618 -1.4984  1.8209
 2120TIP3    H227776   2.660   0.626   6.088  1.0226  0.6423 -0.9301
 2121TIP3   OH227777   4.103   2.335  16.967 -0.2678  0.5849  0.0833
 2121TIP3    H127778   4.154   2.342  16.886  0.5683  0.2715  0.5738
 2121TIP3    H227779   4.136   2.405  17.022 -0.9685  0.9156  0.0872
 2122TIP3   OH227780   3.501   6.749  15.881 -0.6126  0.4181  0.2770
 2122TIP3    H127781   3.463   6.718  15.963  0.0996  0.1927  0.5233
 2122TIP3    H227782   3.426   6.780  15.831 -1.2089 -0.6640  0.4721
 2123TIP3   OH227783   0.256   4.680   0.862  0.0783  0.5442 -0.1595
 2123TIP3    H127784   0.202   4.743   0.815 -0.6393  0.2964  0.3264
 2123TIP3    H227785   0.248   4.598   0.812  0.5550  0.6837 -0.4700
 2124TIP3   OH227786   3.712   0.370   5.902 -0.1094 -0.1509 -0.4770
 2124TIP3    H127787   3.753   0.311   5.965  1.1482  1.7354  0.5194
 2124TIP3    H227788   3.624   0.384   5.935 -1.2499 -3.2569 -1.9687
 2125TIP3   OH227789   0.145   5.528  13.242 -0.2835  0.3353 -0.1148
 2125TIP3    H127790   0.106   5.587  13.306  1.0724  0.2384  0.8457
 2125TIP3    H227791   0.236   5.559  13.234  0.0838 -0.8339 -0.5514
 2126TIP3   OH227792   6.223   0.485   5.550  0.6149 -0.7366  0.1737
 2126TIP3    H127793   6.195   0.393   5.545 -1.2957 -0.3573  2.9569
 2126TIP3    H227794   6.151   0.534   5.511  1.2331 -0.3485 -0.4825
 2127TIP3   OH227795   4.405   5.792  14.788 -0.4833  0.4147  0.1568
 2127TIP3    H127796   4.367   5.880  14.790  1.1261  1.2618 -3.3101
 2127TIP3    H227797   4.500   5.807  14.795 -0.2460 -1.1148  0.3397
 2128TIP3   OH227798   2.682   0.695   1.064 -0.8634 -0.3485 -0.2859
 2128TIP3    H127799   2.699   0.673   1.155  0.7173 -2.0770 -0.9579
 2128TIP3    H227800   2.756   0.658   1.016 -0.3947  2.6835 -2.0200
 2129TIP3   OH227801   2.845   4.674  15.536 -0.1423 -0.5056  0.5404
 2129TIP3    H127802   2.922   4.728  15.517 -0.4793  0.8208  2.7186
 2129TIP3    H227803   2.780   4.703  15.473  0.3163  0.2598  0.4097
 2130TIP3   OH227804   5.716   4.661  11.325 -0.2162  0.6024 -0.0804
 2130TIP3    H127805   5.809   4.642  11.318  0.1991  2.2191  0.7126
 2130TIP3    H227806   5.686   4.606  11.397  0.5672  1.5495  0.9868
 2131TIP3   OH227807   6.510   5.764   1.612 -0.2256  0.0664  0.5473
 2131TIP3    H127808   6.536   5.728   1.527  0.0960 -1.0117  1.0938
 2131TIP3    H227809   6.433   5.713   1.637 -1.5839  1.7759 -0.0443
 2132TIP3   OH227810   5.683   3.159   5.512 -0.3421 -0.8187 -0.0922
 2132TIP3    H127811   5.593   3.130   5.496 -0.4638 -1.1353  1.1509
 2132TIP3    H227812   5.711   3.195   5.428 -1.2957 -1.6050 -0.7628
 2133TIP3   OH227813   3.870   4.397  11.394 -0.2616  0.7934 -0.7388
 2133TIP3    H127814   3.944   4.428  11.342  0.4563 -0.9512 -0.7927
 2133TIP3    H227815   3.906   4.386  11.482 -0.6339  0.6649 -0.6031
 2134TIP3   OH227816   5.148   4.326   2.827 -0.2971 -0.4738 -0.1974
 2134TIP3    H127817   5.093   4.261   2.870 -1.2916 -0.9331 -2.0879
 2134TIP3    H227818   5.237   4.292   2.835 -0.7138 -1.6431 -0.4184
 2135TIP3   OH227819   1.973   4.679   3.401  0.2894 -0.0011 -0.2052
 2135TIP3    H127820   2.026   4.740   3.350  0.0679  1.0300  0.7780
 2135TIP3    H227821   1.888   4.679   3.359  1.0364 -1.6433 -1.7802
 2136TIP3   OH227822   3.728   2.464  16.224 -0.7034  0.0151  0.0134
 2136TIP3    H127823   3.661   2.514  16.178 -2.0738 -1.0639  0.7736
 2136TIP3    H227824   3.725   2.377  16.183  0.9215  0.2449 -0.6056
 2137TIP3   OH227825   0.071   4.376   3.228  0.0760  0.1444  0.0127
 2137TIP3    H127826   0.081   4.410   3.317 -2.4358 -1.9980  1.2008
 2137TIP3    H227827   0.129   4.300   3.226  1.1421  0.9767 -0.6259
 2138TIP3   OH227828   6.661   0.168   1.321  0.2976  0.1409  0.1182
 2138TIP3    H127829   6.610   0.189   1.243 -1.0064 -0.1667  0.8681
 2138TIP3    H227830   6.633   0.233   1.386 -0.6818 -1.3087  1.1654
 2139TIP3   OH227831   6.145   6.338  11.872  1.2129 -0.1766  0.5645
 2139TIP3    H127832   6.091   6.261  11.852  1.7496 -0.2304 -0.6765
 2139TIP3    H227833   6.228   6.301  11.901  1.5502 -0.0703 -0.2541
 2140TIP3   OH227834   4.063   6.002  12.569 -0.3359  0.1895 -0.2675
 2140TIP3    H127835   3.989   5.947  12.594 -0.8184  0.7859 -0.3729
 2140TIP3    H227836   4.024   6.088  12.553  0.3970  0.5320 -0.2087
 2141TIP3   OH227837   3.304   2.522   5.720  0.2872 -1.0222 -0.0369
 2141TIP3    H127838   3.374   2.510   5.785  0.0836  0.5854  0.4977
 2141TIP3    H227839   3.249   2.590   5.757  0.5401  0.4025 -2.2288
 2142TIP3   OH227840   4.919   3.274  14.834 -0.0195  0.4219  0.8844
 2142TIP3    H127841   4.833   3.309  14.814  0.0755  0.1130 -0.0551
 2142TIP3    H227842   4.976   3.308  14.765  0.2280 -0.9355  0.4037
 2143TIP3   OH227843   1.244   5.636   5.366 -0.2312  0.0617 -0.3527
 2143TIP3    H127844   1.236   5.650   5.272  1.2285 -2.5014 -0.9146
 2143TIP3    H227845   1.268   5.721   5.402  1.4131  0.5629 -2.5777
 2144TIP3   OH227846   4.208   2.277  15.665 -0.4561  0.0385  0.0203
 2144TIP3    H127847   4.143   2.222  15.710  0.3647 -0.4345  0.6364
 2144TIP3    H227848   4.219   2.353  15.723 -0.2560 -0.0138  0.0524
 2145TIP3   OH227849   4.707   1.894   5.709  0.4940  0.2851  0.3937
 2145TIP3    H127850   4.724   1.870   5.618 -1.0620 -1.4227  0.5238
 2145TIP3    H227851   4.710   1.989   5.710 -1.0290  0.3922 -1.7851
 2146TIP3   OH227852   0.450   2.411  15.655  0.2802  0.4575 -0.2359
 2146TIP3    H127853   0.543   2.422  15.673  0.6592  2.0331 -2.8949
 2146TIP3    H227854   0.444   2.326  15.611  0.6447  0.8412 -1.0464
 2147TIP3   OH227855   4.317   3.220   3.428 -0.2963  1.0312 -0.0785
 2147TIP3    H127856   4.384   3.286   3.446 -0.6420  1.3059  0.2287
 2147TIP3    H227857   4.354   3.165   3.359  1.0143  0.0588  1.3648
 2148TIP3   OH227858   4.795   1.908   2.613  0.2531  0.1840  0.2695
 2148TIP3    H127859   4.888   1.928   2.597 -0.2985  1.4495 -1.4688
 2148TIP3    H227860   4.782   1.927   2.705  1.0827  2.6423 -0.0794
 2149TIP3   OH227861   1.492   2.379   1.496  0.0120  0.2220  0.2316
 2149TIP3    H127862   1.537   2.437   1.557 -2.0439  0.3749  1.6424
 2149TIP3    H227863   1.497   2.293   1.537 -2.3671  0.5261  1.2031
 2150TIP3   OH227864   0.837   2.724  12.735  0.1078  0.1549 -0.6837
 2150TIP3    H127865   0.795   2.656  12.683  1.5231  0.1100 -1.8018
 2150TIP3    H227866   0.820   2.805  12.687  0.1671  0.3138 -0.4385
 2151TIP3   OH227867   5.882   2.042  11.310  0.6610 -0.6178 -0.0673
 2151TIP3    H127868   5.948   1.987  11.268  0.0927 -1.6787  0.3916
 2151TIP3    H227869   5.800   1.994  11.298  0.0136  0.5458 -0.3870
 2152TIP3   OH227870   5.039   4.426   5.057 -0.7730 -0.6352 -0.2830
 2152TIP3    H127871   5.024   4.333   5.077 -0.3895 -0.6964 -0.2791
 2152TIP3    H227872   5.120   4.427   5.007  0.9793  0.0247  2.5036
 2153TIP3   OH227873   2.965   3.269   3.936  0.1676 -0.1467  0.1680
 2153TIP3    H127874   3.014   3.198   3.894 -0.1270 -0.2325 -0.0326
 2153TIP3    H227875   3.000   3.348   3.896  0.4108 -0.1859  0.3010
 2154TIP3   OH227876   4.942   3.247   3.422  0.4299 -0.1526 -0.4217
 2154TIP3    H127877   5.013   3.276   3.479  0.0341  0.5357 -0.2789
 2154TIP3    H227878   4.983   3.182   3.365  0.8878 -0.6682  0.4761
 2155TIP3   OH227879   2.366   5.547  13.096  0.4934 -0.3362 -0.0061
 2155TIP3    H127880   2.436   5.590  13.145  0.3554  0.1799 -0.2552
 2155TIP3    H227881   2.290   5.551  13.154  0.5042 -0.3328  0.0087
 2156TIP3   OH227882   3.546   4.221  13.648 -0.0784  0.1431 -0.4737
 2156TIP3    H127883   3.570   4.287  13.582 -0.4027 -0.8068 -1.5705
 2156TIP3    H227884   3.595   4.143  13.622 -1.7336 -0.8299 -0.7685
 2157TIP3   OH227885   4.688   0.968   2.892  0.1420 -0.1448 -0.6634
 2157TIP3    H127886   4.596   0.945   2.910  0.2651 -0.7211 -0.7654
 2157TIP3    H227887   4.732   0.884   2.883  0.9207  0.1232  0.5696
 2158TIP3   OH227888   3.218   3.557   4.281  0.0680  0.1215  0.0152
 2158TIP3    H127889   3.204   3.547   4.187  0.4842 -1.7258  0.1255
 2158TIP3    H227890   3.244   3.470   4.311 -0.6171  0.5511  1.9415
 2159TIP3   OH227891   6.436   6.165  15.421  0.1414 -0.2260  0.1824
 2159TIP3    H127892   6.449   6.241  15.365 -1.5448  0.1941  0.3398
 2159TIP3    H227893   6.524   6.142  15.452  0.6088  1.9102  0.4846
 2160TIP3   OH227894   3.162   5.140   1.645  0.2545 -0.1729  0.1248
 2160TIP3    H127895   3.115   5.211   1.689 -0.9654 -0.7687 -0.1770
 2160TIP3    H227896   3.219   5.184   1.582  0.0261  0.5634  0.4278
 2161TIP3   OH227897   0.896   1.326   6.522 -0.1248  0.2560 -0.2635
 2161TIP3    H127898   0.980   1.280   6.529  0.1886  0.8851  0.2346
 2161TIP3    H227899   0.880   1.332   6.428  0.7424  0.7583 -0.3871
 2162TIP3   OH227900   0.763   5.015  13.833  0.2606 -0.1732  0.1152
 2162TIP3    H127901   0.827   5.082  13.807  0.0008 -0.1730 -0.5317
 2162TIP3    H227902   0.773   4.946  13.768 -0.1273 -0.3440  0.2371
 2163TIP3   OH227903   5.549   2.429  14.741 -0.0251  0.0876 -0.3141
 2163TIP3    H127904   5.561   2.344  14.784 -0.8388  0.2843  0.3177
 2163TIP3    H227905   5.637   2.457  14.718  0.3681 -0.3054  0.6944
 2164TIP3   OH227906   3.454   4.165   6.135 -0.2396  0.5689 -0.5485
 2164TIP3    H127907   3.409   4.250   6.135  0.7697  1.1468  1.9437
 2164TIP3    H227908   3.425   4.122   6.216  2.0131  0.0867  0.0534
 2165TIP3   OH227909   2.061   2.349   4.080 -0.1079  0.2839  0.5908
 2165TIP3    H127910   2.010   2.426   4.105  0.8979  0.7484  1.2465
 2165TIP3    H227911   1.997   2.291   4.038 -1.2682  0.6493  1.8161
 2166TIP3   OH227912   4.800   1.033  12.046  0.2474  0.5495  0.2626
 2166TIP3    H127913   4.770   0.996  12.129  0.3304 -0.7894 -0.2914
 2166TIP3    H227914   4.755   1.117  12.039 -2.5555 -0.9275 -0.0373
 2167TIP3   OH227915   3.120   3.399   0.552  0.1160  0.4873  0.1283
 2167TIP3    H127916   3.154   3.372   0.637  0.1526 -0.5972 -0.2183
 2167TIP3    H227917   3.124   3.320   0.498  2.0498  1.6589 -1.5075
 2168TIP3   OH227918   2.275   4.474   1.889  0.5209  0.1312 -0.2823
 2168TIP3    H127919   2.228   4.489   1.807  0.4015  0.3916 -0.1688
 2168TIP3    H227920   2.207   4.463   1.955  0.6115  0.9509 -0.0392
 2169TIP3   OH227921   4.849   1.246   6.253 -0.2597  0.0568 -0.1509
 2169TIP3    H127922   4.868   1.236   6.159 -1.2266  1.3042 -0.4919
 2169TIP3    H227923   4.793   1.171   6.274 -0.2143 -0.1125 -0.6129
 2170TIP3   OH227924   1.690   5.434  14.901  0.7198  0.1176  0.1695
 2170TIP3    H127925   1.721   5.507  14.955  1.7530  0.7469 -1.2365
 2170TIP3    H227926   1.595   5.445  14.899  0.7077  0.2802  1.5840
 2171TIP3   OH227927   5.964   3.227   0.223  0.2578 -0.0913  0.2164
 2171TIP3    H127928   6.018   3.170   0.277  0.1362 -2.5480 -2.1653
 2171TIP3    H227929   6.023   3.261   0.156 -0.5229 -0.5502 -0.7167
 2172TIP3   OH227930   5.739   4.561  16.924  0.2837 -0.0279 -0.1535
 2172TIP3    H127931   5.688   4.515  16.991  0.5526  0.3868  0.3401
 2172TIP3    H227932   5.725   4.510  16.844 -0.2702 -0.3656  0.1526
 2173TIP3   OH227933   6.293   6.705  10.633 -0.0316 -0.5663 -0.4876
 2173TIP3    H127934   6.367   6.645  10.638 -0.2341 -0.8500 -0.9376
 2173TIP3    H227935   6.224   6.656  10.589 -1.3450 -1.2044  2.1385
 2174TIP3   OH227936   1.280   0.625  12.747  0.2995  0.0517 -0.2418
 2174TIP3    H127937   1.193   0.655  12.720 -0.5023 -0.6833  1.4271
 2174TIP3    H227938   1.300   0.552  12.689 -0.6902 -0.4799  0.0784
 2175TIP3   OH227939   1.618   6.648   1.578  0.0770 -0.3114  0.1836
 2175TIP3    H127940   1.597   6.584   1.646 -1.3159  1.6849  1.6780
 2175TIP3    H227941   1.664   6.719   1.623  0.5531  0.3118 -1.2352
 2176TIP3   OH227942   3.921   2.704  12.222 -0.3289  0.6430  0.1389
 2176TIP3    H127943   3.992   2.768  12.233  2.1583 -1.9712 -0.0152
 2176TIP3    H227944   3.907   2.700  12.127 -0.6366  1.0960  0.1634
 2177TIP3   OH227945   2.775   6.343  16.903 -0.4754 -0.1216  0.1928
 2177TIP3    H127946   2.791   6.297  16.820 -0.4103 -0.7067  0.5267
 2177TIP3    H227947   2.705   6.405  16.882  0.2352  0.4374 -0.5483
 2178TIP3   OH227948   4.377   6.292   0.504 -0.2322 -0.0529 -0.0632
 2178TIP3    H127949   4.300   6.304   0.560 -0.5183 -1.4403 -0.1364
 2178TIP3    H227950   4.448   6.337   0.551 -1.0611  1.1903  0.0251
 2179TIP3   OH227951   4.320   3.739  14.261  0.1210 -0.0358  0.0266
 2179TIP3    H127952   4.390   3.760  14.323  0.4763  0.5266 -0.5678
 2179TIP3    H227953   4.364   3.694  14.189 -0.1870  0.0057 -0.1872
 2180TIP3   OH227954   3.191   0.957  16.663  0.3501  0.4785 -0.8056
 2180TIP3    H127955   3.104   0.926  16.640  0.2759  0.2575 -0.2514
 2180TIP3    H227956   3.188   0.967  16.759  0.9457  0.4110 -0.7772
 2181TIP3   OH227957   4.775   2.870   2.564 -0.2232 -0.3236  0.4938
 2181TIP3    H127958   4.706   2.911   2.512  0.6233  0.5490  0.0643
 2181TIP3    H227959   4.849   2.861   2.504  0.2687 -0.6440  1.1410
 2182TIP3   OH227960   3.678   0.350   0.624 -0.3023  0.0562  0.3678
 2182TIP3    H127961   3.623   0.413   0.670 -0.8004  0.0745 -0.2457
 2182TIP3    H227962   3.670   0.374   0.531 -0.0281 -0.5337  0.1870
 2183TIP3   OH227963   0.711   3.202  16.056  0.0396 -0.2433  0.1509
 2183TIP3    H127964   0.806   3.196  16.047 -0.1297 -0.0692 -2.0832
 2183TIP3    H227965   0.697   3.274  16.117  1.3535 -1.1239  1.5374
 2184TIP3   OH227966   2.126   3.308  12.603 -0.5326 -0.1791  0.4413
 2184TIP3    H127967   2.182   3.282  12.675 -2.2361 -0.6650  1.6295
 2184TIP3    H227968   2.084   3.389  12.633 -1.0767 -0.2602 -0.0926
 2185TIP3   OH227969   3.731   2.734   2.887 -0.1109  0.5889 -0.3790
 2185TIP3    H127970   3.648   2.730   2.936 -0.4245  1.9153 -0.7751
 2185TIP3    H227971   3.796   2.700   2.948 -1.1236 -1.6624 -0.4978
 2186TIP3   OH227972   2.842   0.860  11.378  0.2696 -0.4541  0.2669
 2186TIP3    H127973   2.754   0.863  11.341 -0.3748  0.7448  1.7972
 2186TIP3    H227974   2.898   0.901  11.312 -0.8921  1.9291  0.6913
 2187TIP3   OH227975   5.459   4.554  15.237  0.6217  0.4206 -0.0050
 2187TIP3    H127976   5.436   4.499  15.312  1.4882  0.4975  0.3159
 2187TIP3    H227977   5.422   4.507  15.162 -0.3288  0.3836  0.4661
 2188TIP3   OH227978   0.817   0.459   1.876  0.0746  0.6386 -0.4914
 2188TIP3    H127979   0.750   0.526   1.887 -1.0193 -0.2802 -1.3919
 2188TIP3    H227980   0.801   0.397   1.948  0.4650  0.8400 -0.2326
 2189TIP3   OH227981   0.398   5.095  10.643  0.8752  0.5937 -0.3095
 2189TIP3    H127982   0.369   5.030  10.579 -0.8302  1.6698 -0.6615
 2189TIP3    H227983   0.318   5.119  10.691  1.2985  2.9707 -0.7122
 2190TIP3   OH227984   4.572   3.481   1.421  0.4588 -0.1385 -0.3885
 2190TIP3    H127985   4.539   3.495   1.332 -0.2334  1.6367  0.1259
 2190TIP3    H227986   4.656   3.526   1.423 -0.2139  1.1063  0.2859
 2191TIP3   OH227987   6.345   2.067  10.869  0.2092 -0.2798 -0.3366
 2191TIP3    H127988   6.291   1.990  10.852 -0.7255  0.3051 -0.0446
 2191TIP3    H227989   6.421   2.033  10.917 -0.9286 -0.8188  1.1308
 2192TIP3   OH227990   3.091   6.695   0.988  0.9199  0.0436 -0.1896
 2192TIP3    H127991   3.013   6.734   0.949  0.9674  0.7284  0.3910
 2192TIP3    H227992   3.067   6.604   1.005  0.2489  0.2580 -0.0076
 2193TIP3   OH227993   3.344   5.179  13.965  0.2487  0.1228 -0.1527
 2193TIP3    H127994   3.315   5.114  13.901  0.3923  1.1758 -1.3014
 2193TIP3    H227995   3.421   5.219  13.926 -0.2258  1.4526  0.2407
 2194TIP3   OH227996   4.580   3.040   0.889  0.5795 -0.1226 -0.6141
 2194TIP3    H127997   4.573   2.971   0.823 -1.8437  0.2064 -0.7407
 2194TIP3    H227998   4.533   3.114   0.852  1.1014  0.8121  0.5429
 2195TIP3   OH227999   2.665   1.966   2.582 -0.4667  0.4806  0.4390
 2195TIP3    H128000   2.721   2.044   2.574 -0.9944  0.7808 -0.3283
 2195TIP3    H228001   2.630   1.972   2.671 -0.4538  1.0877  0.4075
 2196TIP3   OH228002   6.154   5.840  12.716  0.2925 -0.6272 -0.0365
 2196TIP3    H128003   6.145   5.745  12.719  1.3775 -0.7240  0.3886
 2196TIP3    H228004   6.207   5.856  12.637  0.5708 -0.4194  0.1915
 2197TIP3   OH228005   1.952   2.151   2.219 -0.0071 -0.2069 -0.3390
 2197TIP3    H128006   1.946   2.152   2.124 -0.1640 -0.0705 -0.3284
 2197TIP3    H228007   1.918   2.065   2.245  0.4657 -0.4245 -0.4316
 2198TIP3   OH228008   4.948   6.489  14.412  0.4466 -0.1368 -0.5035
 2198TIP3    H128009   4.905   6.437  14.479 -0.9031  0.9571 -0.5033
 2198TIP3    H228010   5.028   6.522  14.454 -1.3172  2.1034  1.2081
 2199TIP3   OH228011   4.034   5.557  12.602  0.2171  0.8494  0.1712
 2199TIP3    H128012   4.037   5.489  12.535  0.5365  1.0522 -0.0251
 2199TIP3    H228013   4.100   5.621  12.574  1.1305  0.4051  1.2578
 2200TIP3   OH228014   1.112   3.223  13.837 -0.2320  0.0214 -0.5966
 2200TIP3    H128015   1.034   3.215  13.892  0.0218  1.6912  0.0375
 2200TIP3    H228016   1.183   3.192  13.893 -0.3195 -0.6966 -0.8789
 2201TIP3   OH228017   1.960   1.272  15.907 -0.4024  0.0126 -0.0088
 2201TIP3    H128018   2.050   1.296  15.881 -0.4238  0.1019 -0.0016
 2201TIP3    H228019   1.945   1.321  15.987 -0.4936  0.0751 -0.0641
 2202TIP3   OH228020   3.663   0.582  12.122 -0.2198  0.3620 -0.4314
 2202TIP3    H128021   3.724   0.652  12.102 -1.4007  1.5959  0.1908
 2202TIP3    H228022   3.717   0.503  12.126  1.4457  1.5259  0.8785
 2203TIP3   OH228023   1.162   4.041   1.290  0.5997 -0.2841  0.5248
 2203TIP3    H128024   1.080   3.994   1.271  1.2368 -0.6250 -1.5485
 2203TIP3    H228025   1.137   4.110   1.351 -1.5993  0.7045 -1.4013
 2204TIP3   OH228026   0.562   4.151  15.726  0.7228 -0.6735  0.2941
 2204TIP3    H128027   0.511   4.132  15.805  1.7132 -1.1752  0.8178
 2204TIP3    H228028   0.599   4.067  15.701 -1.2314 -0.9248 -1.8919
 2205TIP3   OH228029   3.728   6.664  16.012 -0.4870 -0.9693 -0.7779
 2205TIP3    H128030   3.725   6.568  16.012 -1.8189 -0.9535  1.3317
 2205TIP3    H228031   3.644   6.690  15.973 -1.4549 -0.6748  1.4350
 2206TIP3   OH228032   0.227   5.129   3.499  0.2059 -0.0296  0.4250
 2206TIP3    H128033   0.237   5.061   3.566 -0.8230  0.3891  1.0189
 2206TIP3    H228034   0.147   5.175   3.524  0.8544  1.3595 -0.0060
 2207TIP3   OH228035   5.547   4.844  12.619 -0.3466 -0.0336  0.2214
 2207TIP3    H128036   5.485   4.808  12.555 -1.7708  0.2070  1.4562
 2207TIP3    H228037   5.566   4.771  12.678 -0.0311  0.1065  0.2955
 2208TIP3   OH228038   2.832   1.528  15.036  0.0580 -0.2175  0.0194
 2208TIP3    H128039   2.818   1.617  15.003  0.3993 -0.3076 -0.3671
 2208TIP3    H228040   2.765   1.476  14.993  0.3682 -0.2959 -0.3694
 2209TIP3   OH228041   5.894   6.048  13.644  0.0046  0.5001 -0.3784
 2209TIP3    H128042   5.886   6.076  13.735 -0.0969 -1.1689  0.1450
 2209TIP3    H228043   5.883   5.952  13.647  4.0184 -0.0998 -1.6040
 2210TIP3   OH228044   0.527   6.017  10.263  0.1954 -0.6067 -0.1279
 2210TIP3    H128045   0.559   6.087  10.320 -1.3232 -1.3119  1.6384
 2210TIP3    H228046   0.582   5.942  10.285 -0.7731 -1.0407  0.8693
 2211TIP3   OH228047   4.874   3.192  13.505  0.8645  0.7307 -0.4746
 2211TIP3    H128048   4.846   3.221  13.591 -0.1687 -1.2117 -0.1390
 2211TIP3    H228049   4.847   3.263  13.446  2.1391  2.3478  0.8406
 2212TIP3   OH228050   0.484   4.894   5.348 -0.2211 -0.1971  0.0002
 2212TIP3    H128051   0.413   4.908   5.285 -1.1892 -0.8742  0.9112
 2212TIP3    H228052   0.517   4.982   5.367  0.2402 -0.0090 -1.6126
 2213TIP3   OH228053   5.274   4.878   5.417  0.0751 -0.0621 -0.0040
 2213TIP3    H128054   5.217   4.805   5.439  1.3250 -1.0676 -0.0227
 2213TIP3    H228055   5.316   4.902   5.500  0.5442 -0.1460 -0.2140
 2214TIP3   OH228056   4.997   3.944  11.853 -0.1003 -0.2462 -0.2973
 2214TIP3    H128057   4.946   3.863  11.848 -0.7961  0.2444 -1.4581
 2214TIP3    H228058   5.031   3.946  11.942 -2.5197 -0.3396  0.6800
 2215TIP3   OH228059   5.508   4.108   4.420 -0.0150 -0.6684  0.0461
 2215TIP3    H128060   5.439   4.041   4.422  1.1518 -1.8493  1.4244
 2215TIP3    H228061   5.535   4.116   4.511  1.0772  0.4222 -0.3775
 2216TIP3   OH228062   4.781   3.218   4.264  0.6561  0.0635 -0.6450
 2216TIP3    H128063   4.736   3.247   4.185  0.9106 -2.2448 -1.7021
 2216TIP3    H228064   4.712   3.211   4.330  0.2597  0.9929 -0.9642
 2217TIP3   OH228065   5.544   1.726   6.465  0.5363 -0.8273 -0.1851
 2217TIP3    H128066   5.477   1.678   6.416 -0.7848 -1.1199  1.8742
 2217TIP3    H228067   5.617   1.664   6.471  1.2005 -0.3548 -2.8069
 2218TIP3   OH228068   0.045   0.021   1.474  0.1042 -0.0748  0.6702
 2218TIP3    H128069  -0.008   0.073   1.413 -0.6663  0.5019  1.8084
 2218TIP3    H228070   0.003  -0.065   1.475  1.5969 -0.8630 -1.4972
 2219TIP3   OH228071   6.018   1.734  16.035 -0.6176  0.5815 -0.2348
 2219TIP3    H128072   5.996   1.745  16.128  0.8370  2.7548 -0.1203
 2219TIP3    H228073   6.040   1.822  16.005  1.3618 -0.4802 -2.0341
 2220TIP3   OH228074   5.393   1.486   6.404 -0.4991 -0.2277 -0.2917
 2220TIP3    H128075   5.400   1.495   6.309  2.8851  0.6701 -0.0184
 2220TIP3    H228076   5.423   1.397   6.422 -1.0195 -0.3551 -0.0289
 2221TIP3   OH228077   6.596   5.896   2.252 -0.0386 -0.4847  0.5024
 2221TIP3    H128078   6.542   5.974   2.236  0.5326 -0.0244  0.7723
 2221TIP3    H228079   6.537   5.822   2.238 -1.3156  0.0360  2.7334
 2222TIP3   OH228080   2.178   1.691  13.480  0.0253 -0.3581  0.2131
 2222TIP3    H128081   2.125   1.613  13.495 -0.3819 -0.2970 -0.8735
 2222TIP3    H228082   2.134   1.736  13.408  0.5731  0.5906  0.4675
 2223TIP3   OH228083   1.072   2.227  16.401 -0.4938 -0.2839  0.0480
 2223TIP3    H128084   1.051   2.226  16.494 -1.2599  0.3206 -0.1068
 2223TIP3    H228085   1.167   2.240  16.397 -0.5929  0.7007  0.7354
 2224TIP3   OH228086   0.174   3.297   1.854  0.0710 -0.0555 -0.9636
 2224TIP3    H128087   0.177   3.358   1.928  1.2010 -0.6644 -0.5037
 2224TIP3    H228088   0.177   3.210   1.894 -1.7594 -0.4342 -1.6095
 2225TIP3   OH228089   5.515   3.232  16.664  0.5214 -0.3375  0.3250
 2225TIP3    H128090   5.458   3.303  16.695  0.6487 -0.3023  0.4805
 2225TIP3    H228091   5.528   3.250  16.571 -0.7413 -1.0396  0.0036
 2226TIP3   OH228092   1.512   6.701  12.711  0.6146  0.1509  0.0728
 2226TIP3    H128093   1.528   6.749  12.792 -0.0824  0.0573  0.2670
 2226TIP3    H228094   1.435   6.743  12.673  0.5895 -0.1835 -0.2475
 2227TIP3   OH228095   5.332   2.359  16.656  0.0155  0.0119  0.3996
 2227TIP3    H128096   5.343   2.358  16.560 -0.7152 -0.8772  0.3105
 2227TIP3    H228097   5.422   2.366  16.690  0.5501 -2.6573 -0.3293
 2228TIP3   OH228098   4.788   4.948  12.011 -0.7687 -0.1020  0.1024
 2228TIP3    H128099   4.779   4.964  12.105 -1.2268 -0.4255  0.1166
 2228TIP3    H228100   4.699   4.950  11.978 -0.9165 -2.8933  0.1689
 2229TIP3   OH228101   5.490   0.584   4.021  0.4889  0.1087 -0.5032
 2229TIP3    H128102   5.500   0.662   3.967 -1.7284 -0.1421 -1.3087
 2229TIP3    H228103   5.398   0.560   4.012  0.5094 -1.0308  1.8877
 2230TIP3   OH228104   5.545   2.828  16.600  0.1517  0.3871  0.0289
 2230TIP3    H128105   5.631   2.869  16.608 -0.0232  0.8701 -0.5218
 2230TIP3    H228106   5.552   2.748  16.651  1.2396 -0.0754 -0.8266
 2231TIP3   OH228107   2.456   2.995   4.368 -0.7669  0.1453  0.6237
 2231TIP3    H128108   2.483   2.910   4.402 -1.3673 -0.1935  0.2589
 2231TIP3    H228109   2.535   3.049   4.372 -0.4060 -0.4056  0.9271
 2232TIP3   OH228110   3.063   1.454  16.573 -0.4709  0.7387 -0.2340
 2232TIP3    H128111   3.136   1.514  16.557 -1.0125  1.2090 -0.9536
 2232TIP3    H228112   3.104   1.377  16.612  0.3688  1.1306 -0.3265
 2233TIP3   OH228113   3.617   1.529  12.014 -0.3942 -0.1684 -0.5717
 2233TIP3    H128114   3.633   1.506  11.922 -3.5573 -0.7223 -1.0384
 2233TIP3    H228115   3.631   1.624  12.018 -2.0733  0.1772 -2.0957
 2234TIP3   OH228116   2.460   5.455  16.580 -0.0627 -0.1439 -0.4387
 2234TIP3    H128117   2.454   5.360  16.588  0.8901 -0.2627 -1.0496
 2234TIP3    H228118   2.405   5.489  16.652 -1.0418 -1.1377 -0.6989
 2235TIP3   OH228119   1.825   5.777  16.626  0.4090  0.7340 -0.3753
 2235TIP3    H128120   1.828   5.780  16.531  1.2279  0.2395 -0.3608
 2235TIP3    H228121   1.818   5.869  16.652 -1.5180  0.7657 -0.9603
 2236TIP3   OH228122   5.281   5.951  12.081  0.1475  0.6259 -0.1064
 2236TIP3    H128123   5.221   5.975  12.011 -0.7059 -0.3143  0.2795
 2236TIP3    H228124   5.284   6.027  12.138 -3.2062 -0.4125  1.5859
 2237TIP3   OH228125   3.194   6.511   6.073  0.2511  0.4483  0.1440
 2237TIP3    H128126   3.190   6.583   6.136 -0.1457  0.3330  0.2594
 2237TIP3    H228127   3.131   6.535   6.005  1.0983  0.8377 -0.5002
 2238TIP3   OH228128   3.466   6.500  16.429  0.3006  0.0069 -0.0116
 2238TIP3    H128129   3.487   6.490  16.336  1.2655 -0.0390  0.2174
 2238TIP3    H228130   3.444   6.593  16.439 -2.1512 -0.4598 -0.7627
 2239TIP3   OH228131   0.427   3.113  14.060 -0.2458 -0.1193 -0.2706
 2239TIP3    H128132   0.511   3.075  14.035  0.6756  1.1388  0.8436
 2239TIP3    H228133   0.379   3.122  13.977  1.0497 -0.0723 -1.0369
 2240TIP3   OH228134   6.086   3.974  12.138 -1.0782 -0.3714 -0.3206
 2240TIP3    H128135   6.151   3.986  12.069  1.5963 -1.2482  1.9793
 2240TIP3    H228136   6.072   4.061  12.174  1.8665 -0.6820  1.7802
 2241TIP3   OH228137   4.481   3.881  14.423 -0.0884  0.4994  0.2873
 2241TIP3    H128138   4.429   3.946  14.471 -0.8498  0.9872 -1.1646
 2241TIP3    H228139   4.501   3.814  14.488 -0.8699  1.2783  1.3586
 2242TIP3   OH228140   5.341   2.193  11.587 -0.6812  1.0815  0.2481
 2242TIP3    H128141   5.412   2.130  11.573 -0.7172  1.1494 -0.2523
 2242TIP3    H228142   5.276   2.146  11.638  0.1394  1.3040  1.5273
 2243TIP3   OH228143   2.789   0.589   1.343 -0.0241  0.0686  0.5542
 2243TIP3    H128144   2.869   0.596   1.291 -0.1299 -1.7124  0.1339
 2243TIP3    H228145   2.769   0.496   1.345 -1.7007  0.4205  1.2676
 2244TIP3   OH228146   6.229   4.858   3.084  0.3033  0.7198  0.9105
 2244TIP3    H128147   6.259   4.943   3.116  0.0848  0.9388  0.5386
 2244TIP3    H228148   6.308   4.816   3.049  0.1868  1.3055 -0.0878
 2245TIP3   OH228149   1.298   3.749  14.773  0.0117 -0.0100  0.3423
 2245TIP3    H128150   1.320   3.833  14.732 -0.0625 -0.5002 -0.7136
 2245TIP3    H228151   1.205   3.738  14.756 -0.1649  0.0688  1.1980
 2246TIP3   OH228152   0.536   0.898  14.341  0.2866 -0.0716 -0.2537
 2246TIP3    H128153   0.465   0.915  14.278 -0.3078 -0.9647  0.1591
 2246TIP3    H228154   0.615   0.898  14.287 -0.2550 -1.2090 -1.0869
 2247TIP3   OH228155   4.309   5.815  16.779  0.0338 -0.7177  0.3330
 2247TIP3    H128156   4.251   5.745  16.809 -0.4556 -1.3819 -2.0648
 2247TIP3    H228157   4.288   5.889  16.836 -3.4404 -0.8307 -0.6802
 2248TIP3   OH228158   3.379   5.403  10.512 -0.2006  0.0327 -0.5562
 2248TIP3    H128159   3.292   5.412  10.472 -0.4379 -0.6032 -0.2014
 2248TIP3    H228160   3.361   5.372  10.601  0.4084 -0.6706 -0.6703
 2249TIP3   OH228161   3.824   1.627   3.901  0.0290  0.4855  0.6214
 2249TIP3    H128162   3.776   1.585   3.973  0.0817  0.6916  0.7764
 2249TIP3    H228163   3.916   1.624   3.928 -0.0429  1.3899  0.9838
 2250TIP3   OH228164   2.547   6.025   3.902 -0.2297 -0.3683  0.1149
 2250TIP3    H128165   2.473   6.051   3.848 -0.8760 -1.7998  0.2947
 2250TIP3    H228166   2.616   6.004   3.840  0.4252  2.0180 -0.0364
 2251TIP3   OH228167   0.872   2.846  17.215  0.0792 -0.0108  0.3504
 2251TIP3    H128168   0.884   2.933  17.253 -1.1118  0.6209 -0.6989
 2251TIP3    H228169   0.836   2.794  17.287 -1.2617  0.9325  0.3757
 2252TIP3   OH228170   6.564   0.669  13.466 -0.1282 -0.0000 -0.2347
 2252TIP3    H128171   6.471   0.646  13.465  0.3436 -2.4897  2.9621
 2252TIP3    H228172   6.565   0.764  13.477 -2.3199 -0.0284  0.5776
 2253TIP3   OH228173   6.775   5.721  13.374 -0.6242 -0.2596 -0.6032
 2253TIP3    H128174   6.839   5.743  13.442  0.0174 -0.2747 -1.2071
 2253TIP3    H228175   6.691   5.722  13.420 -0.5601  2.6938 -0.4246
 2254TIP3   OH228176   3.069   6.043   2.252 -0.2219 -0.0990  0.0800
 2254TIP3    H128177   3.141   6.077   2.200  0.4621  0.5476  1.4079
 2254TIP3    H228178   3.023   5.983   2.194  0.9825  0.0111 -1.0056
 2255TIP3   OH228179   6.320   1.334   4.475  0.0359 -0.2147  0.0755
 2255TIP3    H128180   6.254   1.401   4.489  1.1839  1.1084 -0.7654
 2255TIP3    H228181   6.403   1.378   4.492  0.7336 -1.7497  0.7218
 2256TIP3   OH228182   1.064   1.425  16.205  0.0846  0.6573  0.0622
 2256TIP3    H128183   1.057   1.361  16.275  0.4889  0.8359  0.2656
 2256TIP3    H228184   1.008   1.391  16.136  0.6913 -0.1679 -0.0288
 2257TIP3   OH228185   3.481   3.968   0.944 -0.7592 -0.3084 -0.3161
 2257TIP3    H128186   3.455   4.040   1.001  0.0916  0.6231 -1.0607
 2257TIP3    H228187   3.576   3.979   0.934 -0.6446 -1.4632 -0.5322
 2258TIP3   OH228188   6.268   6.254  17.180  0.0202  0.3222  0.1276
 2258TIP3    H128189   6.334   6.230  17.115  0.4978  2.3734 -0.1875
 2258TIP3    H228190   6.215   6.175  17.191  1.8677 -1.0216 -0.4006
 2259TIP3   OH228191   4.233   2.449  15.863 -0.2855 -0.5021  0.1870
 2259TIP3    H128192   4.289   2.527  15.870 -0.6607 -0.1257 -0.8390
 2259TIP3    H228193   4.182   2.449  15.944 -1.1260  0.9953 -0.3211
 2260TIP3   OH228194   5.109   1.221   0.112 -0.0308  0.2178 -0.5212
 2260TIP3    H128195   5.094   1.185   0.024 -0.6361 -0.3472 -0.1939
 2260TIP3    H228196   5.030   1.199   0.160 -0.9446  3.0603 -0.6379
 2261TIP3   OH228197   3.781   3.992  15.506 -0.6763  0.2403  0.5938
 2261TIP3    H128198   3.694   4.013  15.471 -1.3222 -0.3609  1.8332
 2261TIP3    H228199   3.769   3.912  15.557  0.6711 -0.0208  0.5274
 2262TIP3   OH228200   3.912   6.587  14.718 -0.4935 -0.2908  0.2412
 2262TIP3    H128201   3.838   6.596  14.778  0.4775  1.9087  1.1791
 2262TIP3    H228202   3.873   6.558  14.635 -2.5240  1.7972  0.4273
 2263TIP3   OH228203   4.867   2.244  15.643 -0.0603 -0.2609 -0.4615
 2263TIP3    H128204   4.921   2.312  15.604 -0.9347  0.1995 -0.8693
 2263TIP3    H228205   4.904   2.162  15.610 -0.5153  0.1059 -1.9267
 2264TIP3   OH228206   2.554   2.074   0.764  0.0952 -0.1627 -0.6186
 2264TIP3    H128207   2.634   2.049   0.810  0.7620  1.3462 -0.9335
 2264TIP3    H228208   2.487   2.077   0.833  0.6548  0.0998 -0.0776
 2265TIP3   OH228209   4.745   3.861  14.342  0.2030 -0.1444  0.4362
 2265TIP3    H128210   4.656   3.880  14.313 -0.3344 -0.9583  1.5161
 2265TIP3    H228211   4.792   3.837  14.262 -0.8314 -0.7647  0.0026
 2266TIP3   OH228212   5.074   5.341  12.495  0.3364  0.0862  0.7240
 2266TIP3    H128213   5.085   5.317  12.587  0.5532  1.0994  0.9696
 2266TIP3    H228214   5.024   5.269  12.457 -0.1518 -0.1139  1.7348
 2267TIP3   OH228215   4.883   3.853   0.854 -0.6298 -0.2918  0.3315
 2267TIP3    H128216   4.832   3.930   0.878  0.3644  0.3433  0.4443
 2267TIP3    H228217   4.951   3.887   0.796  0.2431 -0.9736  0.9460
 2268TIP3   OH228218   6.068   1.152  16.618  0.3507 -0.3522 -0.1240
 2268TIP3    H128219   5.996   1.208  16.588  0.6076  1.0820  1.8122
 2268TIP3    H228220   6.147   1.196  16.589  0.6267  1.3722  3.0242
 2269TIP3   OH228221   4.008   3.958  10.503  0.5229 -0.1804 -0.2209
 2269TIP3    H128222   4.065   4.016  10.453  0.2206 -1.0528 -1.6017
 2269TIP3    H228223   3.992   4.005  10.585  1.4516  1.0355 -0.7204
 2270TIP3   OH228224   0.607   5.731   4.380 -0.4613  0.5230  0.2194
 2270TIP3    H128225   0.634   5.803   4.322  0.9205  0.4687  0.7875
 2270TIP3    H228226   0.622   5.765   4.469 -1.2934  0.1085  0.5219
 2271TIP3   OH228227   3.459   0.062  15.489 -0.1555  0.1404  0.1647
 2271TIP3    H128228   3.520   0.109  15.547  1.9414 -0.7220 -1.2875
 2271TIP3    H228229   3.416  -0.002  15.547  0.6721  0.4360  1.1237
 2272TIP3   OH228230   3.174   6.725   6.264  0.0040 -0.0028 -0.2947
 2272TIP3    H128231   3.108   6.793   6.251 -0.7547 -0.9782 -1.7135
 2272TIP3    H228232   3.257   6.772   6.270 -0.7427  1.1939  0.9381
 2273TIP3   OH228233   6.218   2.766  14.150  0.1073 -1.6093  0.0824
 2273TIP3    H128234   6.137   2.806  14.182 -1.2502 -3.7731 -0.5669
 2273TIP3    H228235   6.219   2.787  14.056  0.5251 -1.2329  0.1687
 2274TIP3   OH228236   0.914   6.054  15.423 -0.2299 -0.3546 -0.0797
 2274TIP3    H128237   0.988   5.995  15.439 -0.2891  0.2585  2.8001
 2274TIP3    H228238   0.954   6.133  15.386  0.5786 -0.0665  1.3622
 2275TIP3   OH228239   1.797   5.050  13.868 -0.3458 -0.4037 -0.7722
 2275TIP3    H128240   1.703   5.055  13.851 -0.5701  0.2355  0.5341
 2275TIP3    H228241   1.806   5.079  13.959  1.1966  0.3393 -1.1455
 2276TIP3   OH228242   5.183   4.758   5.078 -0.3086 -0.4057 -0.1341
 2276TIP3    H128243   5.185   4.689   5.144 -0.8245 -0.1841  0.1148
 2276TIP3    H228244   5.147   4.716   5.000  0.9756 -0.8507 -0.4855
 2277TIP3   OH228245   0.454   1.715  11.577  0.5323 -0.8551  0.4172
 2277TIP3    H128246   0.405   1.793  11.549  0.3117 -0.5845  1.5113
 2277TIP3    H228247   0.413   1.643  11.530 -0.5742 -0.5545  0.8975
 2278TIP3   OH228248   4.347   5.408   0.856 -0.5244  0.5994  0.3550
 2278TIP3    H128249   4.326   5.359   0.936  0.5638  0.7622  0.7544
 2278TIP3    H228250   4.332   5.345   0.785 -0.9966  0.2875  0.7307
 2279TIP3   OH228251   2.057   1.018   0.286 -0.2423  0.0676  0.4831
 2279TIP3    H128252   2.042   0.935   0.329  0.3357 -0.6191 -0.6082
 2279TIP3    H228253   2.049   0.999   0.192 -0.2585  1.2658  0.2216
 2280TIP3   OH228254   1.347   3.661  12.108 -0.0617 -0.4770  0.2858
 2280TIP3    H128255   1.280   3.596  12.131 -0.9687 -0.0793 -1.1103
 2280TIP3    H228256   1.366   3.643  12.016  0.2225  0.7495  0.0995
 2281TIP3   OH228257   0.892   4.468  11.912  0.5636 -0.5480 -0.5517
 2281TIP3    H128258   0.900   4.398  11.977  0.3910  1.3525  1.5660
 2281TIP3    H228259   0.798   4.476  11.897  0.6460 -1.4808 -1.6025
 2282TIP3   OH228260   1.075   5.569   1.314  0.0553 -0.8567 -0.0770
 2282TIP3    H128261   0.994   5.557   1.364  1.1323 -0.1404  1.9239
 2282TIP3    H228262   1.126   5.490   1.333  0.2723 -0.8079 -0.4485
 2283TIP3   OH228263   5.272   1.351  11.049 -0.2248 -0.1773 -0.7103
 2283TIP3    H128264   5.348   1.345  10.992 -0.3542 -1.5490 -0.7423
 2283TIP3    H228265   5.233   1.436  11.027  0.5506 -0.0419 -1.6103
 2284TIP3   OH228266   2.309   6.502  11.270  0.4604 -0.3715 -0.1180
 2284TIP3    H128267   2.325   6.450  11.191  1.0658 -0.7032  0.2225
 2284TIP3    H228268   2.360   6.582  11.257  1.0392 -0.6889  0.2081
 2285TIP3   OH228269   1.563   3.834  12.977  0.6059 -0.3613 -0.1633
 2285TIP3    H128270   1.581   3.928  12.974 -0.4870 -0.1745 -1.2650
 2285TIP3    H228271   1.559   3.808  12.885 -2.8156 -0.7283  0.0353
 2286TIP3   OH228272   4.657   3.405   0.992 -0.3746  0.0157  0.7848
 2286TIP3    H128273   4.701   3.486   0.966  0.6454 -0.8745 -0.3034
 2286TIP3    H228274   4.712   3.336   0.956 -2.0653 -1.1366  0.4150
 2287TIP3   OH228275   3.093   3.134   4.749 -0.4319  0.3573 -0.4039
 2287TIP3    H128276   3.186   3.114   4.739  0.1749  0.1773  4.3335
 2287TIP3    H228277   3.048   3.064   4.702  1.8714 -2.5052  1.4478
 2288TIP3   OH228278   5.125   4.370  11.492  0.0824  0.2428 -0.4964
 2288TIP3    H128279   5.084   4.357  11.407 -1.4693 -1.0502  0.4257
 2288TIP3    H228280   5.127   4.465  11.504 -1.6257  0.3621 -1.0639
 2289TIP3   OH228281   3.932   2.665   6.529  0.0235 -0.1196  0.4801
 2289TIP3    H128282   4.025   2.646   6.545 -0.1881 -0.1066  1.7560
 2289TIP3    H228283   3.886   2.591   6.569 -0.5481  0.1508  0.3187
 2290TIP3   OH228284   2.350   6.054  12.181  0.0563 -0.3037 -0.0567
 2290TIP3    H128285   2.322   6.113  12.111 -0.4813 -0.7813 -0.2450
 2290TIP3    H228286   2.325   6.099  12.262 -3.7174 -1.9100 -0.2395
 2291TIP3   OH228287   4.087   1.004  12.198 -0.2349  0.5275 -0.1309
 2291TIP3    H128288   4.138   0.996  12.118  0.2158 -1.2100  0.3027
 2291TIP3    H228289   4.013   1.059  12.174  0.5559  1.0710 -1.4000
 2292TIP3   OH228290   4.852   5.816  13.751 -0.0826 -0.0267  0.3351
 2292TIP3    H128291   4.813   5.778  13.671  1.7246  0.4041 -0.7871
 2292TIP3    H228292   4.802   5.778  13.822  0.4419 -3.1286 -0.8482
 2293TIP3   OH228293   3.157   4.613  14.838 -0.4780 -0.3703 -0.4069
 2293TIP3    H128294   3.203   4.534  14.808  1.0293  0.0750  0.6880
 2293TIP3    H228295   3.120   4.588  14.923  1.8903  0.7658  0.9875
 2294TIP3   OH228296   5.264   5.369   3.215 -0.0439 -0.0144  0.3020
 2294TIP3    H128297   5.351   5.408   3.220 -1.0281  2.2112  0.5610
 2294TIP3    H228298   5.250   5.355   3.121 -0.3108  1.7503  0.0664
 2295TIP3   OH228299   1.184   3.369  11.402  0.3751  0.0540 -0.0559
 2295TIP3    H128300   1.131   3.409  11.334  0.9833  2.8118  1.0165
 2295TIP3    H228301   1.129   3.370  11.480  1.3570  1.4120  0.6517
 2296TIP3   OH228302   4.237   6.067  12.785  0.1183  0.5176 -0.7188
 2296TIP3    H128303   4.197   6.047  12.700  0.9673  2.2891 -1.5562
 2296TIP3    H228304   4.277   6.153  12.773 -0.4959  1.1743  1.7696
 2297TIP3   OH228305   1.285   0.750  16.466  0.2801  0.1475 -0.0842
 2297TIP3    H128306   1.327   0.668  16.441 -1.1946 -1.0725  1.2955
 2297TIP3    H228307   1.334   0.818  16.420  3.0377 -1.3046  0.6073
 2298TIP3   OH228308   0.609   3.619   1.267 -0.1641  0.0868  0.1327
 2298TIP3    H128309   0.597   3.593   1.358  0.1349  0.7941  0.3826
 2298TIP3    H228310   0.695   3.585   1.244 -0.7352 -1.1034 -0.2539
 2299TIP3   OH228311   5.045   6.169  11.065  0.3214 -0.0226  0.1426
 2299TIP3    H128312   4.963   6.218  11.078  0.7758  0.7387  0.1673
 2299TIP3    H228313   5.026   6.111  10.992  0.3875  1.5946 -1.1853
 2300TIP3   OH228314   5.767   5.038  13.773  0.2550  0.4533  0.5251
 2300TIP3    H128315   5.778   5.130  13.799  0.7308  0.5256  0.0931
 2300TIP3    H228316   5.682   5.035  13.728 -0.6583  0.2897  2.2469
 2301TIP3   OH228317   1.818   6.355  11.853  0.4392 -0.3695 -0.0900
 2301TIP3    H128318   1.880   6.325  11.919 -0.4022  0.1462  0.9454
 2301TIP3    H228319   1.851   6.441  11.826  1.4700 -1.1120 -1.2591
 2302TIP3   OH228320   4.717   2.083  14.454  0.4487  0.2832 -0.1130
 2302TIP3    H128321   4.629   2.069  14.488  0.0687  1.8378 -0.4092
 2302TIP3    H228322   4.708   2.075  14.359  0.9394 -1.1093 -0.0532
 2303TIP3   OH228323   4.273   5.488   4.810 -0.2647 -0.6628 -0.3781
 2303TIP3    H128324   4.219   5.532   4.744 -0.2343 -1.9628 -1.2921
 2303TIP3    H228325   4.363   5.508   4.785 -0.2538 -1.1274 -0.7153
 2304TIP3   OH228326   6.182   1.605  14.873  0.4301  0.5902  0.3516
 2304TIP3    H128327   6.251   1.642  14.928  0.5674 -0.1263  0.6640
 2304TIP3    H228328   6.104   1.655  14.898  0.3318 -0.2392  1.7552
 2305TIP3   OH228329   0.067   1.013   4.348 -0.4035 -0.5035 -0.4725
 2305TIP3    H128330  -0.000   1.005   4.415  0.8380 -0.8599  0.7655
 2305TIP3    H228331   0.074   0.926   4.309  0.4967 -0.9094  0.5618
 2306TIP3   OH228332   2.153   3.925   3.054 -0.2493 -1.0893  0.2200
 2306TIP3    H128333   2.186   3.852   3.002 -1.2167 -1.8967  0.7232
 2306TIP3    H228334   2.226   3.951   3.110  0.3254 -1.1835 -0.4834
 2307TIP3   OH228335   2.792   4.754   5.059  0.0512 -0.7611 -0.3213
 2307TIP3    H128336   2.749   4.730   4.977 -1.1996 -0.1796  0.1587
 2307TIP3    H228337   2.761   4.689   5.122  0.6429 -0.9249 -0.1939
 2308TIP3   OH228338   3.097   0.282  16.822  0.6949  0.9982  0.2600
 2308TIP3    H128339   3.114   0.320  16.736 -2.7171  1.9460 -0.1041
 2308TIP3    H228340   3.059   0.197  16.804  0.9826  0.7369  0.8603
 2309TIP3   OH228341   2.061   4.774   4.040  0.3802 -0.6216 -0.2870
 2309TIP3    H128342   2.000   4.745   4.108  0.2911 -3.5259 -1.5316
 2309TIP3    H228343   2.065   4.701   3.978  2.7325  0.7652 -1.8742
 2310TIP3   OH228344   2.458   3.258   5.178  0.5473 -0.0691  0.2409
 2310TIP3    H128345   2.433   3.347   5.152 -0.6927 -0.1294  1.1689
 2310TIP3    H228346   2.518   3.270   5.251 -0.0626  0.0065  0.7358
 2311TIP3   OH228347   4.506   5.438  15.898 -0.5768 -0.7489  0.0138
 2311TIP3    H128348   4.523   5.378  15.826 -0.3317 -0.5023 -0.1336
 2311TIP3    H228349   4.492   5.523  15.856  1.5998 -0.1785  0.3754
 2312TIP3   OH228350   6.763   6.505  16.919 -0.1099  0.4658  0.0496
 2312TIP3    H128351   6.802   6.572  16.862  2.5523  0.1616  1.4669
 2312TIP3    H228352   6.743   6.433  16.859  0.5009  1.0530 -0.8931
 2313TIP3   OH228353   0.556   0.432  11.920 -0.2718 -0.1049  0.2570
 2313TIP3    H128354   0.618   0.373  11.962 -1.8390 -1.8237  0.2040
 2313TIP3    H228355   0.534   0.390  11.837 -0.4692  1.1549 -0.3479
 2314TIP3   OH228356   4.671   2.781  10.918 -0.2099 -0.5211 -0.2926
 2314TIP3    H128357   4.732   2.838  10.870 -1.3648 -1.3720 -2.8359
 2314TIP3    H228358   4.588   2.830  10.919 -0.2316 -0.5480  0.8281
 2315TIP3   OH228359   5.561   0.348   2.139  0.6285 -0.3527  0.2218
 2315TIP3    H128360   5.570   0.359   2.234  1.9483 -0.7893  0.1494
 2315TIP3    H228361   5.504   0.272   2.129 -1.3171  0.9836  0.6586
 2316TIP3   OH228362   0.092   2.536   0.137  0.1314  0.1568 -0.3626
 2316TIP3    H128363   0.144   2.472   0.086  1.0262  0.3615  0.2892
 2316TIP3    H228364   0.038   2.580   0.071 -0.9715 -1.7171 -0.7471
 2317TIP3   OH228365   2.674   5.974  11.725  0.4947  0.0624 -0.3874
 2317TIP3    H128366   2.688   6.028  11.647 -0.1782 -0.6250 -0.9907
 2317TIP3    H228367   2.660   5.885  11.691  2.8773 -0.7556  0.6479
 2318TIP3   OH228368   2.362   4.979   5.556  0.5215 -0.1777  0.3344
 2318TIP3    H128369   2.447   4.976   5.513  0.1469  0.0841 -0.4369
 2318TIP3    H228370   2.351   5.070   5.582  0.8850 -0.3936  1.2881
 2319TIP3   OH228371   6.178   1.282  16.992 -0.2996  0.0282 -0.2516
 2319TIP3    H128372   6.266   1.246  16.984 -0.5600 -0.6628 -0.0944
 2319TIP3    H228373   6.169   1.342  16.919 -0.6318 -1.9016 -1.8497
 2320TIP3   OH228374   1.492   4.020   2.227 -0.4185  0.0388 -0.0744
 2320TIP3    H128375   1.403   3.995   2.252 -0.8868  0.3842 -1.3390
 2320TIP3    H228376   1.499   3.993   2.135  0.7163  0.1746 -0.0246
 2321TIP3   OH228377   4.310   1.925  14.457  0.1390  0.3181  0.1307
 2321TIP3    H128378   4.259   1.959  14.531  1.1698 -0.2814  1.1219
 2321TIP3    H228379   4.307   1.830  14.468  0.3148  0.2217 -0.6072
 2322TIP3   OH228380   3.021   2.542  16.188 -0.1494 -0.4625  0.4052
 2322TIP3    H128381   3.078   2.593  16.246 -0.1569 -0.3802  0.3395
 2322TIP3    H228382   2.933   2.553  16.226 -0.1763 -0.2864  0.2902
 2323TIP3   OH228383   5.639   5.931   0.562 -0.1550 -0.4533  0.1456
 2323TIP3    H128384   5.560   5.911   0.512 -0.4084 -1.1657  0.8277
 2323TIP3    H228385   5.641   5.865   0.631  0.1836  0.5342  1.0867
 2324TIP3   OH228386   6.756   1.029  14.653 -0.2998  0.2021 -0.2618
 2324TIP3    H128387   6.845   1.051  14.681 -0.1882  0.0453 -0.4990
 2324TIP3    H228388   6.752   1.054  14.561 -0.6919  0.7713 -0.0921
 2325TIP3   OH228389   4.770   1.449  13.766 -0.8258  0.7466 -0.2825
 2325TIP3    H128390   4.805   1.450  13.677 -0.2268  1.4518 -0.0418
 2325TIP3    H228391   4.758   1.356  13.785  1.5768  0.4290 -0.1208
 2326TIP3   OH228392   1.989   2.152   3.366  0.1675  0.1185  0.0871
 2326TIP3    H128393   1.916   2.105   3.408 -1.8054  1.7755 -1.3783
 2326TIP3    H228394   2.065   2.096   3.381 -1.4476 -1.7947  1.4546
 2327TIP3   OH228395   2.422   5.346  13.902 -0.4646 -0.7020  0.1488
 2327TIP3    H128396   2.349   5.365  13.843 -1.0158  1.0386  1.3669
 2327TIP3    H228397   2.388   5.277  13.960 -1.6091  0.9459  1.4986
 2328TIP3   OH228398   1.397   4.035   1.932  0.3043 -0.5891 -0.0332
 2328TIP3    H128399   1.370   3.943   1.929 -1.6010 -0.0468 -0.1253
 2328TIP3    H228400   1.366   4.072   1.850 -0.3591  0.5039  0.6957
 2329TIP3   OH228401   5.562   4.251  14.510 -0.0193 -0.0170 -0.4627
 2329TIP3    H128402   5.530   4.232  14.599 -1.9561 -0.0205 -1.1309
 2329TIP3    H228403   5.652   4.280  14.523 -0.2032 -0.2115  1.4924
 2330TIP3   OH228404   4.535   5.573   1.153  0.3695  0.7927 -0.1504
 2330TIP3    H128405   4.441   5.575   1.174  0.5973 -0.2219  1.0330
 2330TIP3    H228406   4.558   5.480   1.156  1.4916  1.0665 -0.0913
 2331TIP3   OH228407   1.412   3.577   0.680  0.1338  0.3843 -0.5805
 2331TIP3    H128408   1.399   3.629   0.759  1.9661  1.0317 -0.6836
 2331TIP3    H228409   1.337   3.598   0.625 -0.3387  1.1280  0.3315
 2332TIP3   OH228410   5.142   3.172   1.874 -0.0863 -0.0931 -0.4848
 2332TIP3    H128411   5.212   3.172   1.809 -0.2732 -1.3337 -0.7075
 2332TIP3    H228412   5.157   3.092   1.926 -0.4452  0.4274  0.4340
 2333TIP3   OH228413   3.838   0.432  12.306 -0.4428  0.1358 -0.0673
 2333TIP3    H128414   3.802   0.361  12.359  0.1019 -0.6804 -0.7880
 2333TIP3    H228415   3.821   0.511  12.358 -2.0314 -0.3825  0.2420
 2334TIP3   OH228416   1.415   3.317  15.899  0.2145  0.0442  0.2295
 2334TIP3    H128417   1.488   3.272  15.943  1.6904 -1.7510 -3.7845
 2334TIP3    H228418   1.420   3.407  15.930  2.1425 -0.8008  2.5143
 2335TIP3   OH228419   5.776   6.532  12.036 -0.0500  0.1434  0.4857
 2335TIP3    H128420   5.818   6.561  12.117 -0.5839  0.2589  0.7204
 2335TIP3    H228421   5.836   6.561  11.967  1.0913 -1.1903  0.9119
 2336TIP3   OH228422   1.713   5.706  12.179 -0.3398  0.0747  0.4734
 2336TIP3    H128423   1.716   5.772  12.110  2.5456  0.3232  0.7930
 2336TIP3    H228424   1.740   5.753  12.258 -2.4597 -0.4927  1.5882
 2337TIP3   OH228425   1.512   6.415  10.664  0.3856 -0.0696 -0.5371
 2337TIP3    H128426   1.562   6.334  10.671 -1.9784 -1.6923 -1.5376
 2337TIP3    H228427   1.491   6.422  10.570  0.7032  1.7964 -0.4917
 2338TIP3   OH228428   5.120   0.155  11.725  0.4729  0.2190  0.4449
 2338TIP3    H128429   5.192   0.135  11.666 -0.3254  3.0346 -1.5852
 2338TIP3    H228430   5.152   0.226  11.780  0.0667 -0.1592  1.1781
 2339TIP3   OH228431   3.381   5.266   2.110  0.1504  0.1309  0.1379
 2339TIP3    H128432   3.377   5.171   2.094 -0.2108 -0.1298  1.6261
 2339TIP3    H228433   3.392   5.305   2.024 -1.4247 -1.1771 -0.6910
 2340TIP3   OH228434   6.068   5.904  15.467  0.2687 -0.6704  0.1106
 2340TIP3    H128435   6.004   5.858  15.412 -0.6335 -1.8280  2.0772
 2340TIP3    H228436   6.149   5.853  15.458 -0.2389 -1.6121  0.8829
 2341TIP3   OH228437   2.835   1.927  13.442  0.5660  0.2600 -0.1357
 2341TIP3    H128438   2.885   1.853  13.409  2.1688  0.5225  1.6495
 2341TIP3    H228439   2.901   1.991  13.469 -0.7698  1.6094  0.0029
 2342TIP3   OH228440   0.939   2.304  13.252 -0.0811 -0.1879 -0.1168
 2342TIP3    H128441   0.859   2.302  13.200 -0.3416 -1.5905  0.3181
 2342TIP3    H228442   0.926   2.236  13.319  0.5150  1.1275  1.3675
 2343TIP3   OH228443   6.237   4.604  10.356 -0.0772 -0.0691  0.5587
 2343TIP3    H128444   6.177   4.562  10.417  0.2111  1.2754  1.8204
 2343TIP3    H228445   6.193   4.685  10.330 -0.4803 -0.9466 -1.5580
 2344TIP3   OH228446   4.641   0.809   1.340  0.1066 -0.1696 -0.1156
 2344TIP3    H128447   4.566   0.750   1.329 -0.2749  0.1853  0.5252
 2344TIP3    H228448   4.670   0.828   1.251 -0.3528 -0.5872 -0.3554
 2345TIP3   OH228449   0.801   1.638   6.077  0.2284 -0.0102 -0.0389
 2345TIP3    H128450   0.854   1.694   6.133 -0.2412  0.9250 -0.5168
 2345TIP3    H228451   0.783   1.691   5.999 -1.1792 -0.4008 -0.0029
 2346TIP3   OH228452   6.364   4.060  12.820 -0.9779 -1.2320 -0.0466
 2346TIP3    H128453   6.391   4.095  12.905 -0.3275  1.7775 -1.4459
 2346TIP3    H228454   6.437   4.005  12.792 -0.3204 -0.5761  0.3831
 2347TIP3   OH228455   3.845   4.950   2.451 -0.1575  0.1497  0.0794
 2347TIP3    H128456   3.870   4.880   2.511 -0.4165 -0.3587 -0.3956
 2347TIP3    H228457   3.842   4.907   2.365  2.3217  1.3087 -0.6562
 2348TIP3   OH228458   2.447   2.839  15.480  0.2975  0.1208  0.1753
 2348TIP3    H128459   2.361   2.800  15.475  0.2574 -0.0581  1.9379
 2348TIP3    H228460   2.506   2.766  15.500  0.4914  0.6196  1.4871
 2349TIP3   OH228461   1.292   1.999   0.916  0.7213  0.9141 -0.3969
 2349TIP3    H128462   1.341   1.929   0.873  0.7389  0.9689 -0.4664
 2349TIP3    H228463   1.202   1.987   0.886  0.7026  0.8463 -0.3119
 2350TIP3   OH228464   3.908   4.530   5.055  0.6360 -0.1828 -0.0959
 2350TIP3    H128465   3.968   4.587   5.102  0.9993 -0.4016 -0.2932
 2350TIP3    H228466   3.859   4.485   5.123  1.6046 -0.9772  0.0840
 2351TIP3   OH228467   2.188   3.253   2.998  0.3892  0.3404  0.1040
 2351TIP3    H128468   2.276   3.262   3.035 -0.9341  1.7802  3.0552
 2351TIP3    H228469   2.182   3.161   2.972  2.0395 -0.2723  1.7911
 2352TIP3   OH228470   5.900   3.482   2.769  0.5092  0.0638 -0.2410
 2352TIP3    H128471   5.885   3.567   2.810 -0.7135  0.4909 -1.5588
 2352TIP3    H228472   5.959   3.501   2.696  0.5510 -0.2808 -0.2970
 2353TIP3   OH228473   3.143   4.659  15.126  0.8613  0.1929  0.6282
 2353TIP3    H128474   3.208   4.670  15.057  0.8180 -0.5627  0.4532
 2353TIP3    H228475   3.187   4.604  15.191  0.2981 -0.6184  0.3451
 2354TIP3   OH228476   0.456   3.731   0.883  0.7110 -0.0522 -0.3974
 2354TIP3    H128477   0.506   3.753   0.962  1.3079 -1.4149 -0.3833
 2354TIP3    H228478   0.423   3.815   0.852  0.3241  0.4924  1.3937
 2355TIP3   OH228479   2.012   5.477   0.520 -0.2016  0.9380  0.0979
 2355TIP3    H128480   2.047   5.388   0.513 -3.8712 -0.5730  0.1047
 2355TIP3    H228481   1.982   5.498   0.431 -3.1128  0.5146  0.9533
 2356TIP3   OH228482   3.482   2.327  14.146 -0.2319 -0.5662  0.1521
 2356TIP3    H128483   3.440   2.253  14.188 -0.4048 -0.3102  0.4310
 2356TIP3    H228484   3.482   2.305  14.053 -1.5081 -0.3054  0.0885
 2357TIP3   OH228485   1.376   6.243   2.794  0.4063 -0.9039  0.2127
 2357TIP3    H128486   1.452   6.209   2.841 -0.0625 -1.3970  0.6178
 2357TIP3    H228487   1.301   6.215   2.846  0.0032  0.7200  0.5215
 2358TIP3   OH228488   3.474   3.226   5.166  0.1148  0.3673 -0.5391
 2358TIP3    H128489   3.443   3.189   5.084 -0.8200 -1.1543  0.4908
 2358TIP3    H228490   3.398   3.269   5.205  0.3578  0.3979 -0.0813
 2359TIP3   OH228491   6.127   6.013   2.373 -0.3084  0.1133  0.0704
 2359TIP3    H128492   6.165   5.993   2.458 -0.5884 -2.5388 -0.3718
 2359TIP3    H228493   6.153   5.940   2.317 -2.8290  0.1728 -1.2592
 2360TIP3   OH228494   3.771   5.217  15.270 -0.2986 -0.8394  0.5075
 2360TIP3    H128495   3.759   5.312  15.276 -1.5979 -0.9785  0.2740
 2360TIP3    H228496   3.709   5.189  15.203  0.7728 -1.7354 -0.1249
 2361TIP3   OH228497   0.371   6.153   1.086 -0.3475 -0.1297  0.2322
 2361TIP3    H128498   0.414   6.089   1.030 -0.8363 -0.3385  0.0990
 2361TIP3    H228499   0.279   6.130   1.084 -0.3565 -0.2421  1.2549
 2362TIP3   OH228500   3.273   2.710   6.281 -0.6406 -0.4941  0.0812
 2362TIP3    H128501   3.252   2.801   6.259 -0.5649 -0.4429  0.2217
 2362TIP3    H228502   3.262   2.663   6.198  1.4550  0.0265 -0.5466
 2363TIP3   OH228503   0.384   4.754   3.564  0.3607 -0.5909  0.4532
 2363TIP3    H128504   0.300   4.779   3.601 -0.5171 -1.8289 -0.6352
 2363TIP3    H228505   0.363   4.683   3.503  1.9351  0.4723 -1.3636
 2364TIP3   OH228506   0.444   6.334   4.725  0.1208  0.3336  0.1175
 2364TIP3    H128507   0.493   6.272   4.670 -0.2660 -0.0935  0.2479
 2364TIP3    H228508   0.355   6.300   4.726 -0.6078  2.1577 -1.6453
 2365TIP3   OH228509   3.563   2.775  15.847 -0.0957 -0.2960 -0.6108
 2365TIP3    H128510   3.474   2.803  15.871  0.2808  1.3105 -0.9712
 2365TIP3    H228511   3.571   2.686  15.880 -1.4811 -0.0757  0.3430
 2366TIP3   OH228512   2.175   2.105  13.751  0.2358 -0.1852 -0.1359
 2366TIP3    H128513   2.123   2.140  13.823  2.6671  2.3554  0.4957
 2366TIP3    H228514   2.160   2.165  13.678  0.5269 -0.7191 -0.6441
 2367TIP3   OH228515   0.789   0.396   4.468 -0.1650 -0.2227  0.1905
 2367TIP3    H128516   0.738   0.467   4.507  0.4641  0.1435  0.3584
 2367TIP3    H228517   0.745   0.377   4.385 -0.6716 -0.0286  0.4142
 2368TIP3   OH228518   1.058   4.146   5.290 -0.0242  0.0220  0.3485
 2368TIP3    H128519   1.025   4.228   5.254  1.8607  0.5303 -0.2644
 2368TIP3    H228520   1.132   4.171   5.345 -0.0452 -1.1870  0.9605
 2369TIP3   OH228521   5.695   3.159   4.381  0.1753 -0.2816  0.3005
 2369TIP3    H128522   5.746   3.191   4.455  1.9541 -0.3303 -0.8632
 2369TIP3    H228523   5.744   3.083   4.349 -1.9663 -1.8486  0.6633
 2370TIP3   OH228524   6.300   3.619  10.796 -1.1649  0.2871 -0.5582
 2370TIP3    H128525   6.356   3.577  10.731 -1.5799 -0.1366 -0.6428
 2370TIP3    H228526   6.335   3.589  10.881 -0.4889  1.0087 -0.5717
 2371TIP3   OH228527   6.039   4.231  12.962  0.2152  0.4407  0.3817
 2371TIP3    H128528   6.046   4.240  12.867  0.3946  0.6325  0.4142
 2371TIP3    H228529   6.021   4.319  12.993 -3.7822 -0.1745  0.1719
 2372TIP3   OH228530   1.561   5.067   5.562  0.1413 -0.0133  0.3799
 2372TIP3    H128531   1.544   5.094   5.652 -2.0737 -1.6385  0.5152
 2372TIP3    H228532   1.499   5.118   5.510  1.1897  0.6818 -0.2010
 2373TIP3   OH228533   3.569   3.103  16.228 -0.3105  0.1377  0.2548
 2373TIP3    H128534   3.586   3.009  16.220  0.2447  0.2930 -0.4428
 2373TIP3    H228535   3.643   3.136  16.280 -0.0407  0.3344 -0.2571
 2374TIP3   OH228536   3.237   2.850   5.031 -0.1538 -0.1059 -0.3268
 2374TIP3    H128537   3.170   2.913   5.056 -1.2065 -1.1716 -0.4475
 2374TIP3    H228538   3.288   2.836   5.111 -1.2858 -0.7655  0.2930
 2375TIP3   OH228539   1.890   5.404   5.389 -0.1183 -0.1204  0.5260
 2375TIP3    H128540   1.828   5.423   5.319 -0.1611 -1.9678  0.0327
 2375TIP3    H228541   1.935   5.487   5.405  1.0879 -0.0379 -2.8491
 2376TIP3   OH228542   0.781   1.831  15.958  0.1084  0.0516 -0.5554
 2376TIP3    H128543   0.702   1.864  16.002  0.0842  0.1628 -0.6807
 2376TIP3    H228544   0.799   1.897  15.891  0.5611  0.2476 -0.2416
 2377TIP3   OH228545   2.110   2.032  16.196  0.3081  0.2801 -0.4894
 2377TIP3    H128546   2.158   1.975  16.255 -0.7949 -1.3341 -1.1010
 2377TIP3    H228547   2.103   2.116  16.242 -1.4503 -1.2510  2.1398
 2378TIP3   OH228548   2.394   3.399  14.993  0.3958  0.6441 -0.0585
 2378TIP3    H128549   2.386   3.482  15.040  0.1882  0.8596 -0.4718
 2378TIP3    H228550   2.304   3.370  14.979  0.4636  0.4213 -0.0479
 2379TIP3   OH228551   6.299   1.552  12.065  0.1577  0.8004 -0.0751
 2379TIP3    H128552   6.354   1.612  12.015  0.4740  0.7761  0.2436
 2379TIP3    H228553   6.209   1.578  12.043  0.2930  1.0318 -0.3622
 2380TIP3   OH228554   0.710   5.362   5.752  0.0861 -0.4088 -0.3999
 2380TIP3    H128555   0.629   5.357   5.701 -0.4038 -2.0790  0.5060
 2380TIP3    H228556   0.685   5.410   5.832 -0.9491 -3.8746  1.4945
 2381TIP3   OH228557   5.613   3.187  15.723  0.1103 -0.4799  0.3316
 2381TIP3    H128558   5.613   3.105  15.672  1.4957  0.1784 -0.7620
 2381TIP3    H228559   5.658   3.164  15.804 -1.8165 -1.4536  1.1637
 2382TIP3   OH228560   1.998   4.078  13.154 -0.3464  0.5590  0.5586
 2382TIP3    H128561   1.928   4.143  13.141 -0.2762  0.0408 -2.6185
 2382TIP3    H228562   1.952   4.000  13.186 -1.0088  0.7064 -0.0338
 2383TIP3   OH228563   1.941   5.542  17.057  0.2808 -0.3450 -0.2978
 2383TIP3    H128564   1.996   5.561  17.133 -0.9525  1.2445  0.2230
 2383TIP3    H228565   2.003   5.526  16.986  1.4143  0.6342  0.4589
 2384TIP3   OH228566   4.802   1.981   1.332 -0.4347 -0.1921 -0.5235
 2384TIP3    H128567   4.743   2.000   1.405  2.1099  0.4398  1.4395
 2384TIP3    H228568   4.806   2.063   1.283  1.0223  0.6649  0.9842
 2385TIP3   OH228569   5.256   1.072  11.000  0.7695  0.1498  0.1018
 2385TIP3    H128570   5.242   1.165  11.014  0.7660  0.0078  1.1171
 2385TIP3    H228571   5.227   1.031  11.082 -2.5427 -1.0834 -1.5916
 2386TIP3   OH228572   4.411   3.571  15.106  0.0534 -0.2317  0.4398
 2386TIP3    H128573   4.316   3.567  15.104 -0.0091  1.1861 -0.6731
 2386TIP3    H228574   4.433   3.598  15.196 -0.4935 -2.0735  1.1459
 2387TIP3   OH228575   2.051   5.044  13.456  0.4067  0.4558  0.3260
 2387TIP3    H128576   2.084   5.111  13.516 -0.1028  0.7120  0.3177
 2387TIP3    H228577   2.086   5.070  13.370 -0.1557  0.9579  0.2466
 2388TIP3   OH228578   1.456   0.089   3.586  0.1483 -0.1946  0.4756
 2388TIP3    H128579   1.535   0.039   3.566 -0.5180 -0.3726 -1.7832
 2388TIP3    H228580   1.471   0.175   3.547 -1.3832 -0.7092 -1.2933
 2389TIP3   OH228581   3.642   1.192   1.255  0.4892 -0.0940  0.7806
 2389TIP3    H128582   3.551   1.162   1.249  0.7981 -0.8012 -0.5041
 2389TIP3    H228583   3.662   1.188   1.348 -0.8729  0.2866  1.1086
 2390TIP3   OH228584   6.674   3.208  11.949  0.0433  0.1452  0.5106
 2390TIP3    H128585   6.717   3.182  11.868  0.2401  2.2938 -0.1033
 2390TIP3    H228586   6.739   3.189  12.017  1.3899  1.8463 -0.2452
 2391TIP3   OH228587   2.516   1.049  16.156 -0.0824  0.4135  0.0981
 2391TIP3    H128588   2.514   1.073  16.063 -3.4508  0.4520  0.1105
 2391TIP3    H228589   2.546   1.127  16.201 -0.0561  0.9409 -0.8272
 2392TIP3   OH228590   1.735   0.601   1.317 -1.0581 -0.2152 -0.5217
 2392TIP3    H128591   1.784   0.617   1.236 -0.6670 -1.9760 -0.6495
 2392TIP3    H228592   1.786   0.533   1.363  0.6166  3.1389  2.8460
 2393TIP3   OH228593   3.793   5.941  17.219  0.0155  0.0518 -0.4038
 2393TIP3    H128594   3.887   5.952  17.232  0.0373  0.2203 -0.7033
 2393TIP3    H228595   3.785   5.895  17.135 -0.1907  0.5508 -0.6584
 2394TIP3   OH228596   1.003   3.391   2.879 -0.1685  0.1666  0.4964
 2394TIP3    H128597   0.951   3.364   2.803  0.0500 -0.6969  0.6483
 2394TIP3    H228598   1.070   3.449   2.842 -0.4618  0.2726  0.1251
 2395TIP3   OH228599   3.861   0.709  13.981 -0.7142  0.3090  0.0953
 2395TIP3    H128600   3.863   0.699  14.076 -0.3443  0.0727  0.0619
 2395TIP3    H228601   3.852   0.620  13.947 -0.8881  0.3958 -0.0904
 2396TIP3   OH228602   1.630   6.033   5.149 -0.5113 -0.2970 -0.7906
 2396TIP3    H128603   1.553   6.089   5.139  0.4012  1.4556  1.4912
 2396TIP3    H228604   1.595   5.950   5.181 -1.5195  0.3458 -0.1801
 2397TIP3   OH228605   6.225   3.655   6.268  0.3180 -0.2245 -0.3084
 2397TIP3    H128606   6.292   3.613   6.215  1.4694  1.4165 -0.2161
 2397TIP3    H228607   6.273   3.717   6.323 -1.1406  0.0434  0.7125
 2398TIP3   OH228608   3.300   0.639  13.623  0.0345 -0.6186 -0.2509
 2398TIP3    H128609   3.319   0.547  13.641 -1.5009 -0.6439  1.3447
 2398TIP3    H228610   3.310   0.682  13.708 -0.3998  0.4967 -0.7576
 2399TIP3   OH228611   3.935   2.374   0.333 -0.1605  0.1221  0.4270
 2399TIP3    H128612   3.916   2.463   0.303 -0.5937  0.1867  0.8945
 2399TIP3    H228613   3.969   2.329   0.255  0.9747  0.9619  0.4266
 2400TIP3   OH228614   0.582   4.781  17.006  0.4645 -0.5339 -0.0005
 2400TIP3    H128615   0.518   4.810  17.071  0.4505  1.5345 -0.9155
 2400TIP3    H228616   0.555   4.691  16.985 -1.1686 -0.2492  0.8058
 2401TIP3   OH228617   6.379   5.297  17.049  0.2357 -0.9321 -0.1917
 2401TIP3    H128618   6.331   5.378  17.067 -0.5112 -1.4460  0.1258
 2401TIP3    H228619   6.353   5.237  17.119  2.3267 -0.8102  0.7452
 2402TIP3   OH228620   3.446   1.008   4.158  0.1760 -0.5812 -0.4014
 2402TIP3    H128621   3.382   1.064   4.115  2.3095  2.1217 -0.1968
 2402TIP3    H228622   3.411   0.996   4.246  0.6990  2.2402  0.2413
 2403TIP3   OH228623   1.650   6.228  12.057 -0.4441 -0.2143  1.2517
 2403TIP3    H128624   1.602   6.311  12.063 -1.2583 -0.6576  0.9360
 2403TIP3    H228625   1.713   6.241  11.985 -2.3543 -0.7510 -0.5646
 2404TIP3   OH228626   2.380   2.217   5.995  0.3626 -0.6154  0.7000
 2404TIP3    H128627   2.366   2.127   6.025  1.5434 -0.7674  0.8520
 2404TIP3    H228628   2.354   2.216   5.903  1.4366 -1.4182  0.3824
 2405TIP3   OH228629   0.851   1.415  11.055  0.1701  0.5953  0.0897
 2405TIP3    H128630   0.836   1.504  11.087 -2.1153  0.2167  0.1131
 2405TIP3    H228631   0.843   1.421  10.960 -1.3108  0.1918  0.1755
 2406TIP3   OH228632   3.031   4.573  17.068  0.1164 -0.4886 -0.1949
 2406TIP3    H128633   3.104   4.629  17.039 -0.5977  0.0821 -0.9153
 2406TIP3    H228634   3.026   4.505  17.001 -1.3117  0.6307 -1.2505
 2407TIP3   OH228635   4.022   1.932  13.731  0.1453 -0.2325  0.6309
 2407TIP3    H128636   3.958   1.888  13.674 -1.0824  0.8095  1.1848
 2407TIP3    H228637   4.089   1.964  13.671 -0.3185 -0.5268 -0.0605
 2408TIP3   OH228638   5.566   0.201   4.776 -0.3753 -0.4348  0.3864
 2408TIP3    H128639   5.600   0.287   4.800 -0.8239 -0.0676 -0.2935
 2408TIP3    H228640   5.644   0.147   4.767  0.0123  0.3091 -0.7828
 2409TIP3   OH228641   5.036   5.233   1.096  0.3161  0.4583  0.4979
 2409TIP3    H128642   4.986   5.162   1.055 -0.9774  1.3274  0.5546
 2409TIP3    H228643   4.985   5.257   1.173  1.3733  0.6391  1.1533
 2410TIP3   OH228644   5.438   1.005  10.795  0.0649  0.6108 -0.2354
 2410TIP3    H128645   5.462   0.912  10.798 -0.2389  0.4509 -2.1417
 2410TIP3    H228646   5.385   1.018  10.874  1.6109 -0.3863  0.9915
 2411TIP3   OH228647   6.252   3.848   2.211  0.0429 -0.0256 -0.4130
 2411TIP3    H128648   6.187   3.906   2.250  0.3986  0.6216 -0.7787
 2411TIP3    H228649   6.202   3.794   2.149 -0.3342 -0.3074  0.1327
 2412TIP3   OH228650   4.713   1.202   5.435 -0.3783  0.0505 -0.3071
 2412TIP3    H128651   4.798   1.158   5.430 -1.3982 -2.1493  0.9601
 2412TIP3    H228652   4.673   1.186   5.350 -0.0103  0.1061 -0.4941
 2413TIP3   OH228653   1.490   6.658   2.375  0.2670 -0.4775 -0.6986
 2413TIP3    H128654   1.576   6.683   2.408  0.4297 -0.9184 -0.7936
 2413TIP3    H228655   1.486   6.563   2.386  0.3133 -0.6341 -1.9254
 2414TIP3   OH228656   5.875   3.562   4.317 -0.4909  0.2436 -0.0013
 2414TIP3    H128657   5.794   3.551   4.366 -0.7177 -1.0422 -0.6623
 2414TIP3    H228658   5.944   3.536   4.378 -0.5806  1.1184  0.4843
 2415TIP3   OH228659   5.852   3.269   1.372  0.1307  0.4201 -0.3081
 2415TIP3    H128660   5.848   3.357   1.411 -1.2809 -0.8615  2.6381
 2415TIP3    H228661   5.763   3.236   1.381  0.5385 -1.1210 -1.8764
 2416TIP3   OH228662   0.631   2.539   4.659  0.4790  0.2808  0.0866
 2416TIP3    H128663   0.568   2.558   4.729 -1.6047 -0.2846 -1.5503
 2416TIP3    H228664   0.651   2.446   4.670  0.6809  0.3527  0.3336
 2417TIP3   OH228665   3.311   1.361   0.554 -0.1198 -0.0942  0.2354
 2417TIP3    H128666   3.401   1.393   0.555 -0.3281  0.5472 -0.6470
 2417TIP3    H228667   3.266   1.420   0.494 -1.0209 -0.6972  0.3172
 2418TIP3   OH228668   1.696   2.045  14.228 -0.3113  0.0608 -0.2901
 2418TIP3    H128669   1.659   2.047  14.317  0.6631 -0.0266  0.1288
 2418TIP3    H228670   1.781   2.003  14.239 -0.0606  0.3142 -1.2272
 2419TIP3   OH228671   4.741   5.989   2.721  0.4192  0.2543  0.0279
 2419TIP3    H128672   4.795   6.054   2.765 -0.6364  1.2191 -0.0926
 2419TIP3    H228673   4.697   5.942   2.793  0.4157  0.3445  0.0842
 2420TIP3   OH228674   0.211   4.031   2.979 -0.4624 -0.4648 -0.2856
 2420TIP3    H128675   0.128   4.030   3.026  0.2063 -2.6051  0.9149
 2420TIP3    H228676   0.266   3.968   3.025  2.0691  1.3808 -0.6559
 2421TIP3   OH228677   0.298   5.336  13.485 -0.0525 -0.1348 -0.5174
 2421TIP3    H128678   0.347   5.275  13.431  0.3265  2.2773 -2.9920
 2421TIP3    H228679   0.227   5.368  13.428 -0.5438  1.3408  0.8708
 2422TIP3   OH228680   5.274   3.055  11.463 -0.2027 -0.7149  0.0510
 2422TIP3    H128681   5.276   3.123  11.396 -1.5297 -0.4405  0.2809
 2422TIP3    H228682   5.192   3.069  11.510  0.0947 -1.7074  0.9025
 2423TIP3   OH228683   0.624   3.165  12.929 -0.5159  0.3428  0.2724
 2423TIP3    H128684   0.580   3.249  12.911 -2.6917 -0.9306 -0.6596
 2423TIP3    H228685   0.574   3.102  12.878  0.6622 -1.6438  1.5332
 2424TIP3   OH228686   3.748   0.592   3.387 -0.0437 -0.0197  0.1083
 2424TIP3    H128687   3.758   0.498   3.403  0.3759  0.3273  1.9660
 2424TIP3    H228688   3.825   0.615   3.335 -0.9884 -0.9919 -1.7964
 2425TIP3   OH228689   4.047   5.041  16.755  0.8644  0.5206  0.5640
 2425TIP3    H128690   3.969   5.025  16.701  0.0558  1.7723  1.3278
 2425TIP3    H228691   4.110   5.081  16.695  1.4309 -1.7166 -0.3841
 2426TIP3   OH228692   0.559   2.842   5.477 -0.0113 -0.0517  0.2053
 2426TIP3    H128693   0.593   2.894   5.404  1.8672 -2.2427 -0.5790
 2426TIP3    H228694   0.626   2.850   5.545 -0.3455 -0.3529  0.5709
 2427TIP3   OH228695   0.452   0.530  16.421 -0.4735  0.3489  0.1329
 2427TIP3    H128696   0.465   0.437  16.406  2.1507  0.7355 -0.2564
 2427TIP3    H228697   0.464   0.570  16.335  0.2704  1.2140  0.6247
 2428TIP3   OH228698   1.601   1.319   5.098  0.0999 -0.2122 -0.5596
 2428TIP3    H128699   1.525   1.358   5.140 -1.5026 -1.7656 -1.9526
 2428TIP3    H228700   1.667   1.313   5.168 -1.8749 -1.0910  1.2581
 2429TIP3   OH228701   0.978   2.502  15.496 -0.2130 -0.5073 -0.1542
 2429TIP3    H128702   1.060   2.492  15.546 -0.4245  1.2645  0.6044
 2429TIP3    H228703   0.999   2.570  15.431 -0.9915 -0.2894 -0.1737
 2430TIP3   OH228704   3.215   3.655   5.595 -0.1976 -0.8064 -0.5183
 2430TIP3    H128705   3.267   3.710   5.653  0.0378 -0.4837 -1.0209
 2430TIP3    H228706   3.250   3.567   5.606 -1.8631 -1.2141  1.7418
 2431TIP3   OH228707   3.530   4.553   4.044 -0.0394 -0.2930  0.3839
 2431TIP3    H128708   3.471   4.628   4.053 -0.5372 -0.6563  0.1604
 2431TIP3    H228709   3.473   4.477   4.050  0.6825 -0.7186  2.4806
 2432TIP3   OH228710   4.953   5.281  14.012  0.0310  0.5391 -0.1990
 2432TIP3    H128711   4.972   5.325  14.094 -0.9132 -0.3509  0.5145
 2432TIP3    H228712   5.022   5.310  13.952  2.2345 -0.7915  1.6335
 2433TIP3   OH228713   2.528   1.565  14.596  0.1510  0.2450  0.1355
 2433TIP3    H128714   2.548   1.480  14.558  0.3650  0.7007 -0.7907
 2433TIP3    H228715   2.470   1.546  14.670 -2.2251 -0.4476 -1.8749
 2434TIP3   OH228716   6.221   1.648  13.914  0.5021 -0.1234  0.1192
 2434TIP3    H128717   6.187   1.582  13.854  1.1579  0.3066 -0.7351
 2434TIP3    H228718   6.205   1.612  14.001  0.4490 -1.2051 -0.3312
 2435TIP3   OH228719   3.600   3.507  15.851 -0.3163 -0.5067  0.4481
 2435TIP3    H128720   3.664   3.570  15.885  1.0393 -1.6240 -0.0155
 2435TIP3    H228721   3.553   3.555  15.783  0.2064  0.2475  0.6125
 2436TIP3   OH228722   1.176   5.672  15.089  0.0268 -0.0874 -0.6697
 2436TIP3    H128723   1.193   5.644  15.179 -1.5793  1.2499  0.0555
 2436TIP3    H228724   1.127   5.599  15.050  0.6175 -0.6118 -0.4560
 2437TIP3   OH228725   6.007   6.078   3.347 -0.1164  0.2152  0.2753
 2437TIP3    H128726   6.043   6.166   3.332  0.0670  0.4146  1.7843
 2437TIP3    H228727   6.031   6.058   3.437  1.6091 -2.2246 -0.6720
 2438TIP3   OH228728   3.166   3.858  14.995 -0.1713  0.2079  0.2402
 2438TIP3    H128729   3.102   3.927  15.016  0.2702  0.5919  0.3303
 2438TIP3    H228730   3.121   3.777  15.019 -1.7475  0.2437 -2.3765
 2439TIP3   OH228731   2.131   5.196  13.219  0.1033  0.5667 -0.8663
 2439TIP3    H128732   2.136   5.271  13.159  1.1938  1.9185  0.8426
 2439TIP3    H228733   2.222   5.178  13.242 -0.4153  2.2822  2.9643
 2440TIP3   OH228734   2.676   1.345  12.493 -0.0539  0.3911 -0.0033
 2440TIP3    H128735   2.727   1.418  12.459 -0.9576  0.4987 -1.1458
 2440TIP3    H228736   2.723   1.267  12.465 -0.7009  0.4827 -1.3558
 2441TIP3   OH228737   5.881   1.748  16.895  0.1306 -0.0303 -0.2607
 2441TIP3    H128738   5.953   1.800  16.861  0.4962 -0.0669  0.4403
 2441TIP3    H228739   5.825   1.811  16.941 -0.3059  0.0040 -0.8364
 2442TIP3   OH228740   6.191   3.157  13.443 -0.2294  0.7119  0.6581
 2442TIP3    H128741   6.259   3.148  13.510 -1.1408  0.1635  1.5127
 2442TIP3    H228742   6.109   3.139  13.489 -0.9686  1.4312 -0.3544
 2443TIP3   OH228743   0.150   1.354  12.442 -0.3246  0.2064 -0.0163
 2443TIP3    H128744   0.154   1.273  12.493  1.1296  0.2779  0.0043
 2443TIP3    H228745   0.139   1.423  12.507 -1.5755  0.0356 -0.0334
 2444TIP3   OH228746   4.762   5.042   1.196  0.6057 -0.1345 -0.3242
 2444TIP3    H128747   4.810   5.009   1.120  0.4855  1.0753 -0.9221
 2444TIP3    H228748   4.822   5.027   1.270  1.4333  0.3036 -0.8992
 2445TIP3   OH228749   6.264   1.050  11.592 -0.2403  0.8083  1.0601
 2445TIP3    H128750   6.195   0.990  11.561  0.3920  0.2591  0.7098
 2445TIP3    H228751   6.321   1.062  11.516  0.9011  0.0547  1.7990
 2446TIP3   OH228752   6.517   2.379   0.268 -0.1233  0.3994 -0.0917
 2446TIP3    H128753   6.540   2.287   0.258  2.0925  0.7691  1.2116
 2446TIP3    H228754   6.491   2.407   0.180  1.0792 -0.9798 -0.9192
 2447TIP3   OH228755   2.802   3.125   2.190 -0.2306  0.4364 -0.5335
 2447TIP3    H128756   2.743   3.098   2.261 -0.3749 -0.1106 -0.8540
 2447TIP3    H228757   2.831   3.042   2.151  0.0754  0.7287 -0.9292
 2448TIP3   OH228758   3.026   0.363  11.144 -0.5902 -0.0148  0.0768
 2448TIP3    H128759   2.937   0.363  11.180 -0.5058 -0.2971  0.2906
 2448TIP3    H228760   3.025   0.431  11.077 -0.7976  0.4007  0.4995
 2449TIP3   OH228761   1.872   4.663  13.414 -0.0187 -0.1789 -0.1432
 2449TIP3    H128762   1.807   4.624  13.473 -0.6856  1.5011  0.2666
 2449TIP3    H228763   1.823   4.678  13.332  0.4284 -0.8864 -0.5401
 2450TIP3   OH228764   2.222   4.425   5.720 -0.4999  0.2184 -0.0147
 2450TIP3    H128765   2.189   4.444   5.808  0.3225  0.3146  0.2793
 2450TIP3    H228766   2.232   4.511   5.679  0.6843  0.2830  0.3822
 2451TIP3   OH228767   1.234   0.498   2.100 -0.9228  0.1482  0.2639
 2451TIP3    H128768   1.325   0.489   2.128 -0.5556  1.0844 -0.6264
 2451TIP3    H228769   1.209   0.586   2.128 -1.6517 -0.1951  0.7391
 2452TIP3   OH228770   3.053   2.048  16.661 -0.2624 -0.5135 -0.4114
 2452TIP3    H128771   3.061   2.131  16.614 -0.2361 -0.6060 -0.5713
 2452TIP3    H228772   3.058   1.982  16.592 -1.9616 -0.5993 -0.4703
 2453TIP3   OH228773   4.677   6.610  15.290  0.2237 -0.0036 -0.5196
 2453TIP3    H128774   4.674   6.575  15.379  0.9637  0.3913 -0.3374
 2453TIP3    H228775   4.597   6.577  15.249 -0.0548 -0.3002  0.2478
 2454TIP3   OH228776   4.155   2.436  13.596 -0.1321 -0.1966 -0.3092
 2454TIP3    H128777   4.246   2.442  13.626  0.5857  0.9624 -2.5442
 2454TIP3    H228778   4.162   2.409  13.504 -1.9844  1.0727 -0.8611
 2455TIP3   OH228779   5.488   3.555  13.640  0.0267  0.0015  0.3295
 2455TIP3    H128780   5.562   3.547  13.700  0.7173  1.2833 -0.3242
 2455TIP3    H228781   5.413   3.574  13.698  0.4768  0.1418  0.8738
 2456TIP3   OH228782   0.236   1.500   5.179  0.4042  0.2444 -0.0598
 2456TIP3    H128783   0.182   1.571   5.212  0.3842  0.3783 -0.3740
 2456TIP3    H228784   0.173   1.435   5.146  0.4001 -0.4307  1.2681
 2457TIP3   OH228785   3.193   2.982  15.629 -0.7417 -0.2692  0.3610
 2457TIP3    H128786   3.217   3.002  15.539 -0.1012 -0.6894  0.4367
 2457TIP3    H228787   3.111   3.030  15.643 -1.2322 -0.7783 -0.6751
 2458TIP3   OH228788   1.843   3.254  15.902  0.4262  0.0125 -0.5650
 2458TIP3    H128789   1.916   3.204  15.939 -0.4032 -1.3350 -0.7242
 2458TIP3    H228790   1.793   3.190  15.853 -0.0166  1.2423 -1.7565
 2459TIP3   OH228791   1.972   1.274  16.313 -0.3714  0.1424 -0.3458
 2459TIP3    H128792   2.036   1.224  16.364 -0.8611 -1.7460 -1.5588
 2459TIP3    H228793   1.925   1.326  16.379 -0.7127 -1.9454  1.0823
 2460TIP3   OH228794   4.420   3.478  11.910 -0.1970  0.2847 -0.0031
 2460TIP3    H128795   4.456   3.503  11.825 -0.6755  0.9062 -0.0335
 2460TIP3    H228796   4.408   3.383  11.905  1.5109  0.0658  0.0538
 2461TIP3   OH228797   4.913   3.560  10.843 -0.1747  0.4729 -0.0099
 2461TIP3    H128798   4.925   3.538  10.751 -0.4707  2.0743 -0.4560
 2461TIP3    H228799   4.993   3.530  10.886 -0.0870 -0.3973 -0.7560
 2462TIP3   OH228800   0.180   2.523  10.684  0.0352  0.3419 -0.3046
 2462TIP3    H128801   0.169   2.536  10.590  2.4190  1.3976 -0.4785
 2462TIP3    H228802   0.269   2.553  10.702 -0.3294  0.0027  2.2683
 2463TIP3   OH228803   3.491   1.427   1.352 -0.1271  0.3589 -0.0628
 2463TIP3    H128804   3.576   1.450   1.390 -0.6733 -0.2821  1.5772
 2463TIP3    H228805   3.441   1.390   1.424 -1.7034  0.4171 -1.0863
 2464TIP3   OH228806   5.941   0.132   1.578  0.3226  0.0216 -0.5262
 2464TIP3    H128807   5.897   0.207   1.539 -0.6212 -0.9884 -1.4025
 2464TIP3    H228808   5.950   0.155   1.670 -0.8146  0.8068 -0.6066
 2465TIP3   OH228809   5.933   1.164  15.487 -0.1504  0.0336  0.5266
 2465TIP3    H128810   5.903   1.177  15.577 -0.8542  0.1298  0.2764
 2465TIP3    H228811   5.876   1.095  15.452 -1.2953  1.4688 -0.5296
 2466TIP3   OH228812   4.166   1.760   0.309 -0.0778  0.0574 -0.4367
 2466TIP3    H128813   4.224   1.790   0.379 -0.6310  1.3612 -0.5268
 2466TIP3    H228814   4.096   1.825   0.306 -0.4764 -0.4138 -1.6812
 2467TIP3   OH228815   1.180   4.330   3.825  0.3514 -0.3803  0.5463
 2467TIP3    H128816   1.260   4.369   3.790 -0.5078  1.0265  0.1273
 2467TIP3    H228817   1.110   4.391   3.801 -0.6932 -0.9969  1.9333
 2468TIP3   OH228818   3.759   3.703  15.958 -0.7160 -0.4373  0.1288
 2468TIP3    H128819   3.737   3.794  15.978 -0.3704 -0.0051 -1.4286
 2468TIP3    H228820   3.843   3.689  16.001 -1.2414 -0.3249  1.2037
 2469TIP3   OH228821   4.577   1.055   2.497 -0.1250 -0.2633  0.4034
 2469TIP3    H128822   4.597   1.131   2.442 -1.2287 -0.5415 -0.3825
 2469TIP3    H228823   4.663   1.018   2.518  0.3323  0.2246 -0.5756
 2470TIP3   OH228824   6.354   5.254  12.750 -0.5143  0.0276 -0.0086
 2470TIP3    H128825   6.306   5.191  12.803  1.8670 -0.3066  1.8609
 2470TIP3    H228826   6.363   5.331  12.806  1.1252  0.0610 -0.2775
 2471TIP3   OH228827   1.312   1.275  16.234  0.0144  0.0886 -0.5472
 2471TIP3    H128828   1.296   1.266  16.328 -0.1973 -1.1986 -0.6984
 2471TIP3    H228829   1.237   1.323  16.201 -0.8907 -1.1871 -0.3728
 2472TIP3   OH228830   0.932   4.728   4.068  0.3162  0.2232 -0.3899
 2472TIP3    H128831   0.843   4.697   4.050  0.2099  0.7185 -0.7250
 2472TIP3    H228832   0.940   4.726   4.163  0.8286 -2.2836 -0.4336
 2473TIP3   OH228833   0.884   1.067  13.818  0.4973 -0.6225 -0.5232
 2473TIP3    H128834   0.824   1.141  13.809  0.6379 -0.2568  1.4821
 2473TIP3    H228835   0.928   1.063  13.733 -0.2202  0.9657 -1.0038
 2474TIP3   OH228836   0.912   2.793   0.960 -1.0132 -0.6236 -0.3824
 2474TIP3    H128837   0.828   2.764   0.924  0.1350 -1.1526 -2.7892
 2474TIP3    H228838   0.967   2.807   0.882  0.5691  1.4519  1.0564
 2475TIP3   OH228839   0.100   3.793   3.853  0.4228 -0.1372  0.6542
 2475TIP3    H128840   0.102   3.883   3.887 -0.5228 -0.0991  0.6063
 2475TIP3    H228841   0.187   3.781   3.814 -0.2328  1.5767 -1.4486
 2476TIP3   OH228842   2.319   6.115  10.938 -0.3234 -0.0533  0.5482
 2476TIP3    H128843   2.414   6.117  10.948  0.0591 -2.1681 -2.1477
 2476TIP3    H228844   2.298   6.023  10.921 -3.0002  0.2002  2.2569
 2477TIP3   OH228845   3.620   4.206   2.118  0.0999 -0.1039  0.2527
 2477TIP3    H128846   3.699   4.188   2.066 -0.5111  0.5995 -0.9270
 2477TIP3    H228847   3.649   4.194   2.209  1.1553 -1.4188 -0.2337
 2478TIP3   OH228848   4.750   5.291   5.916  0.0223 -0.1220  0.0724
 2478TIP3    H128849   4.680   5.226   5.912 -0.3097  0.2623 -0.5898
 2478TIP3    H228850   4.825   5.245   5.953 -1.5939  0.3795  4.2314
 2479TIP3   OH228851   0.894   6.260  14.337 -0.0700  0.0479  0.1938
 2479TIP3    H128852   0.913   6.167  14.344  0.3432  0.2989  2.8204
 2479TIP3    H228853   0.799   6.266  14.341 -0.0164 -0.1258  2.4149
 2480TIP3   OH228854   6.216   4.027   3.205 -0.3863 -0.7053  0.5190
 2480TIP3    H128855   6.216   4.046   3.112  2.4261 -0.8621  0.4423
 2480TIP3    H228856   6.151   4.087   3.242  0.4352  1.2770 -1.1693
 2481TIP3   OH228857   6.296   5.511  14.541 -0.5175 -0.1811 -0.2826
 2481TIP3    H128858   6.333   5.454  14.474  0.8481 -0.2726  0.5366
 2481TIP3    H228859   6.306   5.462  14.623 -1.9894  0.0106  0.0171
 2482TIP3   OH228860   4.431   6.399   0.957  0.0647  0.2070  0.1246
 2482TIP3    H128861   4.378   6.388   1.036  0.2239  1.3332  0.4067
 2482TIP3    H228862   4.438   6.312   0.920 -0.9406 -0.1535  0.7649
 2483TIP3   OH228863   1.919   4.360  11.734  0.2842  0.9241  0.6327
 2483TIP3    H128864   1.956   4.282  11.775 -2.5956 -0.2445  1.0758
 2483TIP3    H228865   1.887   4.330  11.649 -0.7720  1.6416  0.7760
 2484TIP3   OH228866   1.701   5.174  15.090 -0.2993  0.2578 -0.3221
 2484TIP3    H128867   1.702   5.268  15.072 -0.7027  0.3708  0.2699
 2484TIP3    H228868   1.614   5.157  15.124 -1.0678 -0.7455 -2.6800
 2485TIP3   OH228869   5.529   1.321   4.085 -0.6122  0.1723  0.5513
 2485TIP3    H128870   5.493   1.379   4.151  0.9173  1.0420  0.6545
 2485TIP3    H228871   5.624   1.335   4.090 -0.3620 -0.9384 -0.7110
 2486TIP3   OH228872   2.897   2.640   6.119 -0.2700 -0.2904 -0.3763
 2486TIP3    H128873   2.863   2.555   6.146 -0.7512  0.1717  0.4738
 2486TIP3    H228874   2.878   2.698   6.192 -0.4660  0.6862 -1.1979
 2487TIP3   OH228875   6.376   5.007  14.127 -0.3856 -0.3622 -0.0163
 2487TIP3    H128876   6.412   5.069  14.191 -0.3216  0.2559 -0.6556
 2487TIP3    H228877   6.284   4.999  14.152 -0.4773  0.2631 -0.1533
 2488TIP3   OH228878   4.010   4.011  15.962  0.2925 -0.0841 -0.2389
 2488TIP3    H128879   3.984   4.022  15.871 -1.1347 -0.1272  0.1404
 2488TIP3    H228880   3.950   4.069  16.011  1.2294  0.1534  0.6344
 2489TIP3   OH228881   6.385   0.404  12.635 -0.3233 -0.2304 -0.4552
 2489TIP3    H128882   6.386   0.404  12.731 -0.8804  2.5992 -0.4094
 2489TIP3    H228883   6.477   0.407  12.610 -0.0589 -3.4381 -0.0940
 2490TIP3   OH228884   4.347   1.043   4.581  0.3344  0.2385 -0.0218
 2490TIP3    H128885   4.403   1.067   4.508  0.6895 -0.9564 -0.1563
 2490TIP3    H228886   4.258   1.053   4.548  0.4932 -1.6764 -1.1086
 2491TIP3   OH228887   6.301   2.171   2.708 -1.0126 -0.7967 -0.9621
 2491TIP3    H128888   6.368   2.232   2.676 -1.7774  0.7188  0.2982
 2491TIP3    H228889   6.332   2.085   2.679  1.0063 -0.0232 -1.1868
 2492TIP3   OH228890   2.784   2.696   3.828 -0.0170 -0.5462  0.2148
 2492TIP3    H128891   2.712   2.710   3.767  0.1037  0.6368  0.3303
 2492TIP3    H228892   2.769   2.759   3.899 -0.1435 -1.8746  1.4000
 2493TIP3   OH228893   2.473   5.676  13.313  0.2341  0.1392 -0.0516
 2493TIP3    H128894   2.452   5.636  13.397  0.8160 -1.3878 -0.6059
 2493TIP3    H228895   2.546   5.735  13.331  1.7878 -1.7896  0.1644
 2494TIP3   OH228896   6.479   0.304  14.033  0.1818  0.3189 -0.1834
 2494TIP3    H128897   6.483   0.247  13.957  0.9366  0.1820 -0.0385
 2494TIP3    H228898   6.402   0.359  14.017 -0.2242 -0.3590 -0.5794
 2495TIP3   OH228899   5.174   6.696   2.097  0.0952 -0.1040 -0.2826
 2495TIP3    H128900   5.105   6.760   2.113 -0.1613 -0.4310 -0.0890
 2495TIP3    H228901   5.143   6.615   2.138  0.5922 -0.2525 -0.1927
 2496TIP3   OH228902   2.672   3.196   4.418  0.1929 -0.1213 -0.0021
 2496TIP3    H128903   2.653   3.263   4.352 -2.4608  2.0694  2.8244
 2496TIP3    H228904   2.766   3.204   4.434  0.4015  1.0373 -1.7315
 2497TIP3   OH228905   1.379   4.693  14.271 -0.3402  0.3614  0.2748
 2497TIP3    H128906   1.399   4.600  14.285  0.0722  0.3588 -0.3233
 2497TIP3    H228907   1.286   4.695  14.251 -0.3403  0.0691  0.2473
 2498TIP3   OH228908   3.592   1.508  12.935 -0.5234  0.0340 -0.0075
 2498TIP3    H128909   3.568   1.600  12.943 -0.1542  0.0050  1.7127
 2498TIP3    H228910   3.520   1.468  12.886 -1.2341  1.0067  0.2372
 2499TIP3   OH228911   2.242   5.679  16.274 -0.4470 -0.1291 -0.0945
 2499TIP3    H128912   2.199   5.684  16.360 -2.2768  2.0817 -1.0825
 2499TIP3    H228913   2.332   5.705  16.290 -0.9923  1.1086  1.0337
 2500TIP3   OH228914   4.799   5.053  12.662  0.5152  1.1265  0.1559
 2500TIP3    H128915   4.750   5.090  12.736  0.2814  1.5222 -0.1886
 2500TIP3    H228916   4.889   5.084  12.675  0.3422  1.7487 -0.0739
 2501TIP3   OH228917   0.522   1.465   1.219 -0.5749 -0.3578 -0.1852
 2501TIP3    H128918   0.540   1.465   1.313 -0.6950 -1.3526 -0.1561
 2501TIP3    H228919   0.604   1.438   1.178 -0.9605 -1.4238 -0.2672
 2502TIP3   OH228920   5.937   4.540  16.341 -0.4682  0.4477 -0.5189
 2502TIP3    H128921   5.978   4.614  16.295 -0.8414  1.0332  0.0726
 2502TIP3    H228922   6.010   4.482  16.363 -0.1850  0.5868 -1.0889
 2503TIP3   OH228923   1.615   4.562   1.366  0.5908  0.3449  0.3730
 2503TIP3    H128924   1.630   4.491   1.303  1.6436  1.4299 -0.6193
 2503TIP3    H228925   1.527   4.593   1.345  0.6767  0.2591 -0.1231
 2504TIP3   OH228926   4.791   3.436   0.357 -0.4033  0.1740 -0.4119
 2504TIP3    H128927   4.878   3.398   0.349 -0.2307  0.7848 -1.6483
 2504TIP3    H228928   4.800   3.524   0.320 -1.5722  0.1892 -0.6879
 2505TIP3   OH228929   1.107   4.186  12.174  0.1633  0.1335 -0.6733
 2505TIP3    H128930   1.025   4.166  12.129 -0.4104 -0.2412  0.5260
 2505TIP3    H228931   1.102   4.280  12.191  0.5078  0.3300 -1.6322
 2506TIP3   OH228932   2.520   3.382   2.816  0.1674 -0.3162  0.5858
 2506TIP3    H128933   2.612   3.376   2.793  0.1125 -0.0878  0.2946
 2506TIP3    H228934   2.519   3.391   2.911  0.4812  0.5029  0.5142
 2507TIP3   OH228935   2.623   0.023   2.747  0.5794 -0.6883  0.0778
 2507TIP3    H128936   2.637   0.034   2.653 -1.0002  1.3930  0.0478
 2507TIP3    H228937   2.625   0.112   2.782 -0.3385 -1.3265  1.7997
 2508TIP3   OH228938   3.658   6.153   4.517 -0.3924 -0.0305 -0.1698
 2508TIP3    H128939   3.673   6.072   4.565 -1.4273 -0.6387 -0.8778
 2508TIP3    H228940   3.580   6.137   4.466 -0.2750  1.2222 -0.7550
 2509TIP3   OH228941   2.524   4.577  14.711  0.1170  0.0876  0.0467
 2509TIP3    H128942   2.492   4.615  14.629 -0.1637 -1.4972 -0.6006
 2509TIP3    H228943   2.618   4.596  14.711 -0.2864  2.2683  0.5781
 2510TIP3   OH228944   3.182   1.422   1.810 -0.8199  0.2505 -0.5207
 2510TIP3    H128945   3.101   1.473   1.816  0.7840  2.8444  0.0913
 2510TIP3    H228946   3.234   1.451   1.885  1.0012 -0.7753 -1.3482
 2511TIP3   OH228947   6.388   0.155   5.151 -0.0259  0.3124 -0.0721
 2511TIP3    H128948   6.440   0.232   5.130 -1.9373  1.4589 -0.7767
 2511TIP3    H228949   6.439   0.081   5.119  0.7606  1.4719 -1.5255
 2512TIP3   OH228950   2.438   2.902   5.158 -0.2964 -0.3122  0.6662
 2512TIP3    H128951   2.428   2.993   5.186  0.3605  0.4915 -1.5589
 2512TIP3    H228952   2.491   2.861   5.226 -1.0273  0.8361  1.9416
 2513TIP3   OH228953   5.126   0.227   5.483 -0.5646  0.3228 -0.0400
 2513TIP3    H128954   5.213   0.213   5.444 -0.3772  0.2797  0.3987
 2513TIP3    H228955   5.105   0.144   5.526 -1.0778  0.1373 -0.6431
 2514TIP3   OH228956   4.181   4.167   6.684 -0.2747 -0.3521 -0.5618
 2514TIP3    H128957   4.224   4.209   6.610 -1.2422  1.2644 -0.2303
 2514TIP3    H228958   4.196   4.074   6.671  0.5647 -0.0089 -2.1547
 2515TIP3   OH228959   0.723   5.623   0.846  0.2946 -0.1561 -0.1763
 2515TIP3    H128960   0.650   5.639   0.907  1.0022  0.8011  0.4429
 2515TIP3    H228961   0.682   5.582   0.770 -0.9280  0.5253  0.0969
 2516TIP3   OH228962   6.389   6.612  14.049 -0.1523 -0.0854 -0.2969
 2516TIP3    H128963   6.321   6.648  14.106  1.1709 -0.3280  1.4597
 2516TIP3    H228964   6.431   6.690  14.012  0.0322  0.1067  0.3078
 2517TIP3   OH228965   4.217   3.197  13.573 -0.0662 -0.4136 -0.0932
 2517TIP3    H128966   4.296   3.153  13.540 -0.2514 -0.0454 -1.0402
 2517TIP3    H228967   4.200   3.266  13.509 -1.3132 -0.6639 -0.0443
 2518TIP3   OH228968   1.012   1.852   4.962  0.3415  0.1160  0.2752
 2518TIP3    H128969   0.926   1.893   4.952 -0.1905 -1.3058 -1.0966
 2518TIP3    H228970   1.000   1.763   4.929  2.6511  0.2861 -1.1173
 2519TIP3   OH228971   0.812   2.765  15.360  0.2295 -0.3250  0.1735
 2519TIP3    H128972   0.821   2.693  15.298 -0.0853  0.1009 -0.3719
 2519TIP3    H228973   0.820   2.844  15.306  1.6317  0.0605  0.9107
 2520TIP3   OH228974   6.308   2.685  15.577  0.2195  0.1326 -0.5988
 2520TIP3    H128975   6.403   2.678  15.571  0.1755 -0.6644 -0.3741
 2520TIP3    H228976   6.279   2.692  15.486  0.2847 -2.4249 -0.8371
 2521TIP3   OH228977   1.062   1.326  12.518  0.7014  0.1018  0.5657
 2521TIP3    H128978   1.110   1.281  12.448  1.0498 -0.3918  1.1110
 2521TIP3    H228979   0.999   1.381  12.473  0.5623 -0.6195 -0.1262
 2522TIP3   OH228980   5.572   6.089  16.370  0.1114  0.2371  0.4769
 2522TIP3    H128981   5.619   6.026  16.315  1.2632  1.8240 -0.3717
 2522TIP3    H228982   5.486   6.048  16.384  0.4536 -1.0364 -0.9675
 2523TIP3   OH228983   3.532   5.249   0.923  0.4599 -0.8808 -0.2204
 2523TIP3    H128984   3.546   5.269   1.016  0.8324 -2.9272  0.1857
 2523TIP3    H228985   3.532   5.334   0.880  0.8123  0.0584  1.5863
 2524TIP3   OH228986   3.378   5.637  10.932  0.3917  0.1533 -0.1347
 2524TIP3    H128987   3.306   5.693  10.901  0.5337  0.6142  0.3461
 2524TIP3    H228988   3.457   5.686  10.909  0.4967  0.5165  0.9629
 2525TIP3   OH228989   0.816   0.345   1.187  0.0919  0.0147  0.0373
 2525TIP3    H128990   0.747   0.336   1.121  0.2293 -1.8305  0.1063
 2525TIP3    H228991   0.777   0.399   1.256 -1.6095 -1.7420  0.4944
 2526TIP3   OH228992   2.814   2.739  12.651 -0.1141 -0.4395  0.4312
 2526TIP3    H128993   2.827   2.734  12.745 -0.4283 -2.0574  0.3901
 2526TIP3    H228994   2.876   2.676  12.614  2.2458  2.3778 -0.6643
 2527TIP3   OH228995   3.025   0.816  15.922 -0.4170 -0.3502  0.1763
 2527TIP3    H128996   2.941   0.861  15.923 -0.5315 -0.5632  0.2547
 2527TIP3    H228997   3.026   0.767  15.840 -0.6317 -0.8342  0.4603
 2528TIP3   OH228998   0.589   0.941   0.447 -0.0035 -1.0718 -0.3554
 2528TIP3    H128999   0.530   1.016   0.436  0.0526 -1.0635 -0.6035
 2528TIP3    H229000   0.549   0.889   0.517  0.4603 -0.3165  0.4717
 2529TIP3   OH229001   0.558   0.728  14.758  0.1861  0.8265 -0.0079
 2529TIP3    H129002   0.467   0.755  14.745 -0.1186  0.4634  1.3325
 2529TIP3    H229003   0.552   0.636  14.785  0.9290  0.9186  0.4844
 2530TIP3   OH229004   3.046   1.972  14.387 -0.2477 -0.3999  0.4769
 2530TIP3    H129005   3.044   1.878  14.366 -0.7175 -0.2973  0.0499
 2530TIP3    H229006   3.002   1.978  14.471 -2.9950 -0.2069 -0.9318
 2531TIP3   OH229007   0.444   5.767   4.049 -0.0998 -0.2903  0.4919
 2531TIP3    H129008   0.429   5.749   3.956 -1.4403  0.5437  0.5410
 2531TIP3    H229009   0.440   5.862   4.056 -1.5095 -0.4136  1.6394
 2532TIP3   OH229010   1.458   5.525  16.358 -0.7776  0.4678 -0.1718
 2532TIP3    H129011   1.402   5.537  16.281 -0.8017 -0.1334 -0.2444
 2532TIP3    H229012   1.547   5.531  16.323 -0.7818  2.2145  0.0661
 2533TIP3   OH229013   3.681   6.631  12.798 -0.4834 -0.5811 -0.3383
 2533TIP3    H129014   3.618   6.696  12.768 -0.9724 -1.1604 -0.5577
 2533TIP3    H229015   3.739   6.680  12.857 -0.4817  0.1878 -0.9716
 2534TIP3   OH229016   0.797   2.970   4.159 -0.1805  0.3347  0.1751
 2534TIP3    H129017   0.758   2.943   4.242  0.1305 -0.7139 -0.0117
 2534TIP3    H229018   0.882   3.005   4.182  0.0774 -0.3444  0.2595
 2535TIP3   OH229019   2.678   3.624  11.117 -0.2804  0.2443  0.8027
 2535TIP3    H129020   2.706   3.701  11.067  1.5733 -0.5816  0.5285
 2535TIP3    H229021   2.654   3.560  11.049  0.5410 -0.2612  0.9819
 2536TIP3   OH229022   3.668   0.705   0.937 -0.0777 -0.0302 -0.3066
 2536TIP3    H129023   3.708   0.753   1.010  0.4759 -1.5026  0.3752
 2536TIP3    H229024   3.585   0.674   0.971 -0.3835  0.3448 -0.7090
 2537TIP3   OH229025   6.172   5.584  16.422 -0.3311 -0.2995 -0.1657
 2537TIP3    H129026   6.198   5.623  16.505 -1.1808 -2.0003  0.9353
 2537TIP3    H229027   6.251   5.540  16.390  0.9233  2.9874 -1.9086
 2538TIP3   OH229028   2.745   0.921   4.197  0.0165 -0.3563  0.1610
 2538TIP3    H129029   2.735   0.833   4.161 -1.7940  0.2038 -0.7400
 2538TIP3    H229030   2.693   0.977   4.140  0.8411  1.2542  0.9532
 2539TIP3   OH229031   1.669   2.313  15.596  0.4550  0.4011  0.2622
 2539TIP3    H129032   1.690   2.228  15.556 -0.1376  1.4978 -2.4643
 2539TIP3    H229033   1.575   2.322  15.585  0.4610  1.2464  0.8830
 2540TIP3   OH229034   5.993   2.738   2.467  0.1647 -0.2118 -0.2482
 2540TIP3    H129035   6.055   2.717   2.397 -0.0006 -2.1694  0.1643
 2540TIP3    H229036   5.934   2.802   2.428  0.8943 -0.2513 -1.4666
 2541TIP3   OH229037   6.534   4.855  16.845 -0.1594  0.3084 -0.4995
 2541TIP3    H129038   6.510   4.824  16.758  1.8312  0.3799 -1.0924
 2541TIP3    H229039   6.537   4.776  16.899 -2.6531  0.3966 -0.1421
 2542TIP3   OH229040   6.300   4.520   0.612  0.3663  0.5733 -0.2311
 2542TIP3    H129041   6.209   4.509   0.584  0.6001  0.8040 -1.0983
 2542TIP3    H229042   6.320   4.440   0.661 -0.1107  0.2493 -0.5601
 2543TIP3   OH229043   6.156   4.868  14.450  0.3880  0.2211  0.1504
 2543TIP3    H129044   6.163   4.854  14.355 -1.6111 -1.3435  0.1833
 2543TIP3    H229045   6.131   4.960  14.458  2.3739  0.8696 -0.7279
 2544TIP3   OH229046   5.413   2.237  15.657  0.2164  0.2966  0.3663
 2544TIP3    H129047   5.486   2.242  15.719 -1.0102 -0.5387  1.9271
 2544TIP3    H229048   5.339   2.207  15.710 -0.8540 -0.4873 -1.5277
 2545TIP3   OH229049   2.779   2.100   6.323  0.1176 -0.0376 -0.1698
 2545TIP3    H129050   2.709   2.104   6.258  1.0854 -1.6829 -1.3309
 2545TIP3    H229051   2.765   2.178   6.378 -2.4544 -0.2102 -0.5395
 2546TIP3   OH229052   3.232   1.138  13.579 -0.1898  0.2608 -0.0055
 2546TIP3    H129053   3.157   1.081  13.595 -0.5173  1.0441  1.3503
 2546TIP3    H229054   3.308   1.085  13.602 -0.3790 -0.2818 -0.6394
 2547TIP3   OH229055   2.416   3.920  16.373 -0.2072  0.3413  0.4520
 2547TIP3    H129056   2.428   3.953  16.283 -3.0405  0.8296  0.2086
 2547TIP3    H229057   2.441   3.994  16.429 -0.5669  0.8128  0.0023
 2548TIP3   OH229058   2.017   4.013   6.741 -0.2012 -0.3011 -0.1482
 2548TIP3    H129059   1.970   4.011   6.658 -0.3266  0.6053 -0.1030
 2548TIP3    H229060   2.063   4.097   6.740  0.8472 -0.8671  0.1215
 2549TIP3   OH229061   4.629   1.573  12.043 -0.4899 -0.3140 -0.0476
 2549TIP3    H129062   4.552   1.565  12.098 -0.1931  0.2465  0.4611
 2549TIP3    H229063   4.703   1.554  12.101  0.0062  2.7860  0.4267
 2550TIP3   OH229064   1.109   2.275   0.572 -0.5379  0.5163 -0.0797
 2550TIP3    H129065   1.169   2.211   0.533  0.4371  1.9231 -0.9243
 2550TIP3    H229066   1.104   2.248   0.664 -2.1407 -2.2657 -0.9125
 2551TIP3   OH229067   2.617   3.636   3.818 -0.6653 -0.2389  0.1944
 2551TIP3    H129068   2.566   3.667   3.743 -0.4446  2.8011  1.2192
 2551TIP3    H229069   2.697   3.688   3.816 -1.1929  0.7959  3.1897
 2552TIP3   OH229070   4.844   0.375   0.304  0.4456 -0.0867  0.3148
 2552TIP3    H129071   4.868   0.464   0.329  1.4091 -0.5561  1.0808
 2552TIP3    H229072   4.854   0.324   0.384  0.0776 -0.9218 -0.1640
 2553TIP3   OH229073   2.880   3.391  17.037 -0.1059 -0.1984 -0.3520
 2553TIP3    H129074   2.811   3.374  17.101 -0.3923  3.2000  0.3614
 2553TIP3    H229075   2.948   3.327  17.058 -0.8812 -0.2448  2.2930
 2554TIP3   OH229076   0.691   5.185   2.588  0.2714 -0.3221  0.6859
 2554TIP3    H129077   0.722   5.247   2.653  0.6621 -0.4140  0.5908
 2554TIP3    H229078   0.632   5.235   2.532  0.4788 -0.0754  0.6918
 2555TIP3   OH229079   2.280   1.361   1.952 -0.2294 -0.4055 -0.5097
 2555TIP3    H129080   2.225   1.296   1.995  0.2670 -0.1348  0.5508
 2555TIP3    H229081   2.330   1.401   2.023 -1.3235  1.8999 -0.9700
 2556TIP3   OH229082   3.209   3.903  16.980 -0.2560  0.2195 -0.3299
 2556TIP3    H129083   3.242   3.815  17.000 -2.4054 -0.5530  0.0946
 2556TIP3    H229084   3.118   3.900  17.010 -0.3657  2.5853 -0.3856
 2557TIP3   OH229085   2.189   3.831  11.943  0.1995  0.2573 -0.9607
 2557TIP3    H129086   2.173   3.883  12.022 -0.1376 -0.5736 -0.4645
 2557TIP3    H229087   2.257   3.879  11.895  1.6890 -0.1405  0.7114
 2558TIP3   OH229088   2.058   4.540  14.977 -0.0835  0.2169 -0.5964
 2558TIP3    H129089   2.115   4.584  14.914 -0.5306 -0.5467 -1.5598
 2558TIP3    H229090   2.117   4.504  15.043  0.5665 -0.6363 -1.6305
 2559TIP3   OH229091   5.818   2.900  12.662  0.4800  0.1237 -0.0183
 2559TIP3    H129092   5.898   2.849  12.675  0.9312  0.9268  0.3977
 2559TIP3    H229093   5.756   2.862  12.724  0.1168 -1.3804 -1.2853
 2560TIP3   OH229094   6.394   6.266   3.779  0.3104  0.0871  0.0275
 2560TIP3    H129095   6.373   6.274   3.686  1.2221  0.6732 -0.1363
 2560TIP3    H229096   6.313   6.289   3.824 -0.4006 -1.1036 -0.6305
 2561TIP3   OH229097   4.774   4.135  11.919 -0.2680 -0.2322 -0.4502
 2561TIP3    H129098   4.837   4.063  11.914 -1.5346 -1.2891 -1.4010
 2561TIP3    H229099   4.828   4.214  11.918  0.9540 -1.0619 -3.2166
 2562TIP3   OH229100   6.782   0.710   0.553 -0.6099  0.7206  0.0451
 2562TIP3    H129101   6.816   0.621   0.550  1.1463  1.2575  2.2055
 2562TIP3    H229102   6.727   0.718   0.475 -0.5945 -2.1477 -0.3012
 2563TIP3   OH229103   2.405   2.441   4.926  0.3362 -0.5873 -0.1962
 2563TIP3    H129104   2.337   2.396   4.876  1.1459 -1.9273 -0.1255
 2563TIP3    H229105   2.359   2.512   4.971 -0.7388 -0.5513 -1.3170
 2564TIP3   OH229106   2.110   3.791  12.944 -0.5206 -0.0460 -0.2671
 2564TIP3    H129107   2.128   3.870  12.892  0.5211  0.5722  0.9873
 2564TIP3    H229108   2.017   3.775  12.933 -0.8707  1.7658  0.0096
 2565TIP3   OH229109   2.185   3.778   4.068 -0.2785  0.0348  0.1095
 2565TIP3    H129110   2.096   3.759   4.038  0.6742 -0.1224 -2.8293
 2565TIP3    H229111   2.234   3.698   4.051  0.3276 -0.0912  2.2888
 2566TIP3   OH229112   4.578   2.441   6.609  0.5164  0.5415  0.5550
 2566TIP3    H129113   4.555   2.364   6.661 -0.1672  0.8799  0.7706
 2566TIP3    H229114   4.598   2.509   6.674  0.8357  0.6218  0.3717
 2567TIP3   OH229115   3.981   2.928   6.428  0.0424 -0.1132  0.2725
 2567TIP3    H129116   3.939   2.842   6.435 -1.4125  0.4963 -0.9209
 2567TIP3    H229117   4.042   2.931   6.503  0.3831 -2.3186  0.1013
 2568TIP3   OH229118   1.400   6.183   5.991 -0.5617  0.0820 -0.3251
 2568TIP3    H129119   1.412   6.100   6.039 -0.0954  1.1796  1.5312
 2568TIP3    H229120   1.326   6.167   5.932 -0.6941 -1.5522  0.2660
 2569TIP3   OH229121   0.442   5.584  12.609  0.2791 -0.6594  0.0985
 2569TIP3    H129122   0.390   5.603  12.531 -0.0909 -0.5156  0.3820
 2569TIP3    H229123   0.409   5.500  12.641 -0.5892 -0.0080  0.9510
 2570TIP3   OH229124   4.922   5.014   1.863 -0.1390 -1.0726 -0.2550
 2570TIP3    H129125   4.888   5.087   1.914  0.4522 -0.1635 -1.1563
 2570TIP3    H229126   4.922   5.045   1.772  1.4123 -1.6981 -0.4860
 2571TIP3   OH229127   5.464   1.811   5.660 -0.4011 -0.1439  0.1008
 2571TIP3    H129128   5.461   1.906   5.675  1.0945  0.0399 -0.7170
 2571TIP3    H229129   5.552   1.794   5.629  0.1952 -2.2061  2.7339
 2572TIP3   OH229130   2.878   4.549  12.354  0.3416 -0.5911  0.0017
 2572TIP3    H129131   2.940   4.508  12.415 -0.1195 -1.7112 -0.2741
 2572TIP3    H229132   2.853   4.631  12.398 -0.8947 -1.9372  1.9110
 2573TIP3   OH229133   0.314   6.378  13.151 -0.7448  0.0327 -0.1474
 2573TIP3    H129134   0.379   6.332  13.205 -0.8568 -0.1590 -0.1761
 2573TIP3    H229135   0.354   6.463  13.132  0.1404 -0.6550 -1.4236
 2574TIP3   OH229136   2.704   3.896  14.970 -0.4930  0.2634 -0.2117
 2574TIP3    H129137   2.688   3.892  15.064 -4.2732  1.5669 -0.7002
 2574TIP3    H229138   2.788   3.941  14.962  0.5883 -1.1619  2.5573
 2575TIP3   OH229139   0.717   5.674  14.836  0.3360 -0.3285  0.0754
 2575TIP3    H129140   0.632   5.718  14.848  0.5648 -0.0520  0.7148
 2575TIP3    H229141   0.700   5.583  14.858  0.0581 -0.3954 -0.4086
 2576TIP3   OH229142   0.315   6.393   5.353 -0.4915 -0.2752 -0.0877
 2576TIP3    H129143   0.378   6.322   5.347 -0.6070 -0.7817  3.5736
 2576TIP3    H229144   0.305   6.408   5.447 -3.9407  1.4898 -0.6655
 2577TIP3   OH229145   1.962   0.434  16.846 -0.3826 -0.8116  0.2006
 2577TIP3    H129146   1.960   0.404  16.937 -0.3944 -0.2522  0.3905
 2577TIP3    H229147   2.040   0.489  16.841 -0.9122 -0.0473  0.1335
 2578TIP3   OH229148   2.087   0.731  11.902  0.5619  0.3526 -0.2424
 2578TIP3    H129149   2.043   0.816  11.891 -0.4035 -0.0545  0.3848
 2578TIP3    H229150   2.041   0.690  11.975  1.3659 -0.4983 -0.2095
 2579TIP3   OH229151   2.220   6.375  11.008 -0.6490 -0.2098  0.0617
 2579TIP3    H129152   2.304   6.407  10.977 -0.8906  0.9171  0.5342
 2579TIP3    H229153   2.212   6.288  10.971  0.6540 -0.2613 -0.1150
 2580TIP3   OH229154   0.133   3.688   0.548 -0.4148 -0.3326  0.1895
 2580TIP3    H129155   0.085   3.711   0.628  0.1135  0.5066  0.2730
 2580TIP3    H229156   0.117   3.594   0.537 -0.5745 -0.4391  1.2269
 2581TIP3   OH229157   0.748   5.869  10.338  0.1908  0.3217  0.1851
 2581TIP3    H129158   0.739   5.801  10.404  1.7162 -1.3629 -1.3116
 2581TIP3    H229159   0.807   5.933  10.379  0.5631 -0.3564  0.7310
 2582TIP3   OH229160   0.768   3.001   1.125  0.2139 -0.2187 -0.0313
 2582TIP3    H129161   0.821   3.068   1.169 -1.4953  2.6562 -2.1539
 2582TIP3    H229162   0.821   2.976   1.049  0.1780 -0.1415 -0.0818
 2583TIP3   OH229163   5.671   2.426  12.503 -0.2630 -0.2171  0.1105
 2583TIP3    H129164   5.689   2.374  12.424 -1.0553  0.5086 -0.5589
 2583TIP3    H229165   5.718   2.380  12.573  1.3474 -0.2644 -0.9672
 2584TIP3   OH229166   5.869   5.416  15.766 -0.0422 -0.3962  0.1238
 2584TIP3    H129167   5.819   5.340  15.795 -1.9666  0.2191 -1.4827
 2584TIP3    H229168   5.813   5.491  15.786 -0.9355  0.1396 -3.9526
 2585TIP3   OH229169   6.350   5.139   3.136 -0.6707 -0.9361 -0.0831
 2585TIP3    H129170   6.291   5.212   3.118  0.9449  0.0989 -1.3150
 2585TIP3    H229171   6.331   5.114   3.226 -1.3996  0.8556  0.2779
 2586TIP3   OH229172   3.207   4.116   3.075 -0.1228  0.1012 -0.0240
 2586TIP3    H129173   3.231   4.150   3.161 -0.0095  0.1735 -0.0828
 2586TIP3    H229174   3.160   4.188   3.033 -1.0724 -0.2958  0.3614
 2587TIP3   OH229175   4.786   6.375  12.792 -0.2282  0.1049 -0.3555
 2587TIP3    H129176   4.722   6.407  12.728  0.3945 -0.6315 -1.3650
 2587TIP3    H229177   4.845   6.319  12.741 -1.1407 -2.4846  1.3329
 2588TIP3   OH229178   3.191   1.356  11.395 -0.1725 -0.1364 -0.1389
 2588TIP3    H129179   3.183   1.363  11.490 -0.2512  3.0118 -0.3390
 2588TIP3    H229180   3.105   1.324  11.365 -1.1524  1.6973  0.6249
 2589TIP3   OH229181   0.976   4.860   1.281 -0.7303  0.3386 -0.4496
 2589TIP3    H129182   1.010   4.878   1.194  2.3117 -0.0063  0.6107
 2589TIP3    H229183   0.950   4.768   1.279  2.3658 -0.5862 -0.0971
 2590TIP3   OH229184   1.083   3.902  15.696 -0.2356  0.6065  0.3710
 2590TIP3    H129185   1.145   3.975  15.689  0.9505 -0.4967 -1.2076
 2590TIP3    H229186   1.065   3.877  15.606 -2.2726  0.2951  0.8485
 2591TIP3   OH229187   2.830   5.618  11.280  0.8629  0.6604 -0.3435
 2591TIP3    H129188   2.881   5.539  11.261  0.0691 -0.0050  0.2433
 2591TIP3    H229189   2.845   5.675  11.205  1.1033 -0.2359 -0.9817
 2592TIP3   OH229190   3.073   5.842   1.642 -0.0762  1.1525 -0.4755
 2592TIP3    H129191   3.166   5.820   1.653  0.1082  1.1618 -2.0101
 2592TIP3    H229192   3.042   5.784   1.573 -1.5133  0.3420  0.8154
 2593TIP3   OH229193   2.401   4.881  16.770 -0.6596 -0.3292 -0.5689
 2593TIP3    H129194   2.487   4.906  16.737  0.4751 -1.5887  1.2942
 2593TIP3    H229195   2.387   4.792  16.736 -1.0296 -0.2947 -0.5117
 2594TIP3   OH229196   2.588   0.569   4.747  0.6754 -0.1215 -0.2863
 2594TIP3    H129197   2.607   0.490   4.798  1.0034  0.0883 -0.0868
 2594TIP3    H229198   2.552   0.536   4.664 -0.4530 -0.4571  0.3181
 2595TIP3   OH229199   0.494   1.294  12.732 -0.0146 -0.4025 -0.2209
 2595TIP3    H129200   0.531   1.381  12.748 -1.3151 -0.0069  0.7267
 2595TIP3    H229201   0.461   1.266  12.817 -3.0313 -0.1810 -1.2579
 2596TIP3   OH229202   0.756   0.625  16.168 -0.1702 -0.4552  0.2033
 2596TIP3    H129203   0.758   0.580  16.253 -0.6133  1.1430  1.1023
 2596TIP3    H229204   0.833   0.682  16.170 -1.4929  1.3724  0.5763
 2597TIP3   OH229205   6.670   2.213   1.862 -0.1524  0.1691 -0.1874
 2597TIP3    H129206   6.658   2.141   1.924 -1.5377  1.6022  1.2703
 2597TIP3    H229207   6.630   2.182   1.781 -0.0557 -0.9987  0.2023
 2598TIP3   OH229208   1.411   0.380  15.482 -0.4973  0.0393 -0.0828
 2598TIP3    H129209   1.319   0.358  15.495 -0.5311  0.6135  0.6757
 2598TIP3    H229210   1.458   0.302  15.514 -0.7616 -1.0819 -2.3504
 2599TIP3   OH229211   2.815   1.804  16.904 -0.2088 -0.0907  0.2566
 2599TIP3    H129212   2.736   1.818  16.956  1.9709  2.8855  2.9835
 2599TIP3    H229213   2.808   1.866  16.831  0.0323  0.8757  1.0465
 2600TIP3   OH229214   6.260   6.504  10.956  0.1194  0.5743 -0.1365
 2600TIP3    H129215   6.284   6.471  10.869  3.0557  1.8839  0.1237
 2600TIP3    H229216   6.202   6.578  10.938  1.2249  1.2514 -1.0362
 2601TIP3   OH229217   0.518   6.431   4.418  0.0160  0.0748 -0.0265
 2601TIP3    H129218   0.601   6.385   4.429 -0.3237 -0.2063  1.6149
 2601TIP3    H229219   0.454   6.373   4.459 -0.8473  0.7063 -0.4737
 2602TIP3   OH229220   2.595   6.473  14.350  0.7062 -0.3407  0.2028
 2602TIP3    H129221   2.593   6.464  14.445  0.7996 -0.4613  0.1939
 2602TIP3    H229222   2.554   6.557  14.332  1.8783  0.2940  0.4325
 2603TIP3   OH229223   2.176   4.788  14.890  0.3512  0.0098 -0.4205
 2603TIP3    H129224   2.216   4.792  14.977  1.3294  1.2354 -0.9081
 2603TIP3    H229225   2.139   4.876  14.877 -1.8175 -0.8601 -0.3033
 2604TIP3   OH229226   0.963   6.618   1.514 -0.1258  0.2646 -0.1944
 2604TIP3    H129227   0.982   6.647   1.425 -0.5131  0.8408 -0.0904
 2604TIP3    H229228   0.903   6.544   1.502  0.3903 -0.1201 -0.4358
 2605TIP3   OH229229   6.088   3.695  16.954  0.0140 -0.0713  0.5975
 2605TIP3    H129230   6.055   3.624  16.897 -0.1269 -1.0067  1.8172
 2605TIP3    H229231   6.009   3.744  16.977 -0.0318 -0.1486  0.6059
 2606TIP3   OH229232   2.387   4.142  10.231 -0.0526  0.3997 -0.1286
 2606TIP3    H129233   2.328   4.213  10.257 -0.2989  0.0303  0.3220
 2606TIP3    H229234   2.471   4.185  10.217 -0.3799  0.9010 -0.5901
 2607TIP3   OH229235   4.213   4.696   3.979  0.3789 -0.3522  0.1089
 2607TIP3    H129236   4.234   4.761   3.912  0.3568 -0.4579 -0.0009
 2607TIP3    H229237   4.166   4.745   4.047  1.6569  0.0454  0.7273
 2608TIP3   OH229238   6.514   4.854   5.886 -0.0643  0.2479  0.1086
 2608TIP3    H129239   6.434   4.805   5.903 -0.6730  1.4992  0.8826
 2608TIP3    H229240   6.487   4.923   5.825  0.7188 -0.1721 -0.7213
 2609TIP3   OH229241   6.281   3.125   5.308  0.4652  0.1523  0.2240
 2609TIP3    H129242   6.361   3.168   5.339  0.3023 -0.3090  1.2924
 2609TIP3    H229243   6.228   3.112   5.387 -0.6280  0.3719 -0.4650
 2610TIP3   OH229244   1.074   0.035  16.266  0.0279 -0.7150  0.2164
 2610TIP3    H129245   1.097  -0.017  16.343  2.4779 -0.3873 -0.2569
 2610TIP3    H229246   1.155   0.040  16.216 -0.6305  2.1049 -0.6260
 2611TIP3   OH229247   0.121   1.124   3.440  0.1007 -0.5625  0.0437
 2611TIP3    H129248   0.157   1.037   3.426  0.2849 -0.3800 -0.6174
 2611TIP3    H229249   0.181   1.165   3.502 -0.2437 -1.0625  0.7230
 2612TIP3   OH229250   2.867   3.790   3.813  0.0515 -0.3679  0.3971
 2612TIP3    H129251   2.947   3.800   3.760  0.5499  1.8980  1.5124
 2612TIP3    H229252   2.807   3.855   3.777 -0.4135 -0.3895  1.1344
 2613TIP3   OH229253   2.853   0.518   2.148  0.3536  0.0665  0.9027
 2613TIP3    H129254   2.936   0.531   2.194  0.8285 -1.9232  0.6873
 2613TIP3    H229255   2.796   0.588   2.180  2.4637  2.1984  0.1348
 2614TIP3   OH229256   0.517   3.643  11.466  0.0365  0.3012 -0.1743
 2614TIP3    H129257   0.600   3.604  11.495 -0.8157 -1.2367  0.2267
 2614TIP3    H229258   0.451   3.576  11.482 -0.9780  0.6410 -2.6450
 2615TIP3   OH229259   2.958   1.160  15.996  0.1687 -0.3278 -0.5795
 2615TIP3    H129260   2.887   1.218  16.025 -0.7670 -1.3995 -0.6639
 2615TIP3    H229261   2.918   1.109  15.925  1.0836 -0.8420 -0.7212
 2616TIP3   OH229262   4.216   0.316   0.335  0.4243  0.4843 -0.6235
 2616TIP3    H129263   4.122   0.301   0.324 -0.1342  0.8206  3.0337
 2616TIP3    H229264   4.225   0.411   0.336  0.7151  0.4565 -0.4832
 2617TIP3   OH229265   1.870   2.726  11.794  0.0713  0.1222  0.3049
 2617TIP3    H129266   1.846   2.804  11.844 -0.4078  0.9846 -1.2731
 2617TIP3    H229267   1.836   2.653  11.847  0.4843  0.9554  1.7639
 2618TIP3   OH229268   0.141   0.444  11.983 -0.3562 -0.5225  0.0470
 2618TIP3    H129269   0.215   0.505  11.985 -0.4794 -0.3641 -0.1956
 2618TIP3    H229270   0.181   0.358  11.976 -0.2276 -0.3551 -1.3840
 2619TIP3   OH229271   0.598   5.707   1.782 -0.1194 -1.1992 -0.9208
 2619TIP3    H129272   0.584   5.659   1.863  1.0940 -0.0843 -0.0261
 2619TIP3    H229273   0.654   5.649   1.730  2.0719 -0.4360  0.5048
 2620TIP3   OH229274   3.631   2.249   2.260  0.7150 -0.1879  0.0959
 2620TIP3    H129275   3.655   2.272   2.350 -0.5438 -1.4380  0.7753
 2620TIP3    H229276   3.538   2.272   2.253  0.4034 -1.5064 -0.3767
 2621TIP3   OH229277   4.649   1.655   2.786  0.1942 -0.5752 -0.0329
 2621TIP3    H129278   4.701   1.685   2.860 -0.3489  1.0012 -0.2765
 2621TIP3    H229279   4.595   1.584   2.822  0.5936 -0.4365  0.8603
 2622TIP3   OH229280   1.607   2.817  14.251  0.3535 -0.1870  0.8755
 2622TIP3    H129281   1.566   2.855  14.174  1.7810 -0.9607 -0.2985
 2622TIP3    H229282   1.606   2.887  14.316 -0.1577  0.7324 -0.1147
 2623TIP3   OH229283   3.357   3.909  16.284 -0.7411  0.6294  0.1307
 2623TIP3    H129284   3.376   4.002  16.296 -0.9215  0.7244 -0.3114
 2623TIP3    H229285   3.262   3.903  16.289 -0.7825  0.5881 -0.6479
 2624TIP3   OH229286   3.433   5.911  15.212  0.7165  0.5926 -0.0517
 2624TIP3    H129287   3.497   5.849  15.246  1.7927  1.2229 -0.8947
 2624TIP3    H229288   3.460   5.927  15.121 -0.8009  0.6495 -0.5121
 2625TIP3   OH229289   5.175   2.008  14.271  0.0175  0.0022 -0.0255
 2625TIP3    H129290   5.170   2.088  14.218  0.0233  0.0307  0.0166
 2625TIP3    H229291   5.107   2.019  14.338  0.2684  0.1421  0.2108
 2626TIP3   OH229292   0.931   0.380  12.532 -0.4013 -0.0463 -0.0369
 2626TIP3    H129293   0.838   0.397  12.520 -0.1761  0.7973 -0.6070
 2626TIP3    H229294   0.942   0.373  12.627 -1.5411 -3.0857 -0.0784
 2627TIP3   OH229295   3.081   1.866  16.453 -0.1071 -0.2617  0.1935
 2627TIP3    H129296   3.139   1.795  16.481  0.5314  0.9232  1.9176
 2627TIP3    H229297   3.130   1.912  16.385  1.2416  1.0641  2.0162
 2628TIP3   OH229298   4.572   4.010  13.461 -0.2010 -0.5684  0.1904
 2628TIP3    H129299   4.573   3.995  13.556  0.1355 -1.6263  0.0340
 2628TIP3    H229300   4.498   4.068  13.446  1.7678  2.4071  1.5043
 2629TIP3   OH229301   1.103   5.061   1.597  0.2917  0.3215 -0.0308
 2629TIP3    H129302   1.079   5.094   1.510 -0.5741 -0.0822  0.0512
 2629TIP3    H229303   1.039   5.100   1.656  1.2943  1.1356  0.5307
 2630TIP3   OH229304   5.241   1.445   1.510  0.4561 -0.2040 -0.3018
 2630TIP3    H129305   5.185   1.452   1.587  1.6427 -0.8742  0.6523
 2630TIP3    H229306   5.190   1.483   1.439  0.7020  3.7364  1.5186
 2631TIP3   OH229307   3.441   6.681  16.136  0.2293  0.9592 -0.2217
 2631TIP3    H129308   3.358   6.652  16.174 -0.7072  2.3938 -1.1598
 2631TIP3    H229309   3.507   6.624  16.177 -1.1731 -0.0026  0.7308
 2632TIP3   OH229310   5.050   1.240  12.708 -0.4150 -0.6135  0.1933
 2632TIP3    H129311   5.015   1.328  12.691 -1.4148 -1.2693 -1.2123
 2632TIP3    H229312   5.137   1.241  12.669 -0.5111 -0.3220 -0.0211
 2633TIP3   OH229313   2.380   0.187   2.662  0.8901 -0.5017  0.6537
 2633TIP3    H129314   2.364   0.107   2.611  1.1677 -0.0574 -0.1491
 2633TIP3    H229315   2.372   0.258   2.598 -1.8392  0.3359  1.8219
 2634TIP3   OH229316   2.541   6.346  11.488 -0.3351  0.0182 -0.2939
 2634TIP3    H129317   2.576   6.421  11.439  3.4702 -1.2081  0.4136
 2634TIP3    H229318   2.464   6.381  11.533  0.6926  3.1954 -0.8764
 2635TIP3   OH229319   2.460   5.648  12.050  0.1225  0.0613 -0.2641
 2635TIP3    H129320   2.443   5.661  12.143 -5.1534  0.3136 -1.1116
 2635TIP3    H229321   2.468   5.553  12.039 -2.3185 -0.1928  0.0341
 2636TIP3   OH229322   1.577   1.538   4.887 -0.6508  0.4776  0.3462
 2636TIP3    H129323   1.553   1.586   4.965  0.3696  0.5186  0.6487
 2636TIP3    H229324   1.539   1.451   4.899 -1.0644  0.6902  0.5753
 2637TIP3   OH229325   0.048   5.711   2.025 -0.5982  0.0941  0.0564
 2637TIP3    H129326   0.004   5.706   1.940 -0.7654 -0.0475  0.1507
 2637TIP3    H229327   0.139   5.732   2.004 -0.2041 -1.8021 -0.2804
 2638TIP3   OH229328   3.045   0.601  12.844 -1.0927  0.1930  0.2715
 2638TIP3    H129329   3.011   0.594  12.934  1.1279 -0.8788  1.0709
 2638TIP3    H229330   3.127   0.552  12.846  1.0586  3.5672 -1.3160
 2639TIP3   OH229331   5.206   4.441  11.798  0.3495 -0.0520 -0.1031
 2639TIP3    H129332   5.151   4.513  11.768  0.1517  0.3118  1.0990
 2639TIP3    H229333   5.221   4.388  11.720 -2.8603 -0.9402 -0.1940
 2640TIP3   OH229334   4.432   4.093  15.790  0.2941 -0.0998 -0.6505
 2640TIP3    H129335   4.455   4.015  15.739  0.2172  1.9832 -4.0661
 2640TIP3    H229336   4.339   4.107  15.770  0.2190  0.6575  0.2038
 2641TIP3   OH229337   4.566   3.139   4.462 -0.1812  0.6999 -0.3673
 2641TIP3    H129338   4.591   3.053   4.429 -0.6887  0.9591 -1.4432
 2641TIP3    H229339   4.496   3.121   4.525  0.0308  0.2949 -0.2418
 2642TIP3   OH229340   2.843   2.422  13.761 -0.3992  0.5029 -0.3362
 2642TIP3    H129341   2.779   2.422  13.690 -1.4982  0.1304  0.6393
 2642TIP3    H229342   2.927   2.409  13.717 -0.9889  0.9646 -1.6241
 2643TIP3   OH229343   2.273   0.729   5.535 -0.0197 -0.5705 -0.4950
 2643TIP3    H129344   2.201   0.680   5.575 -0.4995  0.1151 -0.5007
 2643TIP3    H229345   2.334   0.746   5.607 -1.8391  2.4045  0.4210
 2644TIP3   OH229346   2.288   2.702   2.554 -0.0655  0.0169  0.0552
 2644TIP3    H129347   2.195   2.684   2.569 -0.2281 -0.6685 -1.7145
 2644TIP3    H229348   2.292   2.796   2.539 -0.7750 -0.2644 -1.9663
 2645TIP3   OH229349   5.619   4.846   5.455 -0.1379 -0.1597 -0.2449
 2645TIP3    H129350   5.663   4.781   5.400 -0.4638  0.4652 -1.2467
 2645TIP3    H229351   5.631   4.929   5.409 -0.5845  0.3365  0.5264
 2646TIP3   OH229352   4.918   5.122  10.769  0.1144 -0.8538  0.0437
 2646TIP3    H129353   4.987   5.145  10.707  0.1714 -0.6981  0.1624
 2646TIP3    H229354   4.923   5.190  10.837  1.6156 -2.3441  1.4775
 2647TIP3   OH229355   5.703   5.342   6.270 -0.5676  0.4813  0.1537
 2647TIP3    H129356   5.794   5.345   6.242 -1.0749  0.2613 -1.5649
 2647TIP3    H229357   5.672   5.432   6.263 -0.6515  0.4543  0.1774
 2648TIP3   OH229358   0.494   1.944   5.905  0.1860  0.1610  0.2341
 2648TIP3    H129359   0.410   1.899   5.894 -1.5821  3.0183  1.3805
 2648TIP3    H229360   0.508   1.946   5.999  0.5889  1.3414  0.1554
 2649TIP3   OH229361   3.965   2.349  12.546  0.0929 -0.8908 -0.2192
 2649TIP3    H129362   3.933   2.387  12.628  0.4471 -3.0297  0.9264
 2649TIP3    H229363   3.898   2.373  12.482 -0.8911 -0.3901  0.9756
 2650TIP3   OH229364   3.095   0.116   1.174 -0.1715  0.1766 -0.7538
 2650TIP3    H129365   3.125   0.189   1.120 -0.7117  0.4619 -0.6661
 2650TIP3    H229366   3.106   0.039   1.118  1.4613  0.1654 -0.4571
 2651TIP3   OH229367   6.551   3.415  12.922  0.1717  0.2369 -0.1635
 2651TIP3    H129368   6.504   3.474  12.863 -0.7863  0.3141  0.6731
 2651TIP3    H229369   6.498   3.413  13.001  0.5286 -1.2535  0.0509
 2652TIP3   OH229370   1.165   1.681  15.581 -0.1341  0.2587  0.0350
 2652TIP3    H129371   1.092   1.653  15.526  0.0914  1.1436 -0.7182
 2652TIP3    H229372   1.235   1.618  15.561 -1.6206 -2.5540  3.0735
 2653TIP3   OH229373   5.507   5.912   3.963  0.1660 -0.3394  0.0958
 2653TIP3    H129374   5.467   5.995   3.987  1.9056 -0.3978  3.4749
 2653TIP3    H229375   5.434   5.851   3.955 -0.9070  0.9465 -0.0405
 2654TIP3   OH229376   3.900   1.469   0.263  0.1850  0.0475 -0.0142
 2654TIP3    H129377   3.940   1.459   0.349 -1.7454 -0.4945  0.8671
 2654TIP3    H229378   3.863   1.557   0.263 -2.7413 -1.0919  1.0675
 2655TIP3   OH229379   1.216   6.755  12.694 -0.0950  0.3811 -0.1573
 2655TIP3    H129380   1.184   6.672  12.658 -1.6377  1.1183 -0.5035
 2655TIP3    H229381   1.139   6.810  12.700  0.9536  1.8759 -0.1198
 2656TIP3   OH229382   0.464   1.324   4.295 -0.1950 -0.2343 -0.1581
 2656TIP3    H129383   0.377   1.354   4.321 -0.8008 -3.1600  1.4302
 2656TIP3    H229384   0.517   1.404   4.289 -2.3470  1.3349  1.3638
 2657TIP3   OH229385   1.823   1.356   2.169  0.0486 -0.3571  0.3176
 2657TIP3    H129386   1.761   1.289   2.199  0.3039 -0.2660  1.0652
 2657TIP3    H229387   1.903   1.338   2.219  0.3002  0.1493  0.0983
 2658TIP3   OH229388   4.080   5.155  14.278 -0.4846 -0.6951  0.0886
 2658TIP3    H129389   4.072   5.185  14.369 -0.8053  0.1131 -0.2090
 2658TIP3    H229390   4.155   5.202  14.243  0.0508 -1.5089  0.1326
 2659TIP3   OH229391   0.317   0.899   2.493 -0.2420 -0.5752 -0.4385
 2659TIP3    H129392   0.254   0.967   2.471 -0.8255 -1.3606 -1.2681
 2659TIP3    H229393   0.280   0.819   2.454  0.3789 -1.3780  0.5806
 2660TIP3   OH229394   6.549   6.483   0.448 -0.0671  0.1869  0.6082
 2660TIP3    H129395   6.460   6.474   0.414  0.4031  1.5476 -1.0748
 2660TIP3    H229396   6.538   6.506   0.540 -1.4156 -1.2348  0.8281
 2661TIP3   OH229397   0.423   6.734   3.412 -1.0847 -0.2774 -0.2232
 2661TIP3    H129398   0.329   6.715   3.411 -1.6644  2.3653  0.5934
 2661TIP3    H229399   0.458   6.679   3.482 -2.6221  1.1921  1.7656
 2662TIP3   OH229400   4.821   2.522   1.841 -0.3355 -0.1270  0.0801
 2662TIP3    H129401   4.870   2.546   1.762 -1.6591 -3.3809 -1.8293
 2662TIP3    H229402   4.732   2.552   1.825 -0.4013  0.0956  0.8069
 2663TIP3   OH229403   0.460   0.892   0.693 -0.5774 -0.4229  0.0119
 2663TIP3    H129404   0.485   0.803   0.669  0.7467 -0.0397 -0.0571
 2663TIP3    H229405   0.374   0.883   0.734 -1.0895 -1.5564 -1.2934
 2664TIP3   OH229406   0.741   4.142   3.387  0.2965 -0.1878 -0.6208
 2664TIP3    H129407   0.776   4.121   3.474 -2.0630  0.2019  0.4549
 2664TIP3    H229408   0.762   4.234   3.374 -0.8639  0.2109  0.2905
 2665TIP3   OH229409   5.157   6.410   2.676 -0.3875  0.7726 -0.7575
 2665TIP3    H129410   5.211   6.481   2.712 -0.3839  0.4500 -0.1232
 2665TIP3    H229411   5.195   6.392   2.591  0.6760  0.3752 -0.2080
 2666TIP3   OH229412   5.034   2.023   0.051  0.1928  0.3180  0.1526
 2666TIP3    H129413   5.118   1.984   0.078  1.3651  1.5084 -1.6834
 2666TIP3    H229414   4.996   2.055   0.133  1.5107 -0.2885  1.0268
 2667TIP3   OH229415   0.046   4.492  13.071  0.4321 -0.0633  0.2774
 2667TIP3    H129416   0.077   4.581  13.055  1.1249 -0.3381  0.0405
 2667TIP3    H229417   0.037   4.486  13.166  0.9590  0.0744  0.3377
 2668TIP3   OH229418   6.175   4.221  11.603  0.1595 -0.0459  0.7767
 2668TIP3    H129419   6.231   4.184  11.536 -0.1085 -0.2295  0.6536
 2668TIP3    H229420   6.215   4.193  11.686  0.3637 -0.0054  0.6913
 2669TIP3   OH229421   1.510   6.490  13.458 -0.3261  0.1478 -0.1252
 2669TIP3    H129422   1.475   6.485  13.546  0.2901  0.2526  0.1328
 2669TIP3    H229423   1.436   6.472  13.401 -0.4047 -1.4656  0.4589
 2670TIP3   OH229424   0.725   3.994   4.960 -0.6017 -0.1030  0.3649
 2670TIP3    H129425   0.732   4.085   4.932  0.5475 -0.8860 -1.9388
 2670TIP3    H229426   0.790   3.985   5.030 -0.3141  0.6849  0.2014
 2671TIP3   OH229427   5.705   0.158  13.943 -0.0883 -0.0404 -0.7492
 2671TIP3    H129428   5.612   0.182  13.951  0.1232  0.1636  1.2585
 2671TIP3    H229429   5.724   0.169  13.850 -2.2870 -0.8538 -1.3268
 2672TIP3   OH229430   4.885   4.693   1.104  0.0004  0.6165  0.6071
 2672TIP3    H129431   4.789   4.685   1.109  0.0901  0.3500  2.0952
 2672TIP3    H229432   4.900   4.762   1.040 -1.2312  1.4743  1.2187
 2673TIP3   OH229433   5.721   3.898   4.296 -0.8927 -0.0663  0.0499
 2673TIP3    H129434   5.663   3.870   4.225  1.1190 -2.1216 -0.8544
 2673TIP3    H229435   5.685   3.856   4.375 -1.4777 -0.1200 -0.2427
 2674TIP3   OH229436   5.072   4.035  16.916  0.1232  0.4095  0.0043
 2674TIP3    H129437   5.022   4.076  16.987  0.4684  1.5228 -0.3887
 2674TIP3    H229438   5.012   3.971  16.878 -0.3206  0.3392  0.8045
 2675TIP3   OH229439   1.129   5.455   0.187 -0.5849 -0.3228 -0.2138
 2675TIP3    H129440   1.074   5.526   0.220  0.1840  0.0754  0.2220
 2675TIP3    H229441   1.082   5.422   0.110 -1.8861 -0.5949  0.6913
 2676TIP3   OH229442   3.939   0.827  16.930 -0.8158  0.3869  0.4454
 2676TIP3    H129443   3.853   0.867  16.921 -0.0286  2.2340  0.7583
 2676TIP3    H229444   3.986   0.884  16.991  0.3590 -1.0588  0.9345
 2677TIP3   OH229445   3.484   1.862  13.321 -0.8212 -0.3922 -0.0604
 2677TIP3    H129446   3.419   1.887  13.387 -0.5700 -1.0492  0.4418
 2677TIP3    H229447   3.540   1.798  13.366  0.4354  0.4853 -0.3393
 2678TIP3   OH229448   4.079   3.628   0.045  0.6924  0.8529 -0.2650
 2678TIP3    H129449   4.086   3.551   0.101  0.4724  1.1837  0.2147
 2678TIP3    H229450   4.079   3.593  -0.044 -3.1954  0.0017 -0.0135
 2679TIP3   OH229451   1.237   0.744  14.655  0.1195  0.2592 -0.0972
 2679TIP3    H129452   1.256   0.654  14.680  0.8744  0.8672  1.5463
 2679TIP3    H229453   1.142   0.746  14.640 -0.1010 -0.4807  1.2103
 2680TIP3   OH229454   6.779   5.463   5.400 -0.0483  0.0619  0.0998
 2680TIP3    H129455   6.805   5.549   5.367  0.6199 -0.4358 -0.6684
 2680TIP3    H229456   6.802   5.402   5.330  0.7628 -0.9224  1.2191
 2681TIP3   OH229457   3.604   4.364   2.920  0.4315  0.4699  0.3698
 2681TIP3    H129458   3.558   4.416   2.854  1.3991  0.7505 -0.0862
 2681TIP3    H229459   3.695   4.392   2.914  1.1532 -1.8542 -0.4833
 2682TIP3   OH229460   3.823   2.295  11.400 -0.1342 -0.2437 -0.2171
 2682TIP3    H129461   3.846   2.373  11.349 -0.4634 -0.4536 -0.6874
 2682TIP3    H229462   3.907   2.252  11.417  0.1870  0.8771  1.1350
 2683TIP3   OH229463   5.405   5.067   3.117 -0.6185  0.4848  0.6650
 2683TIP3    H129464   5.491   5.091   3.151 -0.2486 -0.3636  0.3439
 2683TIP3    H229465   5.396   5.118   3.037 -0.2052  0.2172  0.4449
 2684TIP3   OH229466   6.215   1.273   3.472 -0.6194 -0.0399  0.1259
 2684TIP3    H129467   6.162   1.338   3.518 -1.2561 -0.0203 -0.6181
 2684TIP3    H229468   6.183   1.275   3.382 -2.1363 -2.8695  0.5224
 2685TIP3   OH229469   2.462   1.083   1.849 -0.4366 -0.0367  0.0562
 2685TIP3    H129470   2.400   1.020   1.887 -2.0494  0.2721 -1.9661
 2685TIP3    H229471   2.489   1.137   1.923 -1.9618 -0.7060  1.1336
 2686TIP3   OH229472   5.782   5.083   2.850  0.4815 -0.1188  0.3293
 2686TIP3    H129473   5.809   5.174   2.862  1.0687 -0.0864 -1.1291
 2686TIP3    H229474   5.856   5.042   2.806 -0.7026 -0.7283 -1.1349
 2687TIP3   OH229475   5.544   1.215  15.381 -0.0944  0.2509 -0.3072
 2687TIP3    H129476   5.601   1.284  15.349  1.6159 -0.2668  1.5036
 2687TIP3    H229477   5.534   1.156  15.307  2.8980 -0.3684 -0.2810
 2688TIP3   OH229478   1.572   1.324   0.464 -0.2772 -0.0260  0.2596
 2688TIP3    H129479   1.574   1.334   0.559  0.8424 -0.3361  0.2749
 2688TIP3    H229480   1.604   1.236   0.448 -0.9396 -0.1557 -0.3873
 2689TIP3   OH229481   6.326   0.148   5.921  0.2763  0.2372 -0.0248
 2689TIP3    H129482   6.266   0.107   5.984  0.1587 -0.0485 -0.3178
 2689TIP3    H229483   6.351   0.077   5.863  0.4913  0.4720 -0.2179
 2690TIP3   OH229484   6.275   3.745   2.506  0.1177 -0.2827  0.3187
 2690TIP3    H129485   6.292   3.762   2.414  0.6308  0.2281  0.5080
 2690TIP3    H229486   6.332   3.805   2.553 -0.9147  0.2137  0.9713
 2691TIP3   OH229487   0.305   1.903  11.854  0.7433  0.0438  0.4545
 2691TIP3    H129488   0.303   1.996  11.832  0.5082 -0.2657 -0.8790
 2691TIP3    H229489   0.311   1.901  11.949 -0.3856  1.4172  0.5605
 2692TIP3   OH229490   1.550   4.871  10.368  0.3055  0.2343  0.0398
 2692TIP3    H129491   1.466   4.825  10.370 -0.6324  1.9592  1.1011
 2692TIP3    H229492   1.611   4.808  10.329 -1.7692 -0.5633 -2.0207
 2693TIP3   OH229493   1.728   5.483  14.496  0.4302  0.0088  0.1804
 2693TIP3    H129494   1.713   5.446  14.583 -0.6381 -0.3082 -0.1274
 2693TIP3    H229495   1.710   5.577  14.506  1.3563  0.1591  0.5358
 2694TIP3   OH229496   0.198   4.940  11.464 -0.3728 -0.7341 -0.2120
 2694TIP3    H129497   0.291   4.946  11.485 -0.7868  0.3216  1.3691
 2694TIP3    H229498   0.175   4.849  11.485 -0.1332 -0.4627  1.2741
 2695TIP3   OH229499   2.528   6.469  16.289  0.0511  0.5720 -0.3152
 2695TIP3    H129500   2.520   6.378  16.260  0.3829  1.0478 -1.9407
 2695TIP3    H229501   2.622   6.484  16.294 -0.0013  0.2406  1.8697
 2696TIP3   OH229502   4.321   3.257  13.854 -0.0391 -0.0391 -0.0264
 2696TIP3    H129503   4.304   3.163  13.843 -0.1425 -0.0792  0.4658
 2696TIP3    H229504   4.344   3.287  13.766  0.2278 -0.5734 -0.1427
 2697TIP3   OH229505   3.538   0.146   3.027 -0.2303  0.3362  0.0372
 2697TIP3    H129506   3.587   0.229   3.030  0.9355 -0.3735  0.6382
 2697TIP3    H229507   3.559   0.110   2.940 -0.0684  0.2688  0.1036
 2698TIP3   OH229508   1.961   5.565  14.149  0.5588 -0.0642 -0.6590
 2698TIP3    H129509   1.930   5.625  14.217 -1.8752 -1.5087 -0.4062
 2698TIP3    H229510   1.908   5.588  14.072  1.7882  0.1429 -1.4460
 2699TIP3   OH229511   4.854   3.278   5.131  0.1191 -0.0778  0.0094
 2699TIP3    H129512   4.870   3.231   5.049  1.2173 -0.9345  0.7050
 2699TIP3    H229513   4.789   3.344   5.108 -0.8356 -1.3990 -1.1773
 2700TIP3   OH229514   5.579   3.817   2.844 -0.1288  0.6734 -0.1453
 2700TIP3    H129515   5.577   3.874   2.921  0.6604  1.6589 -0.8610
 2700TIP3    H229516   5.595   3.730   2.880  0.9353  1.2327  0.7509
 2701TIP3   OH229517   5.504   1.256  10.672  0.7001  0.0364  0.1912
 2701TIP3    H129518   5.503   1.305  10.754 -0.9683 -0.5319  0.5315
 2701TIP3    H229519   5.477   1.167  10.697  2.4085 -0.7406 -0.6112
 2702TIP3   OH229520   5.985   0.060   4.321  0.1071  0.1129  0.4703
 2702TIP3    H129521   6.064   0.084   4.370  1.4716 -1.6165 -0.8366
 2702TIP3    H229522   5.980  -0.035   4.327 -0.3800 -0.0262 -1.7216
 2703TIP3   OH229523   3.575   4.980   3.547 -0.1023  0.2049 -0.2958
 2703TIP3    H129524   3.557   5.072   3.566  1.3157  0.7044 -1.3198
 2703TIP3    H229525   3.637   4.953   3.616  1.0838  0.6047 -1.1877
 2704TIP3   OH229526   2.994   6.717   3.048 -0.3292 -0.5416 -0.3936
 2704TIP3    H129527   3.067   6.765   3.008 -0.8314  0.8931  0.4016
 2704TIP3    H229528   2.943   6.685   2.973  1.7331 -2.5653 -0.9797
 2705TIP3   OH229529   3.566   1.563   4.349 -0.6362  0.1980  0.0649
 2705TIP3    H129530   3.471   1.551   4.350 -0.6836  0.6047  0.5527
 2705TIP3    H229531   3.597   1.503   4.281 -1.2913  0.4356 -0.4483
 2706TIP3   OH229532   4.842   1.422   6.490 -0.2306  0.1686  0.2873
 2706TIP3    H129533   4.844   1.351   6.425 -1.4550 -1.1717  1.6640
 2706TIP3    H229534   4.934   1.448   6.500 -0.0448  0.4589 -2.0340
 2707TIP3   OH229535   2.091   5.352  13.010  0.6051  0.4204 -0.6559
 2707TIP3    H129536   1.996   5.355  12.995  0.2883 -1.2955  0.8556
 2707TIP3    H229537   2.127   5.328  12.924 -0.5453 -1.4284 -0.6656
 2708TIP3   OH229538   0.997   6.634   3.221 -0.0388 -0.4154  0.0679
 2708TIP3    H129539   0.913   6.625   3.266 -0.6388  1.5145 -0.5902
 2708TIP3    H229540   1.051   6.687   3.280 -0.0776  0.2606 -0.4905
 2709TIP3   OH229541   2.538   6.130  12.913 -0.4865 -0.7871  0.0298
 2709TIP3    H129542   2.512   6.170  12.996 -0.2764  0.4724 -0.4981
 2709TIP3    H229543   2.633   6.128  12.916 -0.3683  1.6250 -1.2442
 2710TIP3   OH229544   1.579   1.998  16.519 -0.4522  0.1291 -0.2800
 2710TIP3    H129545   1.657   2.015  16.573  0.1451  2.1074 -1.7167
 2710TIP3    H229546   1.544   1.915  16.553  0.5599  0.7443  2.3644
 2711TIP3   OH229547   4.524   0.281   3.520  0.1969 -0.1061  0.2362
 2711TIP3    H129548   4.562   0.359   3.479 -1.3275  0.3735 -0.2779
 2711TIP3    H229549   4.592   0.214   3.509  0.7677  0.6444 -0.9785
 2712TIP3   OH229550   2.782   1.818  16.066  0.2568  0.5039  1.0547
 2712TIP3    H129551   2.849   1.881  16.039 -0.1523  0.2361 -0.6358
 2712TIP3    H229552   2.740   1.791  15.984 -0.5144 -0.9110  1.9003
 2713TIP3   OH229553   3.962   6.239   2.031 -0.5995 -0.6279  0.4665
 2713TIP3    H129554   4.026   6.251   1.961 -1.5115  0.3607 -0.2078
 2713TIP3    H229555   3.975   6.148   2.060  1.0528 -0.4628  0.3039
 2714TIP3   OH229556   4.496   2.249   0.689 -0.1611 -0.0114  0.2490
 2714TIP3    H129557   4.528   2.210   0.608 -0.0843  0.5524  0.0055
 2714TIP3    H229558   4.548   2.207   0.758 -1.0093 -1.3061  0.1010
 2715TIP3   OH229559   2.442   4.379  10.798  0.4934 -0.5719  0.3280
 2715TIP3    H129560   2.446   4.350  10.707  1.5943  2.6264 -0.7251
 2715TIP3    H229561   2.446   4.475  10.793 -1.0005 -0.2495  3.6669
 2716TIP3   OH229562   0.826   3.162   1.924 -0.3540 -0.0219 -0.2584
 2716TIP3    H129563   0.838   3.095   1.856  1.7668  0.2922 -0.2484
 2716TIP3    H229564   0.853   3.243   1.881 -0.5079  0.4199  0.4909
 2717TIP3   OH229565   1.904   1.480   3.337  0.3018 -0.5475 -0.2159
 2717TIP3    H129566   1.935   1.568   3.317 -0.4274  0.7716  3.9340
 2717TIP3    H229567   1.974   1.441   3.390 -0.2013 -1.7538 -0.4187
 2718TIP3   OH229568   5.221   2.760  13.430 -0.1990 -0.2534  0.5761
 2718TIP3    H129569   5.178   2.752  13.345  1.1321 -2.6752  0.0883
 2718TIP3    H229570   5.218   2.854  13.450 -1.2201  0.2412 -1.7530
 2719TIP3   OH229571   1.489   0.694   6.759 -0.2092  0.0292 -0.8072
 2719TIP3    H129572   1.443   0.617   6.793 -1.7800  1.3153  0.0334
 2719TIP3    H229573   1.564   0.658   6.712 -0.0034 -1.9526  0.9496
 2720TIP3   OH229574   3.373   4.683  16.738  0.2244 -0.7096  0.0504
 2720TIP3    H129575   3.315   4.633  16.681  0.1292 -0.7932  0.2209
 2720TIP3    H229576   3.319   4.706  16.813  0.1023  0.1455 -0.2932
 2721TIP3   OH229577   1.175   1.429   2.749  0.2825  0.5941  0.3438
 2721TIP3    H129578   1.084   1.432   2.720  0.7866  2.0236 -1.1622
 2721TIP3    H229579   1.169   1.413   2.843 -1.5776  2.2466  0.5507
 2722TIP3   OH229580   1.023   4.130   4.468  0.2809 -0.0064 -0.0919
 2722TIP3    H129581   1.084   4.198   4.496  0.7117  0.4020 -1.9991
 2722TIP3    H229582   0.953   4.177   4.424  0.0767 -0.7188 -0.5366
 2723TIP3   OH229583   1.964   4.194   0.590  0.2995 -0.1244 -0.7654
 2723TIP3    H129584   2.059   4.199   0.593  0.3819 -0.5482 -2.0850
 2723TIP3    H229585   1.941   4.129   0.657  1.1023 -1.5412 -1.8252
 2724TIP3   OH229586   0.788   3.042  15.579  0.4173  0.0452 -0.6167
 2724TIP3    H129587   0.864   3.100  15.571  0.0655  0.5806 -0.0926
 2724TIP3    H229588   0.732   3.065  15.506  0.2046  0.4707 -0.3171
 2725TIP3   OH229589   3.018   0.834   4.856 -0.2280  0.0218 -0.6531
 2725TIP3    H129590   2.993   0.809   4.767 -1.0364 -1.3772 -0.0539
 2725TIP3    H229591   2.963   0.779   4.913  0.8163  0.3518  0.7088
 2726TIP3   OH229592   6.072   2.331  12.339  0.1882 -0.1606 -0.3197
 2726TIP3    H129593   6.011   2.403  12.357  0.0906 -0.1976 -0.4985
 2726TIP3    H229594   6.105   2.305  12.425 -0.9073 -0.8829 -0.1017
 2727TIP3   OH229595   2.385   4.072   3.200  0.1224 -0.3549  0.3027
 2727TIP3    H129596   2.390   3.980   3.228 -0.0079 -0.8936 -1.4184
 2727TIP3    H229597   2.401   4.122   3.281 -1.3859 -1.8698  1.5667
 2728TIP3   OH229598   1.176   3.891  14.026  0.0974 -0.4368  0.1533
 2728TIP3    H129599   1.120   3.929  13.958  1.3485  0.5410 -0.3276
 2728TIP3    H229600   1.189   3.961  14.089  3.2709  0.3251 -1.2591
 2729TIP3   OH229601   6.067   3.965   4.593 -0.2646  0.3071 -0.7149
 2729TIP3    H129602   6.100   3.945   4.506  0.7805  1.5806 -0.6245
 2729TIP3    H229603   5.973   3.945   4.589  0.2348 -1.9852 -1.3908
 2730TIP3   OH229604   5.022   6.503   4.222  0.0616  0.3015  0.0560
 2730TIP3    H129605   5.087   6.488   4.153 -1.2868  1.6072 -1.5403
 2730TIP3    H229606   4.989   6.416   4.244  3.4062 -0.5734  2.0062
 2731TIP3   OH229607   2.878   4.924  13.582  0.0751 -0.0692  0.5476
 2731TIP3    H129608   2.961   4.929  13.629 -0.0741 -1.0338  0.9280
 2731TIP3    H229609   2.866   5.011  13.544  2.5760 -0.7125 -1.8300
 2732TIP3   OH229610   4.456   0.859  11.887  0.3240 -0.2777  0.0112
 2732TIP3    H129611   4.424   0.811  11.811 -2.0883 -0.7447  1.2844
 2732TIP3    H229612   4.549   0.839  11.891 -0.1993 -2.9854 -0.8346
 2733TIP3   OH229613   4.669   3.403  11.691  0.1910  0.2399 -0.0533
 2733TIP3    H129614   4.691   3.330  11.750  0.5804 -1.4725 -2.2470
 2733TIP3    H229615   4.720   3.477  11.724 -0.1420 -0.4822  2.1687
 2734TIP3   OH229616   1.117   0.342  14.327 -0.0606  0.2963  0.2550
 2734TIP3    H129617   1.058   0.268  14.341  0.5509 -0.1249  0.6148
 2734TIP3    H229618   1.161   0.323  14.244  0.5539 -0.0520  0.6596
 2735TIP3   OH229619   2.796   3.002   3.504 -0.1978  0.1015 -0.2448
 2735TIP3    H129620   2.816   2.911   3.481  2.2729 -0.0770  2.3811
 2735TIP3    H229621   2.735   2.995   3.578  1.7396  0.5073  1.4371
 2736TIP3   OH229622   3.808   1.788   0.916  0.1300  0.0212 -0.1083
 2736TIP3    H129623   3.883   1.781   0.975 -0.1428  1.1677  0.3830
 2736TIP3    H229624   3.741   1.732   0.954 -0.5393  1.8250  1.4678
 2737TIP3   OH229625   5.708   5.463  11.011  0.3902  0.3336  0.2978
 2737TIP3    H129626   5.663   5.485  11.093  1.2416  1.4378  0.4856
 2737TIP3    H229627   5.801   5.464  11.034  0.5771 -0.7111 -0.3760
 2738TIP3   OH229628   0.113   0.123   1.844 -0.3516  0.2041 -0.5131
 2738TIP3    H129629   0.042   0.065   1.873 -1.1362  1.4463  0.0549
 2738TIP3    H229630   0.071   0.207   1.826  1.4975  2.1561  3.5985
 2739TIP3   OH229631   1.659   3.814   3.913  0.1956 -0.0338 -0.2024
 2739TIP3    H129632   1.609   3.886   3.873 -0.8908 -0.5686  0.1530
 2739TIP3    H229633   1.750   3.837   3.898 -0.1651  0.3241 -2.0246
 2740TIP3   OH229634   1.593   6.537  15.029  0.1859  0.5180 -0.1359
 2740TIP3    H129635   1.677   6.496  15.009 -1.4960 -1.8971 -2.6444
 2740TIP3    H229636   1.598   6.624  14.990  1.0178 -0.1456 -1.5433
 2741TIP3   OH229637   6.232   0.618  14.792  0.1880  0.2943  0.3098
 2741TIP3    H129638   6.301   0.681  14.813  0.0851  0.1943  0.9618
 2741TIP3    H229639   6.260   0.537  14.833 -0.3400  0.2672  0.6241
 2742TIP3   OH229640   1.656   4.360   3.346  0.4700  0.1257  0.1883
 2742TIP3    H129641   1.644   4.433   3.285  0.3281 -1.5847 -1.9050
 2742TIP3    H229642   1.749   4.341   3.342  0.3590 -0.3942  0.0123
 2743TIP3   OH229643   4.241   6.722   4.524 -0.1857  0.3618  0.6140
 2743TIP3    H129644   4.192   6.651   4.484  0.1896 -0.4101  1.4984
 2743TIP3    H229645   4.325   6.682   4.548  0.5104  1.4112  0.0082
 2744TIP3   OH229646   0.969   0.089   6.252  0.0740 -0.1882 -0.5653
 2744TIP3    H129647   1.042   0.066   6.310  0.1810  0.0479 -0.6054
 2744TIP3    H229648   0.918   0.152   6.302  0.1032 -0.0715 -0.6830
 2745TIP3   OH229649   2.439   0.318  11.675  0.3412  0.3033  0.1865
 2745TIP3    H129650   2.483   0.267  11.742  0.6880 -0.3300 -0.5223
 2745TIP3    H229651   2.426   0.257  11.603  0.6102  1.1717 -0.6021
 2746TIP3   OH229652   6.293   0.315   6.887  0.0645 -0.0608 -0.1519
 2746TIP3    H129653   6.356   0.328   6.817 -0.2115 -1.0498 -0.5988
 2746TIP3    H229654   6.214   0.285   6.842  0.4896 -2.6487  0.7315
 2747TIP3   OH229655   5.384   1.345   1.175 -0.0286  0.6079 -0.0868
 2747TIP3    H129656   5.403   1.439   1.175 -0.9335  0.8027  0.6007
 2747TIP3    H229657   5.385   1.320   1.083  2.7297  0.7603 -0.1259
 2748TIP3   OH229658   0.605   2.901  11.992 -0.1008 -0.2136  0.4068
 2748TIP3    H129659   0.624   2.969  11.928  0.5984  0.0949  0.9314
 2748TIP3    H229660   0.609   2.819  11.943  2.0123 -0.1035  0.3687
 2749TIP3   OH229661   0.952   2.495   1.060 -0.3951  0.0941 -0.4161
 2749TIP3    H129662   1.032   2.505   1.110  0.0231 -0.0835 -1.0440
 2749TIP3    H229663   0.882   2.494   1.126  0.3234 -2.3738  0.3381
 2750TIP3   OH229664   3.069   5.499  11.697 -0.7755  0.6816 -0.4466
 2750TIP3    H129665   3.060   5.444  11.620 -1.4906 -1.2527  0.9908
 2750TIP3    H229666   2.979   5.521  11.722 -0.6887 -0.7823  1.2724
 2751TIP3   OH229667   5.701   0.542   1.248  0.3151  0.3077  1.0557
 2751TIP3    H129668   5.637   0.478   1.216 -0.4814  0.7579  1.7367
 2751TIP3    H229669   5.783   0.492   1.257  0.4637  0.0882 -1.3194
 2752TIP3   OH229670   4.210   6.666   5.625  0.5687  0.1516  0.6784
 2752TIP3    H129671   4.185   6.757   5.609 -0.1391 -0.2426 -0.5341
 2752TIP3    H229672   4.175   6.647   5.712 -0.1992  0.7156  0.5029
 2753TIP3   OH229673   6.015   0.024  15.046  1.0619 -0.5661  0.0383
 2753TIP3    H129674   6.086   0.059  15.098  0.6866 -2.0652  1.5945
 2753TIP3    H229675   6.039  -0.067  15.029  0.4931 -0.5067 -1.1902
 2754TIP3   OH229676   0.567   6.416  11.827 -0.0010  0.0529 -0.0292
 2754TIP3    H129677   0.619   6.457  11.896 -0.2224  0.0279  0.1519
 2754TIP3    H229678   0.508   6.357  11.873 -0.7447  0.6744 -0.1687
 2755TIP3   OH229679   3.599   5.632   3.188  0.1165  0.0503 -0.0898
 2755TIP3    H129680   3.539   5.681   3.244  0.0548 -0.1012 -0.0260
 2755TIP3    H229681   3.620   5.553   3.237  0.1709 -0.0160 -0.2190
 2756TIP3   OH229682   1.184   2.709   3.382 -0.2555  0.0523  0.0875
 2756TIP3    H129683   1.231   2.782   3.421 -1.4887  0.0413  1.6657
 2756TIP3    H229684   1.247   2.668   3.323  1.1140  1.1142  0.7958
 2757TIP3   OH229685   3.127   4.184   0.003 -0.7311  0.0639  0.1052
 2757TIP3    H129686   3.121   4.107   0.059  0.5549  1.0936  1.7124
 2757TIP3    H229687   3.038   4.219  -0.001 -0.9636 -0.4338  0.9337
 2758TIP3   OH229688   5.673   2.041  12.532 -0.1227  0.7309 -0.4801
 2758TIP3    H129689   5.635   1.953  12.524 -0.6321  0.8640  0.3789
 2758TIP3    H229690   5.720   2.038  12.616  1.4513  0.6829 -1.3516
 2759TIP3   OH229691   4.169   0.758  15.044  0.8971 -0.3408 -0.3327
 2759TIP3    H129692   4.167   0.766  15.139  0.1151 -0.6435 -0.3144
 2759TIP3    H229693   4.262   0.754  15.021  1.0883 -0.0799  0.4010
 2760TIP3   OH229694   2.208   0.491  15.380 -0.6053  0.2948 -0.5269
 2760TIP3    H129695   2.175   0.505  15.291 -1.5619  1.6791  0.0381
 2760TIP3    H229696   2.294   0.534  15.379  0.0693 -1.0500 -1.2326
 2761TIP3   OH229697   1.133   1.263   6.069 -0.5519  0.4368 -0.3452
 2761TIP3    H129698   1.210   1.210   6.086  0.1632  1.4713 -0.2920
 2761TIP3    H229699   1.145   1.341   6.124 -1.2630  0.9461 -0.9031
 2762TIP3   OH229700   3.981   3.446  13.958  0.3463 -0.4059 -0.7290
 2762TIP3    H129701   3.907   3.412  14.008  1.0893  0.2552  0.8273
 2762TIP3    H229702   3.967   3.412  13.869 -1.7128 -0.4555 -0.4139
 2763TIP3   OH229703   4.425   1.472   5.691  0.5124 -0.2583 -0.8752
 2763TIP3    H129704   4.412   1.567   5.688 -1.0302 -0.4675 -0.9465
 2763TIP3    H229705   4.516   1.460   5.661  1.0549  1.2543  0.1064
 2764TIP3   OH229706   1.696   5.830   4.573  0.4231 -0.7978  0.2485
 2764TIP3    H129707   1.788   5.813   4.591  0.5074 -1.2219 -0.5652
 2764TIP3    H229708   1.675   5.774   4.498  0.3315  1.6723 -1.6251
 2765TIP3   OH229709   4.301   0.137  12.470  0.4153 -0.0255 -0.3557
 2765TIP3    H129710   4.285   0.047  12.498  3.0281 -0.3939  0.1092
 2765TIP3    H229711   4.373   0.167  12.527  0.7178  1.7675 -1.6515
 2766TIP3   OH229712   4.941   3.781   1.274 -0.4473  0.1106 -0.2744
 2766TIP3    H129713   4.924   3.735   1.356 -0.8157 -1.1874 -1.0714
 2766TIP3    H229714   5.028   3.820   1.286 -0.1045 -0.8404  0.3719
 2767TIP3   OH229715   6.291   6.158  12.185 -0.3291 -0.3526 -0.2502
 2767TIP3    H129716   6.281   6.091  12.117  0.1409 -0.3099 -0.3619
 2767TIP3    H229717   6.201   6.179  12.211 -0.6163  0.8418 -2.0523
 2768TIP3   OH229718   2.456   4.305   3.668  0.0278  0.1819  0.7972
 2768TIP3    H129719   2.405   4.383   3.691 -0.3016  0.0591  0.4709
 2768TIP3    H229720   2.461   4.255   3.750 -0.1847  0.2981  0.8803
 2769TIP3   OH229721   1.649   5.510   1.459  0.0447 -0.9269  0.4887
 2769TIP3    H129722   1.687   5.489   1.374 -0.2945 -1.4462  0.4671
 2769TIP3    H229723   1.725   5.524   1.516  0.2690 -1.0638  0.2230
 2770TIP3   OH229724   0.164   5.884   4.851  0.2353  0.3821  0.5216
 2770TIP3    H129725   0.091   5.823   4.845  0.2524  0.4339 -0.2658
 2770TIP3    H229726   0.170   5.906   4.944  0.0328 -0.5658  0.7567
 2771TIP3   OH229727   5.593   4.707   2.147  0.3515 -0.0137 -0.1505
 2771TIP3    H129728   5.529   4.777   2.132  0.9136  0.3654 -0.7919
 2771TIP3    H229729   5.568   4.671   2.232  0.2817  1.2180  0.3684
 2772TIP3   OH229730   1.992   4.208   1.608 -0.3005  0.8737  0.1305
 2772TIP3    H129731   2.004   4.259   1.528  0.8654  0.0541 -0.2416
 2772TIP3    H229732   1.902   4.177   1.604  0.4678 -1.2569 -2.1650
 2773TIP3   OH229733   4.719   1.741  15.958  0.2648 -0.4980 -0.2270
 2773TIP3    H129734   4.695   1.649  15.970 -1.6649  0.1923  1.6389
 2773TIP3    H229735   4.635   1.786  15.949  1.0849  1.3245  0.9722
 2774TIP3   OH229736   2.137   1.774  12.495  0.9473 -0.3540  0.0521
 2774TIP3    H129737   2.120   1.842  12.430  0.8574  1.3394  1.7872
 2774TIP3    H229738   2.053   1.730  12.506  0.6099  0.2630  0.0027
 2775TIP3   OH229739   5.453   6.316  16.135  0.0177 -0.4807 -0.6996
 2775TIP3    H129740   5.395   6.260  16.187 -0.5406 -1.0662 -1.9343
 2775TIP3    H229741   5.416   6.404  16.144 -2.1203 -1.0912 -2.8431
 2776TIP3   OH229742   2.222   5.298   5.897 -0.4648 -0.4511 -0.2659
 2776TIP3    H129743   2.217   5.211   5.937 -2.8553 -0.0596  0.3612
 2776TIP3    H229744   2.191   5.358   5.965  0.6228  0.8585 -0.8914
 2777TIP3   OH229745   4.463   3.444  11.475  0.4021 -0.1560  0.3361
 2777TIP3    H129746   4.401   3.516  11.486  1.8903  1.4489 -1.3631
 2777TIP3    H229747   4.521   3.451  11.551 -0.6307 -0.7900  1.1927
 2778TIP3   OH229748   1.813   4.179   3.199  0.1774 -0.1153 -0.0948
 2778TIP3    H129749   1.739   4.214   3.150  0.2139  0.4139  0.2271
 2778TIP3    H229750   1.863   4.129   3.135 -0.7708 -0.9689 -0.1866
 2779TIP3   OH229751   0.087   0.991   4.655  0.6591  0.2184 -0.4187
 2779TIP3    H129752   0.170   1.018   4.617  0.6165  1.0930  0.1004
 2779TIP3    H229753   0.079   0.899   4.632  1.9306  0.0376 -0.1786
 2780TIP3   OH229754   0.690   2.328  12.473  0.6281 -0.0334 -0.5017
 2780TIP3    H129755   0.612   2.278  12.448  1.2207 -1.0563 -0.3253
 2780TIP3    H229756   0.709   2.382  12.397 -0.2790  0.2445 -0.5349
 2781TIP3   OH229757   0.366   6.559   0.248 -0.4468 -0.7728 -0.4879
 2781TIP3    H129758   0.308   6.518   0.184 -1.9309 -2.6223  1.9541
 2781TIP3    H229759   0.369   6.651   0.222 -3.8211 -0.7979 -1.2095
 2782TIP3   OH229760   6.216   4.481  15.782 -0.7396 -0.9834  0.3938
 2782TIP3    H129761   6.220   4.501  15.876 -0.0953  1.1685 -0.0625
 2782TIP3    H229762   6.122   4.477  15.763 -0.8743 -1.6266  1.1704
 2783TIP3   OH229763   0.169   4.243   2.224 -0.1432  0.4276 -0.5647
 2783TIP3    H129764   0.170   4.338   2.219 -1.4595  0.4328 -0.9041
 2783TIP3    H229765   0.086   4.217   2.183 -0.5920 -0.7618  1.0185
 2784TIP3   OH229766   3.358   2.175  14.781  0.2253 -0.4232 -0.1714
 2784TIP3    H129767   3.450   2.151  14.778 -0.0659 -1.6700  0.3377
 2784TIP3    H229768   3.321   2.137  14.702  0.6292  2.2812 -1.7107
 2785TIP3   OH229769   1.373   3.176   4.387  0.2013  0.0675  0.1904
 2785TIP3    H129770   1.383   3.271   4.380  0.5133 -0.0947 -1.7535
 2785TIP3    H229771   1.398   3.143   4.301 -2.2236 -1.5854  0.0775
 2786TIP3   OH229772   2.917   4.297  12.852 -0.2580  0.4090 -0.2995
 2786TIP3    H129773   3.011   4.307  12.839 -0.0215  0.2560  1.2231
 2786TIP3    H229774   2.892   4.375  12.902 -1.3692  1.6176 -2.6076
 2787TIP3   OH229775   2.560   1.687  15.168  0.3776  0.6313 -0.4750
 2787TIP3    H129776   2.529   1.707  15.080  0.8989  1.0196 -0.5744
 2787TIP3    H229777   2.615   1.762  15.191  3.4617 -1.2322 -1.3764
 2788TIP3   OH229778   5.454   1.908   6.641  0.2673  1.1111 -0.2297
 2788TIP3    H129779   5.470   1.831   6.585 -1.7484 -1.4907  2.6247
 2788TIP3    H229780   5.381   1.954   6.599 -0.3798 -0.1160 -0.4739
 2789TIP3   OH229781   1.751   2.886   5.671  0.0124  0.0726  0.1276
 2789TIP3    H129782   1.721   2.795   5.669 -1.4923  0.5369  0.9307
 2789TIP3    H229783   1.712   2.926   5.594  0.6443  0.0730 -0.2034
 2790TIP3   OH229784   4.901   5.614  13.359 -0.0172 -0.2267 -0.8051
 2790TIP3    H129785   4.885   5.700  13.322  0.3220 -0.9927 -2.7673
 2790TIP3    H229786   4.996   5.610  13.370 -0.0264 -0.3748 -0.7823
 2791TIP3   OH229787   2.010   1.655  11.466  0.4145  0.6866 -0.3757
 2791TIP3    H129788   2.009   1.750  11.464  0.1414  0.6562 -1.8392
 2791TIP3    H229789   1.930   1.628  11.421 -0.0688 -0.2298  0.9945
 2792TIP3   OH229790   4.233   6.191  14.162 -0.3985  0.5170  0.2944
 2792TIP3    H129791   4.219   6.103  14.197 -1.8902  0.1406 -1.1727
 2792TIP3    H229792   4.148   6.234  14.173 -0.1349  1.2306 -0.4759
 2793TIP3   OH229793   0.985   2.457   4.594 -0.4610 -0.5991  0.3113
 2793TIP3    H129794   0.950   2.542   4.566 -0.1683 -0.5321  0.1470
 2793TIP3    H229795   0.950   2.395   4.530 -1.0510 -0.6733  0.6986
 2794TIP3   OH229796   2.973   4.881  12.305 -0.6323  0.1562  0.3786
 2794TIP3    H129797   3.068   4.887  12.293 -0.5534 -1.8753 -0.1448
 2794TIP3    H229798   2.954   4.941  12.377  1.2891 -0.6779  1.6046
 2795TIP3   OH229799   1.470   5.442  12.223 -0.1686 -0.2663  0.1526
 2795TIP3    H129800   1.447   5.500  12.151  0.3693 -0.4547 -0.1750
 2795TIP3    H229801   1.545   5.483  12.265 -1.1104  0.3671  1.2458
 2796TIP3   OH229802   6.527   0.239   3.952 -0.4401 -0.3907  0.1320
 2796TIP3    H129803   6.606   0.243   4.006  0.1228 -1.2570 -0.6132
 2796TIP3    H229804   6.506   0.330   3.933 -0.7320 -0.0631  1.9290
 2797TIP3   OH229805   6.119   6.710   4.943 -0.2557  0.1425 -0.2541
 2797TIP3    H129806   6.150   6.796   4.914  2.3248 -0.0584  1.7200
 2797TIP3    H229807   6.159   6.698   5.029 -2.0939 -2.2501  0.3208
 2798TIP3   OH229808   2.749   2.990  10.994  0.1636  0.3952  0.4985
 2798TIP3    H129809   2.839   2.959  10.989 -0.5601 -1.7510  0.2596
 2798TIP3    H229810   2.735   3.035  10.910  0.8375  0.2155  0.2860
 2799TIP3   OH229811   3.076   6.710  16.680  0.3851  0.4235  0.2206
 2799TIP3    H129812   3.048   6.798  16.655  1.6573  0.9157  0.4872
 2799TIP3    H229813   3.062   6.707  16.775  0.5116  0.4002  0.2372
 2800TIP3   OH229814   6.683   2.738  12.656 -0.0464 -0.2628  0.6465
 2800TIP3    H129815   6.663   2.799  12.727  1.3143  0.5331  0.3609
 2800TIP3    H229816   6.755   2.684  12.690 -0.4280 -0.9000  0.4468
 2801TIP3   OH229817   0.606   6.562  12.057  0.2363 -0.5895  0.2902
 2801TIP3    H129818   0.685   6.597  12.096 -0.3206 -0.2154  1.0955
 2801TIP3    H229819   0.565   6.511  12.127 -0.0163 -1.1433 -0.2488
 2802TIP3   OH229820   3.184   0.065   3.739  0.2408  0.3580  0.2217
 2802TIP3    H129821   3.098   0.031   3.717  0.0920  1.1682 -0.4716
 2802TIP3    H229822   3.196   0.043   3.832 -0.1977 -0.8077  0.0081
 2803TIP3   OH229823   4.391   3.818   0.555  0.1373 -0.0125 -0.2508
 2803TIP3    H129824   4.407   3.729   0.585 -1.6240  0.1998  1.4393
 2803TIP3    H229825   4.400   3.814   0.459 -1.4553 -2.3467 -0.3343
 2804TIP3   OH229826   5.879   0.558  12.444 -0.2310 -0.3950 -0.4295
 2804TIP3    H129827   5.851   0.551  12.352  1.8049  0.5056 -1.1504
 2804TIP3    H229828   5.967   0.521  12.445  0.5284  1.3780  0.7643
 2805TIP3   OH229829   0.443   5.444  12.962  0.9322 -0.3456  0.2689
 2805TIP3    H129830   0.477   5.357  12.939 -1.7977 -0.8040 -2.3312
 2805TIP3    H229831   0.358   5.448  12.918  0.5738  3.2753  1.2069
 2806TIP3   OH229832   2.159   2.406  12.342  0.3285 -0.4418  0.1668
 2806TIP3    H129833   2.216   2.378  12.270 -1.0376 -1.0587 -0.6785
 2806TIP3    H229834   2.124   2.490  12.314  1.0195  0.0810  0.8206
 2807TIP3   OH229835   3.054   0.190  13.262 -0.0324  0.2063  0.1426
 2807TIP3    H129836   3.039   0.228  13.348  1.0609  0.4235  0.2469
 2807TIP3    H229837   3.027   0.098  13.271  1.3545 -0.1211  1.1127
 2808TIP3   OH229838   0.795   5.519   1.923  0.2783 -0.1651 -0.1709
 2808TIP3    H129839   0.731   5.518   1.994  0.1013 -0.8694 -0.3247
 2808TIP3    H229840   0.766   5.447   1.865  0.3653  0.4496 -0.9897
 2809TIP3   OH229841   2.404   5.183  14.758  0.4871  0.1621 -0.0950
 2809TIP3    H129842   2.346   5.257  14.738  0.4598  0.2230  0.2064
 2809TIP3    H229843   2.347   5.106  14.752  0.0351  0.3484  1.6339
 2810TIP3   OH229844   6.779   6.512  11.154  0.3865 -0.2560 -0.5221
 2810TIP3    H129845   6.712   6.579  11.169  0.2999 -0.8707  2.0257
 2810TIP3    H229846   6.732   6.441  11.110 -0.4510 -0.3392  0.5024
 2811TIP3   OH229847   0.017   5.179  14.624 -0.4791 -0.2307  0.2047
 2811TIP3    H129848  -0.077   5.185  14.640 -0.4473  0.4710  0.1192
 2811TIP3    H229849   0.029   5.092  14.585 -0.9504 -0.7305  1.1639
 2812TIP3   OH229850   2.358   4.373  15.744 -0.4366  0.4151  0.4881
 2812TIP3    H129851   2.355   4.448  15.802 -0.3660  1.0193 -0.2821
 2812TIP3    H229852   2.316   4.403  15.663  1.2104  0.2047 -0.4690
 2813TIP3   OH229853   0.224   0.560  11.656  0.5494  0.2255  0.3740
 2813TIP3    H129854   0.272   0.579  11.737  0.2290  1.6374  0.2448
 2813TIP3    H229855   0.277   0.599  11.587 -1.6893  3.5261  0.4155
 2814TIP3   OH229856   0.602   3.542   1.555  0.3420 -0.1434 -0.1782
 2814TIP3    H129857   0.595   3.459   1.602 -0.5976 -0.3057 -0.5759
 2814TIP3    H229858   0.525   3.591   1.583 -0.1553 -0.1912 -1.4302
 2815TIP3   OH229859   1.842   4.854   1.982  0.0792 -0.6767 -0.1517
 2815TIP3    H129860   1.805   4.787   2.039  0.8236 -2.7344 -2.0055
 2815TIP3    H229861   1.775   4.870   1.916  0.9744 -1.6929 -1.3451
 2816TIP3   OH229862   1.710   1.943   3.783 -0.1836  0.5394  0.0036
 2816TIP3    H129863   1.695   2.022   3.835  1.0762 -0.1024  1.3723
 2816TIP3    H229864   1.749   1.880   3.844 -3.1759 -1.9389 -0.4770
 2817TIP3   OH229865   1.999   2.586  13.136  0.0815  0.1580 -0.7145
 2817TIP3    H129866   1.940   2.561  13.066 -0.1861  1.5828 -1.0018
 2817TIP3    H229867   2.078   2.616  13.092 -0.2379  1.4489 -0.4347
 2818TIP3   OH229868   5.003   3.783  12.688 -0.3741  0.7173  0.0553
 2818TIP3    H129869   4.990   3.776  12.593 -1.7233 -2.4530  0.3763
 2818TIP3    H229870   4.914   3.788  12.724  0.0317 -0.3067  1.2466
 2819TIP3   OH229871   5.098   1.042   5.138  0.2568 -0.1878  0.3229
 2819TIP3    H129872   5.087   1.083   5.052  0.9810 -2.0405 -0.6810
 2819TIP3    H229873   5.046   1.096   5.197 -2.8721 -0.7226 -1.8167
 2820TIP3   OH229874   4.058   4.622  16.461 -0.2884  0.2782  0.0616
 2820TIP3    H129875   4.093   4.533  16.458  0.1989  0.4362  0.9708
 2820TIP3    H229876   4.133   4.677  16.484 -0.5648  0.9413 -0.5856
 2821TIP3   OH229877   3.943   6.633   2.724 -0.1928  0.2794 -0.0520
 2821TIP3    H129878   3.988   6.549   2.720 -0.6676 -0.0552  1.2242
 2821TIP3    H229879   3.921   6.653   2.633 -0.6539 -1.2982 -0.3097
 2822TIP3   OH229880   0.651   5.673  15.862 -0.1352  0.2624 -0.2094
 2822TIP3    H129881   0.620   5.592  15.821  1.6980 -0.2207 -0.6723
 2822TIP3    H229882   0.599   5.742  15.822  0.9896 -0.2928 -2.6823
 2823TIP3   OH229883   0.992   5.949   3.025 -0.9890  0.0007 -0.0652
 2823TIP3    H129884   1.022   5.896   3.098 -0.2353  0.4003 -0.0720
 2823TIP3    H229885   0.978   5.886   2.954 -1.1275 -0.3114  0.2369
 2824TIP3   OH229886   3.622   2.863  12.217  0.3018 -0.2308 -0.0368
 2824TIP3    H129887   3.706   2.909  12.225  0.3242 -0.3598  0.4761
 2824TIP3    H229888   3.640   2.789  12.159  0.5151 -0.1921 -0.0194
 2825TIP3   OH229889   6.726   3.466  13.279  0.4295 -0.3461  0.4549
 2825TIP3    H129890   6.657   3.527  13.304  0.3038 -0.6170  0.7778
 2825TIP3    H229891   6.722   3.397  13.346  0.8642 -0.4744  0.3479
 2826TIP3   OH229892   2.133   0.267   5.333  0.5070 -0.5305 -0.2264
 2826TIP3    H129893   2.153   0.287   5.241  0.4098 -1.4812 -0.4675
 2826TIP3    H229894   2.124   0.172   5.334 -0.4080 -0.4412  0.5896
 2827TIP3   OH229895   5.455   3.095   2.960 -0.1894  0.1570 -0.1365
 2827TIP3    H129896   5.548   3.078   2.947  0.1453  0.4353  1.7273
 2827TIP3    H229897   5.442   3.185   2.929 -0.0585 -0.2249 -1.3298
 2828TIP3   OH229898   1.563   1.264  13.719  0.3531 -0.3581 -0.3952
 2828TIP3    H129899   1.524   1.350  13.700  0.6507  0.0090  0.6373
 2828TIP3    H229900   1.489   1.211  13.749  0.4020 -0.0461  0.2995
 2829TIP3   OH229901   6.278   4.628  11.666 -0.6011 -0.3827 -0.3554
 2829TIP3    H129902   6.216   4.692  11.702 -2.2555 -2.1921  0.0858
 2829TIP3    H229903   6.357   4.638  11.719 -1.8685 -0.7546  1.6633
 2830TIP3   OH229904   0.936   1.246   5.320 -0.1698 -0.0066 -0.2417
 2830TIP3    H129905   0.940   1.250   5.415  1.2730  0.1729 -0.2964
 2830TIP3    H229906   0.918   1.155   5.300 -1.1940  0.0871  0.2117
 2831TIP3   OH229907   6.541   6.109  12.795 -0.3354 -0.0181  0.2198
 2831TIP3    H129908   6.601   6.182  12.812 -0.1753  0.8683 -3.7052
 2831TIP3    H229909   6.459   6.136  12.837  0.9908  0.2670  2.7468
 2832TIP3   OH229910   3.745   3.372   2.161  0.1421 -0.2566  0.3691
 2832TIP3    H129911   3.837   3.389   2.179 -0.0871  0.4914  0.8849
 2832TIP3    H229912   3.731   3.281   2.188  0.4469  0.0117  1.4602
 2833TIP3   OH229913   1.630   4.946  12.975  0.5537  0.3241  0.2980
 2833TIP3    H129914   1.544   4.924  13.012  0.4131 -0.2588 -0.3662
 2833TIP3    H229915   1.657   5.024  13.022 -1.6103  2.1973 -1.4500
 2834TIP3   OH229916   0.069   3.251   5.607 -0.0058 -0.8840  0.4470
 2834TIP3    H129917   0.152   3.204   5.609  0.8105  0.5440  0.8692
 2834TIP3    H229918   0.056   3.273   5.515  1.0681  0.5683  0.6228
 2835TIP3   OH229919   2.538   1.982   0.343  0.8488  0.2865 -0.1610
 2835TIP3    H129920   2.477   1.977   0.418 -0.1133  0.5865 -0.9110
 2835TIP3    H229921   2.490   2.033   0.278  1.1399 -1.1361 -1.5020
 2836TIP3   OH229922   5.020   0.263   0.893  0.6699  0.3760 -0.2557
 2836TIP3    H129923   5.097   0.315   0.873  1.2413  0.0786  1.1024
 2836TIP3    H229924   5.041   0.175   0.861  1.6141 -0.1196  1.6737
 2837TIP3   OH229925   6.067   3.313  15.454 -0.7129  0.2639  0.0711
 2837TIP3    H129926   6.046   3.394  15.501  1.5527  0.5382  0.7079
 2837TIP3    H229927   5.996   3.302  15.391 -1.4315  2.3718  0.4696
 2838TIP3   OH229928   2.601   0.825   4.787 -0.6739 -0.3286  0.4962
 2838TIP3    H129929   2.588   0.732   4.768  3.5935 -0.8805 -0.0574
 2838TIP3    H229930   2.587   0.832   4.882 -1.5020 -1.3986  0.4675
 2839TIP3   OH229931   6.777   3.784  11.078 -0.1900 -0.2102 -0.8198
 2839TIP3    H129932   6.844   3.770  11.012  0.1946 -0.4334 -0.3854
 2839TIP3    H229933   6.729   3.701  11.081  0.7725 -0.7379  0.2790
 2840TIP3   OH229934   5.328   3.194  11.776 -0.2923 -1.3555  0.3352
 2840TIP3    H129935   5.250   3.190  11.720 -0.6634 -0.7554  0.8068
 2840TIP3    H229936   5.312   3.128  11.844 -1.0778 -0.2087  1.2943
 2841TIP3   OH229937   5.699   0.675   5.505  0.7044  0.1917 -0.1209
 2841TIP3    H129938   5.698   0.718   5.591 -3.7452  2.2097 -1.0033
 2841TIP3    H229939   5.655   0.591   5.520  1.2692 -0.1105 -0.1495
 2842TIP3   OH229940   1.407   0.644   4.261  0.1195  0.1583 -0.5900
 2842TIP3    H129941   1.473   0.592   4.215  0.9948 -0.7533  1.6618
 2842TIP3    H229942   1.456   0.695   4.324 -1.3235 -0.5313  1.1258
 2843TIP3   OH229943   5.049   6.445   6.232 -0.1103  0.1229 -0.0268
 2843TIP3    H129944   5.103   6.427   6.309 -2.0527 -3.3025  0.6518
 2843TIP3    H229945   5.112   6.455   6.161  1.5620 -0.1082  1.3654
 2844TIP3   OH229946   3.798   0.188  15.997 -0.0343  0.0206 -0.4374
 2844TIP3    H129947   3.832   0.188  15.907 -1.9366 -2.3964 -1.2267
 2844TIP3    H229948   3.776   0.096  16.014  0.0147  0.4995  2.4088
 2845TIP3   OH229949   1.764   5.473  15.360 -0.3113 -0.4142 -0.2126
 2845TIP3    H129950   1.849   5.429  15.353 -0.3489 -0.4940 -0.1637
 2845TIP3    H229951   1.739   5.462  15.451 -0.7679 -1.1230 -0.4135
 2846TIP3   OH229952   5.779   5.763  14.226  0.5170 -0.6742  0.7508
 2846TIP3    H129953   5.850   5.765  14.162  0.1077 -2.1303  0.2240
 2846TIP3    H229954   5.699   5.758  14.173  0.1717 -1.7968  1.3438
 2847TIP3   OH229955   1.869   6.081  11.858  0.1268  0.6365  0.3679
 2847TIP3    H129956   1.807   6.082  11.784  0.4732  1.3391  0.0738
 2847TIP3    H229957   1.942   6.136  11.828  0.9272 -0.2469  0.6806
 2848TIP3   OH229958   0.771   1.686   3.493  0.2477  0.3965  0.2975
 2848TIP3    H129959   0.721   1.605   3.502 -0.5121  0.9596  1.2603
 2848TIP3    H229960   0.803   1.685   3.403 -2.3460  0.4898 -0.6687
 2849TIP3   OH229961   4.633   6.584  17.202 -0.0899  0.5170 -0.2097
 2849TIP3    H129962   4.585   6.511  17.163 -0.0313  0.6079 -0.4477
 2849TIP3    H229963   4.598   6.662  17.159  0.7281  0.5336 -0.8473
 2850TIP3   OH229964   1.956   4.116  15.849 -0.2891  0.4359 -0.0638
 2850TIP3    H129965   1.967   4.060  15.926 -1.6318 -1.4356 -1.1875
 2850TIP3    H229966   1.943   4.204  15.886 -1.3671 -0.4954  1.8769
 2851TIP3   OH229967   1.555   4.996  12.115  0.4590 -0.1603  0.5250
 2851TIP3    H129968   1.506   5.007  12.034 -1.0544 -2.6369  1.0629
 2851TIP3    H229969   1.489   4.983  12.182  1.7743 -3.6064  1.2682
 2852TIP3   OH229970   3.468   1.512   2.469  0.0675 -0.0039  0.1636
 2852TIP3    H129971   3.514   1.576   2.415  1.5642  0.5815  2.0864
 2852TIP3    H229972   3.490   1.427   2.430 -0.2790  0.5020 -1.1648
 2853TIP3   OH229973   2.602   0.108  16.162  0.0257 -0.4391  0.0493
 2853TIP3    H129974   2.600   0.202  16.147  0.4941 -0.2070  1.3960
 2853TIP3    H229975   2.526   0.074  16.114 -0.4488  0.6933 -0.0036
 2854TIP3   OH229976   4.990   0.212  15.597  0.0328  0.0832 -0.0017
 2854TIP3    H129977   5.008   0.304  15.575  0.1076 -0.6990 -3.5539
 2854TIP3    H229978   5.055   0.162  15.547 -1.8448 -2.0242 -0.4296
 2855TIP3   OH229979   2.282   0.742   6.400 -0.3532  0.2874  0.4450
 2855TIP3    H129980   2.214   0.761   6.336 -1.8691 -0.2247  1.8661
 2855TIP3    H229981   2.241   0.681   6.461  1.4583 -0.2117  1.1918
 2856TIP3   OH229982   3.111   6.128  11.599  1.0103  0.1693  0.0882
 2856TIP3    H129983   3.171   6.068  11.643  1.0539  1.8793  2.4815
 2856TIP3    H229984   3.150   6.215  11.613 -1.5708  1.2269  0.9950
 2857TIP3   OH229985   2.631   4.175   2.784 -0.3902 -0.7821 -0.1758
 2857TIP3    H129986   2.659   4.095   2.740  2.4267  1.3399 -2.5207
 2857TIP3    H229987   2.710   4.208   2.827 -0.9144  1.7168 -0.9853
 2858TIP3   OH229988   1.390   3.607   3.893 -0.1597 -0.4342 -0.1942
 2858TIP3    H129989   1.478   3.610   3.857  1.2257 -1.4482  2.9453
 2858TIP3    H229990   1.367   3.514   3.896 -0.9966 -0.2380 -0.1807
 2859TIP3   OH229991   1.313   3.438   0.383 -0.2234  0.2813  0.3029
 2859TIP3    H129992   1.348   3.386   0.455  0.6628  0.7048  0.1901
 2859TIP3    H229993   1.285   3.520   0.424 -1.1865 -0.0860  0.4059
 2860TIP3   OH229994   5.690   2.136  14.587 -0.4180 -0.2114  0.0629
 2860TIP3    H129995   5.616   2.165  14.640 -1.1353 -1.2175 -0.3761
 2860TIP3    H229996   5.701   2.044  14.610 -0.7917 -0.6795 -1.5896
 2861TIP3   OH229997   1.925   5.853  12.790 -0.0066 -0.0160  0.9789
 2861TIP3    H129998   1.878   5.928  12.753 -0.8808 -0.4094  1.2633
 2861TIP3    H229999   2.015   5.883  12.802 -0.5408  1.2307  1.8374
 2862TIP3   OH230000   2.456   0.479  13.720 -0.6607  0.3747 -0.1457
 2862TIP3    H130001   2.518   0.546  13.691  0.5097 -0.9673 -0.8274
 2862TIP3    H230002   2.424   0.511  13.804  0.7408  1.2366  0.0779
 2863TIP3   OH230003   2.386   4.464   0.536 -0.0325 -0.1183 -0.2261
 2863TIP3    H130004   2.478   4.468   0.510 -0.1898 -2.5210 -1.2658
 2863TIP3    H230005   2.374   4.376   0.572 -1.7839  0.3717  0.4829
 2864TIP3   OH230006   2.918   5.171   4.838  0.2677 -0.2981  0.4081
 2864TIP3    H130007   2.936   5.092   4.889 -1.4218 -0.6375  0.5221
 2864TIP3    H230008   2.882   5.233   4.901  1.1087  0.3925  0.2208
 2865TIP3   OH230009   6.034   6.087  12.531 -0.1295  0.4211 -0.1277
 2865TIP3    H130010   5.989   6.109  12.613  0.1072  1.0013 -0.1493
 2865TIP3    H230011   6.122   6.061  12.559 -0.6064 -1.1394 -0.0456
 2866TIP3   OH230012   4.521   2.108  13.804  0.2809  0.0797  0.2895
 2866TIP3    H130013   4.472   2.191  13.807  0.6172  0.2965 -0.1861
 2866TIP3    H230014   4.606   2.130  13.843  0.3144 -0.0789  0.3033
 2867TIP3   OH230015   1.920   3.963   4.806 -0.5295 -0.4300  0.0855
 2867TIP3    H130016   1.857   3.962   4.733  0.6268 -1.8295 -0.9214
 2867TIP3    H230017   1.920   3.873   4.840  0.5612 -0.3315  0.3805
 2868TIP3   OH230018   0.927   0.260   5.598 -0.3520  0.3857  0.3334
 2868TIP3    H130019   0.982   0.183   5.583  0.2655  0.9890 -0.5364
 2868TIP3    H230020   0.843   0.237   5.560 -0.0826  0.2345 -0.1840
 2869TIP3   OH230021   0.662   4.123  16.032  0.0250  0.4752  0.0651
 2869TIP3    H130022   0.590   4.060  16.023  1.1380 -1.0074  1.3293
 2869TIP3    H230023   0.730   4.090  15.972  0.2361  1.0375 -0.0109
 2870TIP3   OH230024   1.296   4.994  16.633  0.0581 -0.1340  0.0809
 2870TIP3    H130025   1.347   5.048  16.694 -0.7474 -0.1844  0.8040
 2870TIP3    H230026   1.354   4.922  16.610  0.5768  0.2065  0.3209
 2871TIP3   OH230027   0.969   5.532  14.933 -0.5834 -0.1667 -0.2004
 2871TIP3    H130028   0.888   5.576  14.956  0.6588  1.2295  1.6134
 2871TIP3    H230029   0.956   5.504  14.843 -1.6395  3.3503 -1.1991
 2872TIP3   OH230030   5.803   4.584  13.496 -0.1096 -0.6948 -0.2965
 2872TIP3    H130031   5.837   4.655  13.549 -1.6075 -0.4309  0.3255
 2872TIP3    H230032   5.714   4.610  13.474 -0.4957 -2.1292 -0.5064
 2873TIP3   OH230033   4.233   4.882  10.324  0.4933 -0.5122  0.7365
 2873TIP3    H130034   4.141   4.903  10.310  0.8285 -1.0141 -2.5537
 2873TIP3    H230035   4.247   4.895  10.418 -2.3827  1.6603  0.9089
 2874TIP3   OH230036   2.331   6.440  13.868 -0.5155  0.1700  0.0886
 2874TIP3    H130037   2.322   6.535  13.859 -0.1695  0.2814  0.8751
 2874TIP3    H230038   2.289   6.420  13.952 -0.9583 -0.4281 -0.2697
 2875TIP3   OH230039   2.313   1.420  12.218  0.4251  0.6131 -0.2889
 2875TIP3    H130040   2.358   1.365  12.281  0.1066  0.8999  0.1879
 2875TIP3    H230041   2.372   1.423  12.143  1.1782  0.9442  0.3128
 2876TIP3   OH230042   0.415   2.200  15.913  0.2515  0.5638  0.0366
 2876TIP3    H130043   0.484   2.255  15.876  0.7622  0.0560  0.2399
 2876TIP3    H230044   0.412   2.225  16.006  0.2365  0.5070  0.0511
 2877TIP3   OH230045   5.987   5.155  14.480 -0.5003  0.1425  0.1430
 2877TIP3    H130046   5.935   5.106  14.543 -0.6102  0.1134  0.0321
 2877TIP3    H230047   6.074   5.161  14.519 -0.0201 -1.6493 -0.6081
 2878TIP3   OH230048   4.138   3.833  15.726 -0.4006 -0.2839 -0.3240
 2878TIP3    H130049   4.157   3.744  15.755  4.7078  0.7801 -0.0168
 2878TIP3    H230050   4.128   3.883  15.807 -0.0022  0.0559 -0.4843
 2879TIP3   OH230051   2.572   0.714  16.846 -0.4877 -0.1976  0.2530
 2879TIP3    H130052   2.499   0.742  16.902  0.5646 -1.1475  2.1507
 2879TIP3    H230053   2.592   0.626  16.875 -0.3498 -1.0001 -2.1456
 2880TIP3   OH230054   3.603   5.977   2.839  0.0688  0.2660 -0.0603
 2880TIP3    H130055   3.582   6.016   2.754 -0.4662 -1.0236 -0.5409
 2880TIP3    H230056   3.617   6.051   2.897  1.1158  1.1564 -1.4388
 2881TIP3   OH230057   5.728   0.816   4.637  0.1227  0.3512  0.0005
 2881TIP3    H130058   5.721   0.758   4.561  1.6135  0.9768 -0.6447
 2881TIP3    H230059   5.775   0.764   4.702  1.0629  0.6683 -0.4175
 2882TIP3   OH230060   3.333   2.307   3.614 -0.1424 -0.0856  0.2164
 2882TIP3    H130061   3.300   2.362   3.686  0.2852  2.3466 -1.3913
 2882TIP3    H230062   3.426   2.328   3.608 -0.1108 -0.5058 -0.8608
 2883TIP3   OH230063   6.308   2.133   1.919 -0.4040  0.0073 -0.1035
 2883TIP3    H130064   6.291   2.060   1.979 -1.5606  0.3160 -0.0516
 2883TIP3    H230065   6.361   2.194   1.971  0.0502 -0.5019  0.0482
 2884TIP3   OH230066   0.001   3.021   1.695  0.6249  0.5083 -0.2253
 2884TIP3    H130067  -0.042   2.964   1.758 -1.9140  0.3829 -2.0069
 2884TIP3    H230068   0.086   3.040   1.734 -0.1498 -1.0736  2.3367
 2885TIP3   OH230069   0.424   0.637   4.050 -0.0739 -0.5807  0.3719
 2885TIP3    H130070   0.427   0.602   3.961  2.3212 -0.2934  0.2803
 2885TIP3    H230071   0.466   0.570   4.103  0.8737  0.3646  0.8418
 2886TIP3   OH230072   3.941   2.516  16.383  0.0553  0.2655 -0.2281
 2886TIP3    H130073   3.921   2.610  16.383  0.8636  0.4509  0.4798
 2886TIP3    H230074   3.877   2.477  16.324  0.0858  1.3511 -0.9908
 2887TIP3   OH230075   4.269   1.049  14.903  0.4019  0.2048 -0.0065
 2887TIP3    H130076   4.362   1.029  14.915  0.8196  1.4122 -1.1273
 2887TIP3    H230077   4.240   0.985  14.838  1.6113  2.7651 -3.1958
 2888TIP3   OH230078   0.437   4.809  13.778  0.1581 -0.5051 -0.1511
 2888TIP3    H130079   0.364   4.817  13.716 -0.7082 -1.2852  0.7563
 2888TIP3    H230080   0.512   4.843  13.730 -1.0187  1.4363 -0.6908
 2889TIP3   OH230081   6.548   0.957  17.150  0.2749  0.0976 -0.0507
 2889TIP3    H130082   6.624   1.005  17.116  0.1612 -0.0634 -0.5416
 2889TIP3    H230083   6.518   0.905  17.076  0.7466 -1.1766  0.6297
 2890TIP3   OH230084   2.101   0.169   5.015  0.2744  0.7034  0.0118
 2890TIP3    H130085   2.046   0.244   4.995 -0.5139  0.4157  1.0327
 2890TIP3    H230086   2.141   0.145   4.932 -1.0195  1.0223 -0.7151
 2891TIP3   OH230087   0.441   0.672  16.840  0.0677 -0.2156 -0.1569
 2891TIP3    H130088   0.398   0.673  16.755 -0.5218 -0.7248  0.1324
 2891TIP3    H230089   0.372   0.694  16.903  0.4678  0.0270  0.2064
 2892TIP3   OH230090   2.252   4.806   1.833  0.0005  0.5580 -0.3830
 2892TIP3    H130091   2.236   4.847   1.918 -1.0031  0.7286 -0.6397
 2892TIP3    H230092   2.346   4.793   1.829  0.1341  1.2652  0.4307
 2893TIP3   OH230093   2.111   2.285   5.377 -0.0700 -0.2255 -0.2054
 2893TIP3    H130094   2.024   2.325   5.378 -1.4075 -2.9086 -1.9165
 2893TIP3    H230095   2.129   2.269   5.284  1.8091 -0.6331  0.2051
 2894TIP3   OH230096   5.470   4.510  11.295 -0.4590 -0.9090 -0.2009
 2894TIP3    H130097   5.402   4.524  11.229 -0.3691  0.4116 -0.0246
 2894TIP3    H230098   5.521   4.590  11.294 -0.4327 -0.8918  1.4510
 2895TIP3   OH230099   1.630   2.616  16.816  0.2712  0.1767 -0.3118
 2895TIP3    H130100   1.628   2.521  16.826 -1.6132  0.1436 -0.8901
 2895TIP3    H230101   1.637   2.631  16.722  0.1488  0.6070 -0.2549
 2896TIP3   OH230102   1.753   1.525   6.595 -0.3119  0.1023  0.0500
 2896TIP3    H130103   1.676   1.505   6.541 -0.0298 -0.7260 -0.0550
 2896TIP3    H230104   1.776   1.441   6.635  1.5431 -0.0196 -1.2223
 2897TIP3   OH230105   4.484   6.586   2.084  0.3419  0.3080 -0.1225
 2897TIP3    H130106   4.474   6.677   2.058  2.0407  0.5903  0.1831
 2897TIP3    H230107   4.394   6.553   2.090 -0.2491  1.7092 -1.0763
 2898TIP3   OH230108   4.010   0.596  14.829  0.2622  0.2846  0.1051
 2898TIP3    H130109   3.987   0.503  14.835  1.6691  0.0134  1.9052
 2898TIP3    H230110   4.066   0.611  14.906  1.1492  2.2962 -0.9073
 2899TIP3   OH230111   0.859   1.213   2.348  0.3876  0.6835 -0.2188
 2899TIP3    H130112   0.895   1.132   2.383  1.8543  0.8050 -1.3941
 2899TIP3    H230113   0.840   1.194   2.257 -1.2685  1.0386  0.0367
 2900TIP3   OH230114   1.122   0.004  13.562 -0.5588 -0.1948 -0.0389
 2900TIP3    H130115   1.123   0.057  13.642  0.4619  0.7321 -0.6419
 2900TIP3    H230116   1.168   0.058  13.497 -1.8895 -0.6901 -1.4159
 2901TIP3   OH230117   3.823   0.376   1.917 -0.0927  0.3973  0.0344
 2901TIP3    H130118   3.760   0.430   1.965  0.7753  1.5079 -0.0503
 2901TIP3    H230119   3.860   0.434   1.851 -0.6189 -0.8784 -1.4001
 2902TIP3   OH230120   5.069   3.029  13.378 -0.4839 -0.1388 -0.0608
 2902TIP3    H130121   5.142   3.070  13.425 -0.4690 -0.5175  0.2514
 2902TIP3    H230122   4.992   3.078  13.406 -0.4794 -0.3789  0.3928
 2903TIP3   OH230123   5.699   2.150   5.115  0.4694  0.1810 -0.2494
 2903TIP3    H130124   5.744   2.144   5.031 -0.3863 -2.3061 -0.5809
 2903TIP3    H230125   5.753   2.100   5.175 -0.5737 -0.7871 -0.0914
 2904TIP3   OH230126   6.445   2.495   0.862  0.0757 -0.1724  0.3671
 2904TIP3    H130127   6.499   2.524   0.789 -0.8290 -0.0741 -0.2688
 2904TIP3    H230128   6.478   2.545   0.937  0.6988  0.0660 -0.0598
 2905TIP3   OH230129   0.684   5.311   0.879 -0.4962 -0.0631 -0.0140
 2905TIP3    H130130   0.721   5.350   0.958 -1.0977 -0.5243  0.5071
 2905TIP3    H230131   0.756   5.262   0.839  0.0922  1.0453 -0.3278
 2906TIP3   OH230132   6.444   2.024   0.477 -0.0811 -0.6567 -0.0414
 2906TIP3    H130133   6.384   1.955   0.448 -1.4073  0.2195  0.5760
 2906TIP3    H230134   6.444   2.088   0.406 -1.7876  0.5194  0.9757
 2907TIP3   OH230135   5.194   3.383   0.536 -0.3775 -0.7372  0.2401
 2907TIP3    H130136   5.204   3.454   0.599 -0.2840 -0.6719  0.1533
 2907TIP3    H230137   5.101   3.381   0.516 -0.1471  0.5106 -1.0744
 2908TIP3   OH230138   1.588   6.772   2.127  0.2152  0.2045  0.0387
 2908TIP3    H130139   1.516   6.710   2.129 -0.2070  0.6761 -0.3947
 2908TIP3    H230140   1.563   6.836   2.060  2.0978 -0.9362 -1.8457
 2909TIP3   OH230141   1.285   3.254   3.836 -0.2796  0.1590 -0.5229
 2909TIP3    H130142   1.266   3.214   3.921  1.1943 -1.0048 -0.7207
 2909TIP3    H230143   1.370   3.218   3.811 -0.1454  1.4076 -1.9440
 2910TIP3   OH230144   4.294   3.162   5.426 -0.2879 -0.4320  0.0838
 2910TIP3    H130145   4.214   3.214   5.429 -0.4442 -0.4631 -2.4244
 2910TIP3    H230146   4.358   3.218   5.382  0.7124 -0.8648  0.9758
 2911TIP3   OH230147   3.746   4.803  14.218  0.1758  0.3193  0.1564
 2911TIP3    H130148   3.659   4.764  14.221 -0.2373  1.1340 -0.8825
 2911TIP3    H230149   3.766   4.826  14.309 -0.4788 -0.3125  0.4658
 2912TIP3   OH230150   3.206   5.823   5.835  0.4317  0.2991  0.8294
 2912TIP3    H130151   3.171   5.878   5.904 -2.2367  0.2041 -0.3851
 2912TIP3    H230152   3.160   5.739   5.845  0.9346 -0.1233 -0.2556
 2913TIP3   OH230153   3.699   3.904   5.172 -0.3801 -0.0870  0.9314
 2913TIP3    H130154   3.618   3.884   5.220 -0.7891 -0.1161  0.2441
 2913TIP3    H230155   3.683   3.990   5.134 -0.9111 -0.9660 -0.9064
 2914TIP3   OH230156   2.317   2.644  11.171  0.3946 -0.6364 -0.1533
 2914TIP3    H130157   2.246   2.582  11.182 -0.1109  0.2271  1.4930
 2914TIP3    H230158   2.293   2.695  11.093 -0.8466 -0.2645  0.4681
 2915TIP3   OH230159   3.049   3.918  13.150 -0.2215  0.3508  0.3346
 2915TIP3    H130160   2.994   3.963  13.085 -2.2752 -1.0702  1.0134
 2915TIP3    H230161   2.988   3.858  13.195  2.2443 -2.5820 -0.0637
 2916TIP3   OH230162   4.594   1.336   3.151  0.2794 -0.3004  0.1783
 2916TIP3    H130163   4.633   1.368   3.233  2.3204 -1.0107 -0.4868
 2916TIP3    H230164   4.650   1.263   3.125 -0.1218  0.1562 -2.0367
 2917TIP3   OH230165   2.841   1.053   2.558 -0.3342 -0.0599 -0.4308
 2917TIP3    H130166   2.759   1.056   2.508  0.1980  0.0398 -1.3263
 2917TIP3    H230167   2.834   0.975   2.612 -0.9137 -0.1917 -0.6916
 2918TIP3   OH230168   6.640   0.746   1.621 -0.0962  0.1424 -0.0361
 2918TIP3    H130169   6.559   0.731   1.574 -0.1342  0.6549 -0.1338
 2918TIP3    H230170   6.671   0.831   1.590  0.3612  0.0523  0.1653
 2919TIP3   OH230171   2.820   3.482   5.584 -0.1585  0.5924  0.4026
 2919TIP3    H130172   2.892   3.419   5.589 -0.0752  0.4226 -2.0902
 2919TIP3    H230173   2.805   3.493   5.490 -1.8386  2.4042  0.8531
 2920TIP3   OH230174   4.814   6.347   3.915 -0.2476 -0.3288 -0.1459
 2920TIP3    H130175   4.740   6.317   3.861 -0.2737 -0.1446 -0.2120
 2920TIP3    H230176   4.827   6.438   3.889 -1.9013  0.5561  1.9509
 2921TIP3   OH230177   6.612   3.861   2.970 -0.1410  0.2027  0.6553
 2921TIP3    H130178   6.634   3.955   2.977  0.5241  0.1780 -0.8445
 2921TIP3    H230179   6.696   3.817   2.984 -0.7083 -0.2482  2.7828
 2922TIP3   OH230180   6.390   3.555  13.652  0.3919  0.2106  0.0308
 2922TIP3    H130181   6.397   3.476  13.705 -1.3492 -0.7127 -1.0505
 2922TIP3    H230182   6.298   3.582  13.662  0.8968  1.9227  0.1548
 2923TIP3   OH230183   6.221   0.204   3.608 -0.2831 -0.2508 -0.1560
 2923TIP3    H130184   6.141   0.237   3.568 -0.3997  0.4905  0.6897
 2923TIP3    H230185   6.287   0.271   3.587  0.6047 -1.8332 -2.6160
 2924TIP3   OH230186   1.986   3.777  14.550  0.2269 -0.4358 -0.0556
 2924TIP3    H130187   2.073   3.762  14.514 -0.0630  1.7153 -1.7627
 2924TIP3    H230188   1.928   3.777  14.473 -1.2597 -1.6157  1.0333
 2925TIP3   OH230189   0.714   1.166  12.003  0.0867 -0.3417 -0.1145
 2925TIP3    H130190   0.715   1.259  11.979 -0.8231 -0.5070 -0.8105
 2925TIP3    H230191   0.779   1.159  12.073 -0.5016  0.9848  0.5797
 2926TIP3   OH230192   4.393   2.843   6.038  0.3246  0.4771  0.3983
 2926TIP3    H130193   4.446   2.880   6.109  1.3879  2.8347 -1.5439
 2926TIP3    H230194   4.328   2.910   6.019  0.1566 -0.0531 -0.9711
 2927TIP3   OH230195   6.435   5.329  15.580 -0.3306 -1.1366 -0.1960
 2927TIP3    H130196   6.345   5.322  15.549 -1.5102  3.1951  1.7942
 2927TIP3    H230197   6.431   5.305  15.673 -0.2721  2.4509  0.8384
 2928TIP3   OH230198   5.194   5.846   5.162  0.0503 -0.4686  0.7128
 2928TIP3    H130199   5.238   5.765   5.135 -0.2091 -0.2292 -0.4533
 2928TIP3    H230200   5.265   5.909   5.175  0.1518 -0.4417  0.0640
 2929TIP3   OH230201   1.805   3.523  16.750 -0.7892  0.1290 -0.3566
 2929TIP3    H130202   1.744   3.588  16.716 -2.1093 -0.9277 -0.0526
 2929TIP3    H230203   1.814   3.459  16.679  0.3188  0.4952 -0.5639
 2930TIP3   OH230204   2.212   5.514   2.099 -0.2251 -0.9778 -0.4352
 2930TIP3    H130205   2.288   5.543   2.150  0.5786 -2.2203 -0.9092
 2930TIP3    H230206   2.244   5.439   2.050 -2.0329 -2.1391  0.1275
 2931TIP3   OH230207   3.033   1.857  15.021  0.6119 -0.0034 -0.1637
 2931TIP3    H130208   3.059   1.859  14.929  0.8511  0.0123 -0.0963
 2931TIP3    H230209   3.049   1.947  15.052 -1.1065  0.4568 -0.5514
 2932TIP3   OH230210   6.078   1.453   4.874 -0.8791  0.5722 -0.3679
 2932TIP3    H130211   6.077   1.391   4.947  0.3214  1.0804  0.0863
 2932TIP3    H230212   5.986   1.474   4.860 -1.2657 -0.9685 -0.2314
 2933TIP3   OH230213   4.358   5.911  12.965  0.2161 -0.6599 -0.0498
 2933TIP3    H130214   4.377   5.821  12.937 -0.3793 -0.6854 -0.3785
 2933TIP3    H230215   4.303   5.947  12.895 -1.4733 -0.8014  1.1785
 2934TIP3   OH230216   1.090   2.418   2.777  0.6237  0.0726 -0.2682
 2934TIP3    H130217   1.020   2.435   2.840  0.4804 -1.1904 -0.0703
 2934TIP3    H230218   1.170   2.443   2.823  0.4405 -0.0281  0.1102
 2935TIP3   OH230219   3.056   6.337  11.240  0.1865 -0.1733  0.6284
 2935TIP3    H130220   3.013   6.262  11.281  0.2840 -1.2821 -1.2432
 2935TIP3    H230221   2.993   6.368  11.175  1.3562 -0.4861 -0.6611
 2936TIP3   OH230222   4.322   4.709  16.500  0.0658 -0.3001  0.3968
 2936TIP3    H130223   4.414   4.713  16.525 -0.2270 -1.2809  1.6924
 2936TIP3    H230224   4.320   4.651  16.425  0.6631  0.7957 -0.4842
 2937TIP3   OH230225   3.868   2.553  14.941  0.4675  0.2663  0.1613
 2937TIP3    H130226   3.778   2.573  14.917  0.2865 -0.0956  0.5403
 2937TIP3    H230227   3.863   2.525  15.033  0.9508  0.1396  0.1499
 2938TIP3   OH230228   0.853   4.844   0.110 -0.3055 -0.2089 -0.5203
 2938TIP3    H130229   0.873   4.752   0.122 -1.5973 -0.4655 -0.2257
 2938TIP3    H230230   0.900   4.870   0.031  2.1608 -0.4537  0.8375
 2939TIP3   OH230231   3.597   0.391   1.001 -0.1123  0.1657 -0.3587
 2939TIP3    H130232   3.687   0.363   0.985  1.1483  2.6139  1.9717
 2939TIP3    H230233   3.560   0.323   1.056  0.9294  0.0383  0.1974
 2940TIP3   OH230234   5.866   1.104   2.199 -0.5054 -0.0360 -0.1317
 2940TIP3    H130235   5.864   1.194   2.168 -2.3684  0.2516  0.7614
 2940TIP3    H230236   5.805   1.057   2.142  0.0543 -0.6346 -0.2532
 2941TIP3   OH230237   6.073   3.979   1.388  0.0099 -0.0292 -0.0918
 2941TIP3    H130238   6.164   3.999   1.368  0.4659 -2.1155 -0.2135
 2941TIP3    H230239   6.065   3.885   1.374 -1.7016 -0.1904  1.6714
 2942TIP3   OH230240   2.736   5.231   2.204 -0.6729  0.6187  0.0539
 2942TIP3    H130241   2.641   5.233   2.193 -0.3749 -0.8704 -3.3576
 2942TIP3    H230242   2.760   5.140   2.188  1.3225  0.8964  1.2624
 2943TIP3   OH230243   4.040   6.695  17.144  0.5769  0.1317 -0.0282
 2943TIP3    H130244   4.027   6.724  17.054  2.1990 -1.3203 -0.7607
 2943TIP3    H230245   3.976   6.625  17.156  0.3905  0.2958 -0.0482
 2944TIP3   OH230246   6.192   0.665   4.561  0.2453 -0.2350  0.0039
 2944TIP3    H130247   6.154   0.681   4.648 -1.9955  1.8235 -1.2872
 2944TIP3    H230248   6.140   0.593   4.526  1.5158 -1.4448  0.5372
 2945TIP3   OH230249   5.208   2.927   1.970 -0.0957  0.8648  0.1741
 2945TIP3    H130250   5.220   2.915   2.064 -0.0473 -0.0652  0.0543
 2945TIP3    H230251   5.145   2.860   1.944  0.1514  0.8853 -0.5117
 2946TIP3   OH230252   3.350   4.400   3.858 -0.1238  0.0679  0.3079
 2946TIP3    H130253   3.421   4.360   3.808 -0.3666  0.8352 -0.6679
 2946TIP3    H230254   3.353   4.493   3.836 -1.0179  0.2148  0.7523
 2947TIP3   OH230255   1.905   1.017   0.920  0.2671 -0.0861  0.3064
 2947TIP3    H130256   1.865   1.029   1.006 -1.4162 -1.8770 -0.2000
 2947TIP3    H230257   1.876   1.094   0.870 -3.2288 -1.6407 -0.2556
 2948TIP3   OH230258   4.683   4.677  11.200  0.3999  0.2138 -0.2814
 2948TIP3    H130259   4.591   4.684  11.174  0.1518 -0.6806  0.3446
 2948TIP3    H230260   4.718   4.764  11.186 -0.4765  0.4924 -0.7972
 2949TIP3   OH230261   4.125   4.359  15.945 -0.1129  0.4549  0.1347
 2949TIP3    H130262   4.182   4.433  15.965 -0.1744  0.0565  1.8335
 2949TIP3    H230263   4.136   4.300  16.019  1.5353 -2.2219 -2.1376
 2950TIP3   OH230264   5.992   1.417  13.128 -0.2933  0.3246 -0.1955
 2950TIP3    H130265   6.013   1.510  13.122 -0.5470  0.4390  0.6490
 2950TIP3    H230266   6.060   1.380  13.184 -0.4703  0.0891 -0.1342
 2951TIP3   OH230267   5.185   0.262  12.933 -0.0959  0.6778  0.2608
 2951TIP3    H130268   5.112   0.307  12.975 -0.4372 -0.3333  0.7692
 2951TIP3    H230269   5.149   0.231  12.850  0.2719  1.7318 -0.3008
 2952TIP3   OH230270   2.533   2.396  13.816  0.1381 -0.3626  0.7259
 2952TIP3    H130271   2.558   2.304  13.815  0.1105 -0.3609  0.0706
 2952TIP3    H230272   2.560   2.430  13.731 -0.6351  0.0224  0.6220
 2953TIP3   OH230273   5.010   5.060  13.031  0.7468  0.6468  0.5221
 2953TIP3    H130274   4.970   5.050  13.118  0.8417 -0.4002  0.4589
 2953TIP3    H230275   4.974   4.987  12.981 -2.8544  3.7948 -1.6932
 2954TIP3   OH230276   2.074   5.051  14.860 -0.1037  0.3824 -0.0620
 2954TIP3    H130277   2.044   5.124  14.806 -0.3404 -0.7568 -1.5036
 2954TIP3    H230278   2.061   5.081  14.950 -4.6086  0.3544 -0.6123
 2955TIP3   OH230279   0.595   6.162  12.300 -0.1822 -0.0853 -0.4559
 2955TIP3    H130280   0.582   6.112  12.381  1.0802 -0.4500 -0.4672
 2955TIP3    H230281   0.560   6.106  12.231 -1.7598  0.4550 -0.1222
 2956TIP3   OH230282   6.242   3.647  12.097 -0.2940 -0.1443 -0.2097
 2956TIP3    H130283   6.243   3.558  12.133  0.8584 -0.8478 -1.9487
 2956TIP3    H230284   6.312   3.693  12.143 -0.0152 -0.5063 -0.2794
 2957TIP3   OH230285   4.476   1.333  15.243 -0.0461 -0.2520  0.5899
 2957TIP3    H130286   4.484   1.374  15.157 -0.6754  0.2775  0.7800
 2957TIP3    H230287   4.429   1.251  15.226  0.9207 -0.7473  0.2573
 2958TIP3   OH230288   3.462   5.707  16.178  0.6855  0.2461  0.4770
 2958TIP3    H130289   3.503   5.791  16.198 -0.8202  0.8561  1.1063
 2958TIP3    H230290   3.374   5.730  16.149  0.1585 -1.1226  0.9558
 2959TIP3   OH230291   2.249   3.778   0.911  0.6261 -0.0852 -0.6599
 2959TIP3    H130292   2.284   3.865   0.890  1.3409 -0.8981 -3.0341
 2959TIP3    H230293   2.154   3.787   0.900  0.7416  0.2804 -1.4603
 2960TIP3   OH230294   6.152   4.916   0.608 -0.0367  0.1171  0.4180
 2960TIP3    H130295   6.147   5.008   0.637  1.1767  0.7369 -1.2691
 2960TIP3    H230296   6.241   4.889   0.629  0.2924  0.0199 -1.0532
 2961TIP3   OH230297   6.476   2.670   1.914 -0.4281 -0.0984  0.8036
 2961TIP3    H130298   6.399   2.716   1.879  0.5362 -0.0686 -1.3368
 2961TIP3    H230299   6.476   2.586   1.868  0.3012 -0.4596  1.4726
 2962TIP3   OH230300   3.702   3.529  11.462 -0.3821  0.5089 -0.1497
 2962TIP3    H130301   3.699   3.561  11.553  2.2204  1.6749 -0.4378
 2962TIP3    H230302   3.670   3.603  11.410 -1.0960  0.1266 -0.2569
 2963TIP3   OH230303   0.196   1.192  13.814 -0.8845 -0.5836 -0.3361
 2963TIP3    H130304   0.188   1.130  13.741  0.0293 -0.4252 -0.5765
 2963TIP3    H230305   0.193   1.278  13.772  3.0340 -0.5001 -0.5895
 2964TIP3   OH230306   4.101   4.937   5.472 -0.4842  0.2084 -0.2150
 2964TIP3    H130307   4.121   5.007   5.410 -0.6858 -1.6684 -2.4453
 2964TIP3    H230308   4.109   4.856   5.421 -1.9210 -1.3051  1.8712
 2965TIP3   OH230309   2.797   2.172  12.102 -0.6221 -0.0068 -0.5404
 2965TIP3    H130310   2.703   2.164  12.090 -0.4424 -0.2861 -1.8852
 2965TIP3    H230311   2.829   2.082  12.106 -0.2815  0.0700 -1.3070
 2966TIP3   OH230312   0.383   1.283   5.438  0.3184  0.3236  0.5630
 2966TIP3    H130313   0.319   1.350   5.461 -0.1455 -0.2399  0.9530
 2966TIP3    H230314   0.330   1.205   5.420  0.9066 -0.2025  1.0818
 2967TIP3   OH230315   6.528   2.269   4.822  0.0157 -0.0643 -0.0599
 2967TIP3    H130316   6.574   2.327   4.761  1.5185 -1.1431  0.0204
 2967TIP3    H230317   6.591   2.255   4.893 -1.0288 -0.3223  0.8122
 2968TIP3   OH230318   5.786   2.274  13.401 -0.7708  0.0633  0.1561
 2968TIP3    H130319   5.790   2.318  13.486 -0.0939  0.1432  0.0833
 2968TIP3    H230320   5.816   2.339  13.339  0.2582 -0.4980  0.0520
 2969TIP3   OH230321   3.500   4.946   1.564 -0.3165  0.2826 -0.1756
 2969TIP3    H130322   3.520   5.038   1.550 -0.8685  0.4733  0.2927
 2969TIP3    H230323   3.432   4.926   1.499 -0.9315  0.4695  0.4105
 2970TIP3   OH230324   5.945   3.249  14.556 -0.0265  0.2729 -0.5844
 2970TIP3    H130325   5.858   3.274  14.587  0.0748  1.0886 -0.9555
 2970TIP3    H230326   6.001   3.259  14.633 -0.5203 -1.6938  0.0557
 2971TIP3   OH230327   1.294   2.743   0.931  0.1985 -0.4563  0.2370
 2971TIP3    H130328   1.274   2.659   0.890  0.4111 -1.0471  1.3281
 2971TIP3    H230329   1.333   2.720   1.016 -3.0526  0.7313  2.1544
 2972TIP3   OH230330   3.029   3.049  12.563  0.1411  0.0655  0.2662
 2972TIP3    H130331   3.090   3.021  12.631 -0.9098  1.0952  1.6984
 2972TIP3    H230332   2.958   2.985  12.567  0.5390 -0.4349 -0.5562
 2973TIP3   OH230333   6.048   6.028  14.473 -0.0563 -0.0329  0.1151
 2973TIP3    H130334   6.005   6.090  14.413  0.8865  0.3791 -0.1389
 2973TIP3    H230335   6.001   6.039  14.556 -0.2625  0.6129 -0.0804
 2974TIP3   OH230336   3.265   0.965  15.406 -0.3719  0.4439  0.4693
 2974TIP3    H130337   3.183   0.978  15.452 -0.7867  2.2177 -0.7429
 2974TIP3    H230338   3.332   0.969  15.474 -1.2756 -1.2410  1.4970
 2975TIP3   OH230339   3.490   3.439  11.008 -0.0105  0.2460  0.2361
 2975TIP3    H130340   3.426   3.489  11.059  1.8218  0.2112  2.6493
 2975TIP3    H230341   3.530   3.504  10.950 -0.1652  0.8516  0.7966
 2976TIP3   OH230342   1.832   1.647   0.484  0.1793 -0.2032  0.0808
 2976TIP3    H130343   1.792   1.622   0.400 -2.5210  2.1869  0.5544
 2976TIP3    H230344   1.909   1.697   0.460 -0.5521  0.4232 -1.0102
 2977TIP3   OH230345   6.344   6.620   5.390  0.4504  0.6919 -0.0099
 2977TIP3    H130346   6.363   6.528   5.406  0.1170  0.5417 -0.4587
 2977TIP3    H230347   6.346   6.661   5.477  0.6983  0.2810  0.1750
 2978TIP3   OH230348   3.111   5.218  11.023 -0.3596 -0.3459 -0.3308
 2978TIP3    H130349   3.182   5.277  11.046 -0.4373 -0.3349 -0.1115
 2978TIP3    H230350   3.084   5.180  11.107  0.2087 -1.2805 -0.5657
 2979TIP3   OH230351   5.463   1.399   4.822 -0.4634 -0.0240 -0.2291
 2979TIP3    H130352   5.502   1.484   4.843 -0.8889  0.3347 -0.8801
 2979TIP3    H230353   5.503   1.375   4.738  1.3570 -1.5240  1.0307
 2980TIP3   OH230354   2.226   3.562  12.245 -0.1280  0.1567  0.4543
 2980TIP3    H130355   2.297   3.605  12.293 -1.4789  0.4901  2.1978
 2980TIP3    H230356   2.271   3.505  12.183  1.7101 -0.6110  2.4085
 2981TIP3   OH230357   0.170   4.212  15.546  0.5784 -0.1930 -0.3044
 2981TIP3    H130358   0.230   4.280  15.518  1.5538 -1.2201 -0.7615
 2981TIP3    H230359   0.133   4.178  15.464 -0.6152  0.4105 -0.0324
 2982TIP3   OH230360   5.175   2.402  11.147 -0.8132 -0.3178  0.0098
 2982TIP3    H130361   5.226   2.476  11.179  0.4804 -1.2449  0.1192
 2982TIP3    H230362   5.226   2.368  11.074 -0.9834 -1.6266  0.5000
 2983TIP3   OH230363   1.121   0.671  13.251 -0.0573  0.3454 -0.4827
 2983TIP3    H130364   1.169   0.626  13.182  0.2194  0.2805 -0.2494
 2983TIP3    H230365   1.110   0.760  13.219 -0.2760  0.2115 -0.7833
 2984TIP3   OH230366   5.819   0.957   2.961  0.7086  0.0236 -0.2406
 2984TIP3    H130367   5.804   0.863   2.974  0.2674  0.3078  1.4619
 2984TIP3    H230368   5.914   0.966   2.956  0.8651 -0.2949  1.6435
 2985TIP3   OH230369   6.304   0.226   6.285  0.5634 -0.3074 -0.4680
 2985TIP3    H130370   6.252   0.185   6.216 -0.3000 -0.1371  0.0780
 2985TIP3    H230371   6.307   0.319   6.261  0.7676 -0.3452 -0.5922
 2986TIP3   OH230372   0.924   1.126   4.764 -0.1746  0.6310  0.2470
 2986TIP3    H130373   0.887   1.208   4.732 -5.3034 -0.8319  1.8950
 2986TIP3    H230374   0.916   1.132   4.860  0.2177 -1.4062  0.4349
 2987TIP3   OH230375   3.864   6.570   0.542  0.3080 -0.0477 -0.4141
 2987TIP3    H130376   3.947   6.563   0.495  0.9195 -1.2933  0.8300
 2987TIP3    H230377   3.851   6.483   0.581 -2.1212 -0.2257 -1.4823
 2988TIP3   OH230378   0.178   1.618   2.868 -0.3295  0.5498 -0.3187
 2988TIP3    H130379   0.137   1.559   2.805  0.7241  1.5808 -2.0218
 2988TIP3    H230380   0.203   1.561   2.941 -0.1487 -0.9667 -1.5314
 2989TIP3   OH230381   1.990   3.767   0.510 -0.3013 -0.4423 -0.0526
 2989TIP3    H130382   1.934   3.836   0.476 -0.9582 -0.8595  0.1722
 2989TIP3    H230383   2.059   3.813   0.558 -2.0147  0.0093  2.0645
 2990TIP3   OH230384   4.856   0.346  11.872  0.2920  0.4793 -0.1289
 2990TIP3    H130385   4.941   0.365  11.910  1.3326 -3.1669 -0.5170
 2990TIP3    H230386   4.797   0.338  11.947  0.9067  0.0741  0.3107
 2991TIP3   OH230387   2.296   0.151  15.503  0.5389 -0.9824  0.5462
 2991TIP3    H130388   2.282   0.094  15.427 -1.0586  1.6598 -1.2026
 2991TIP3    H230389   2.391   0.149  15.516  0.8924 -1.2229 -1.7444
 2992TIP3   OH230390   1.849   5.120   1.214 -0.1503 -0.4290 -0.0245
 2992TIP3    H130391   1.918   5.112   1.280 -0.7698  0.9635  0.8270
 2992TIP3    H230392   1.885   5.179   1.149  0.1787 -1.2172 -0.5632
 2993TIP3   OH230393   1.015   0.462  15.877  0.0436 -0.3477  0.0531
 2993TIP3    H130394   1.045   0.471  15.786  0.6104  0.1148  0.2788
 2993TIP3    H230395   1.023   0.550  15.914  1.9654 -0.9645  1.1894
 2994TIP3   OH230396   5.976   4.535   2.204  0.3987 -0.3025 -0.7439
 2994TIP3    H130397   5.961   4.532   2.299  0.0465 -1.2020 -0.8196
 2994TIP3    H230398   6.005   4.625   2.187  2.2061 -0.6194  0.4788
 2995TIP3   OH230399   0.977   5.555   4.797  0.2550 -0.0608 -0.1218
 2995TIP3    H130400   0.977   5.532   4.890  1.9560  0.6325  0.0811
 2995TIP3    H230401   1.032   5.488   4.756 -1.1018 -0.7954 -0.7520
 2996TIP3   OH230402   5.723   1.153  11.814 -0.1155 -0.3874  0.6795
 2996TIP3    H130403   5.802   1.159  11.760  0.6169  2.7701  1.9705
 2996TIP3    H230404   5.654   1.191  11.760  0.3547  1.5935  1.4277
 2997TIP3   OH230405   4.111   1.023   1.871 -0.1294 -0.1347 -0.0313
 2997TIP3    H130406   4.106   0.932   1.900 -0.5661  0.1279  0.7328
 2997TIP3    H230407   4.098   1.074   1.951  1.4903  0.5979 -0.2144
 2998TIP3   OH230408   5.652   5.603   0.238 -0.3366  0.1130  0.3522
 2998TIP3    H130409   5.570   5.575   0.198 -1.2952  0.9490  1.6867
 2998TIP3    H230410   5.681   5.526   0.288  0.6774 -0.8095 -1.6050
 2999TIP3   OH230411   3.971   3.136   1.339 -0.1811 -0.6894 -0.1692
 2999TIP3    H130412   3.899   3.189   1.372 -0.4626 -0.6445 -0.8550
 2999TIP3    H230413   3.931   3.078   1.274  0.8949  1.4310 -2.8210
 3000TIP3   OH230414   1.121   5.561  14.117 -0.0418 -0.1905  0.2274
 3000TIP3    H130415   1.175   5.610  14.055  1.5476 -1.4433  0.5742
 3000TIP3    H230416   1.031   5.577  14.088  0.5560  1.1013 -0.9983
 3001TIP3   OH230417   2.022   5.540  13.718 -0.0074 -0.2777 -0.2686
 3001TIP3    H130418   2.003   5.565  13.628 -0.1164 -0.4450 -0.2915
 3001TIP3    H230419   2.071   5.458  13.711  0.4181 -0.0335 -0.1950
 3002TIP3   OH230420   3.522   3.501   4.173  0.1461  0.3074  0.8322
 3002TIP3    H130421   3.560   3.527   4.257 -2.1393 -0.3705  2.1310
 3002TIP3    H230422   3.541   3.575   4.114  0.5224  1.4299  2.3233
 3003TIP3   OH230423   5.709   4.915   4.694  0.1766  0.3414  0.0820
 3003TIP3    H130424   5.646   4.976   4.656  1.3023 -0.1421 -2.6630
 3003TIP3    H230425   5.764   4.969   4.750 -0.9103  1.2529  0.2904
 3004TIP3   OH230426   2.792   5.431   3.238  0.1291 -0.0951  0.5835
 3004TIP3    H130427   2.853   5.367   3.201 -1.3205 -0.8966 -0.4835
 3004TIP3    H230428   2.727   5.379   3.283  1.0985  0.8388  3.1267
 3005TIP3   OH230429   5.292   0.410  10.844  0.0763 -0.7878  0.0985
 3005TIP3    H130430   5.251   0.469  10.781  1.1060 -0.8812 -0.6585
 3005TIP3    H230431   5.381   0.443  10.853 -0.4751  0.1445  2.6383
 3006TIP3   OH230432   4.661   2.140   0.224  0.1211  0.1334  0.7048
 3006TIP3    H130433   4.573   2.112   0.200  1.0488 -2.5280  0.2245
 3006TIP3    H230434   4.655   2.158   0.318 -0.4684 -2.0709  1.1218
 3007TIP3   OH230435   5.727   2.417   5.361 -0.0272  0.0126 -0.3196
 3007TIP3    H130436   5.803   2.375   5.321 -0.8852  0.2685 -2.2923
 3007TIP3    H230437   5.761   2.461   5.438  1.6333 -0.7772 -0.5813
 3008TIP3   OH230438   2.754   4.370  13.803 -0.3085  0.0879  0.2749
 3008TIP3    H130439   2.690   4.361  13.732 -1.9055 -0.2188  1.7527
 3008TIP3    H230440   2.798   4.453  13.784 -2.1404  1.0293  0.0581
 3009TIP3   OH230441   2.414   2.279  16.718 -0.5616  0.6027 -0.0754
 3009TIP3    H130442   2.356   2.330  16.774  0.0476 -1.3862  2.4407
 3009TIP3    H230443   2.390   2.188  16.735  3.1847 -0.2720  0.9038
 3010TIP3   OH230444   2.956   6.756   0.061 -0.1273 -0.1241  1.1762
 3010TIP3    H130445   2.976   6.830   0.118  1.5992  0.9738 -0.7371
 3010TIP3    H230446   2.861   6.751   0.059 -0.2400  1.4688  2.0619
 3011TIP3   OH230447   4.289   1.311  16.632  0.2813 -0.2133  0.6194
 3011TIP3    H130448   4.321   1.221  16.638 -0.2825 -0.3488  1.6500
 3011TIP3    H230449   4.338   1.359  16.699  0.6094  0.2691  0.0457
 3012TIP3   OH230450   3.213   0.285   5.042  0.7432  0.3236 -0.2445
 3012TIP3    H130451   3.210   0.323   4.954 -1.5914  1.1661  0.1635
 3012TIP3    H230452   3.132   0.315   5.083  0.9973 -1.4941  1.6133
 3013TIP3   OH230453   5.720   1.932   0.885  0.1903  0.0020  0.2657
 3013TIP3    H130454   5.641   1.986   0.889  0.8008  0.8786  0.5734
 3013TIP3    H230455   5.771   1.959   0.961  2.5842  2.2305 -2.0491
 3014TIP3   OH230456   1.179   2.412  16.003 -0.2803  0.4349  0.4894
 3014TIP3    H130457   1.090   2.426  16.035  0.2874 -0.2033  2.4440
 3014TIP3    H230458   1.200   2.323  16.030  1.4561  1.0705  1.3175
 3015TIP3   OH230459   6.700   5.398  15.943 -0.4459  0.1016 -0.0407
 3015TIP3    H130460   6.720   5.387  15.850 -0.0401 -0.8927  0.1586
 3015TIP3    H230461   6.771   5.353  15.989 -1.4106 -0.6610  0.7290
 3016TIP3   OH230462   3.104   2.062   0.748  0.5845  0.2364 -0.3439
 3016TIP3    H130463   3.146   2.138   0.788 -2.1345  1.8749 -0.4962
 3016TIP3    H230464   3.089   2.088   0.657 -0.0633 -0.5977 -0.4841
 3017TIP3   OH230465   5.631   5.991  12.430  0.0045  0.6311 -0.1537
 3017TIP3    H130466   5.578   5.929  12.380 -0.3374  0.7611  0.0453
 3017TIP3    H230467   5.707   6.009  12.374 -1.6961  2.8803 -1.7944
 3018TIP3   OH230468   2.693   2.199  16.307  0.3886  0.3419  0.5952
 3018TIP3    H130469   2.672   2.218  16.398  0.4832  0.8556  0.5157
 3018TIP3    H230470   2.696   2.104  16.302  0.9029  0.3206  1.2432
 3019TIP3   OH230471   3.248   5.717  14.960  0.6238  0.2591 -0.1407
 3019TIP3    H130472   3.311   5.789  14.969 -0.8576  1.7386 -1.2018
 3019TIP3    H230473   3.218   5.723  14.869 -0.4640 -0.9137  0.1182
 3020TIP3   OH230474   2.655   4.442   2.762 -0.8171 -0.1780 -0.1722
 3020TIP3    H130475   2.638   4.348   2.764  0.7319 -0.4873 -1.1302
 3020TIP3    H230476   2.704   4.456   2.681 -1.7654  1.5834 -0.4804
 3021TIP3   OH230477   4.554   1.834   4.042  0.0311  0.2509 -0.0413
 3021TIP3    H130478   4.628   1.777   4.061 -0.6438 -0.7425 -0.3167
 3021TIP3    H230479   4.588   1.898   3.978  0.9666  0.5703  0.7702
 3022TIP3   OH230480   3.533   0.655  13.128 -0.0153  0.1722 -0.0323
 3022TIP3    H130481   3.506   0.612  13.209 -0.2508  0.2908 -0.0469
 3022TIP3    H230482   3.536   0.748  13.150 -2.2069  0.4318 -0.7359
 3023TIP3   OH230483   5.285   6.370  13.342 -0.2437  0.6381  0.3128
 3023TIP3    H130484   5.324   6.343  13.426  0.3919 -0.7069 -0.3978
 3023TIP3    H230485   5.285   6.290  13.289  0.1257  1.6594 -1.2595
 3024TIP3   OH230486   5.261   2.509   4.171  1.0193 -0.5751  0.6431
 3024TIP3    H130487   5.312   2.496   4.251  3.3671 -1.2328 -0.9314
 3024TIP3    H230488   5.285   2.436   4.114  0.3017  0.5337 -1.1331
 3025TIP3   OH230489   3.604   0.201  15.662 -0.0977  0.6483  0.4262
 3025TIP3    H130490   3.557   0.241  15.736 -0.8752 -1.5682  1.1783
 3025TIP3    H230491   3.684   0.166  15.701  1.8361  3.6100 -0.6968
 3026TIP3   OH230492   3.068   2.727   3.811  0.5971  0.0951 -0.1944
 3026TIP3    H130493   3.077   2.740   3.906  0.6501  0.1518 -0.2068
 3026TIP3    H230494   2.981   2.689   3.800  0.0979  1.2208 -0.2208
 3027TIP3   OH230495   3.441   5.336  12.699  0.2251 -0.0379 -0.8765
 3027TIP3    H130496   3.508   5.279  12.738 -1.1783  0.2578  2.0888
 3027TIP3    H230497   3.490   5.396  12.642  2.6428  0.9023  2.0975
 3028TIP3   OH230498   6.651   5.246  11.301 -0.4273 -0.6340 -0.3249
 3028TIP3    H130499   6.574   5.286  11.342  0.5346  0.2823  0.6094
 3028TIP3    H230500   6.637   5.258  11.207 -0.5236  1.2299 -0.0953
 3029TIP3   OH230501   5.491   4.316  10.994 -0.0074  0.1746 -0.0956
 3029TIP3    H130502   5.540   4.273  10.924 -0.5077 -0.4734 -0.0546
 3029TIP3    H230503   5.451   4.244  11.043 -0.1936  0.6551  0.4595
 3030TIP3   OH230504   5.964   6.515   0.083  0.6223  0.3256 -0.3058
 3030TIP3    H130505   5.963   6.564   0.165 -4.0453 -0.3953  0.1594
 3030TIP3    H230506   5.945   6.580   0.015  0.0029  0.1511 -0.3029
 3031TIP3   OH230507   1.941   4.640   2.193  0.0910  0.1990  0.0612
 3031TIP3    H130508   1.853   4.631   2.158 -0.6356 -1.0276  2.0947
 3031TIP3    H230509   1.995   4.583   2.138 -0.3827  0.9027 -1.1494
 3032TIP3   OH230510   2.505   6.111  13.416 -0.4375  0.1799  0.1928
 3032TIP3    H130511   2.565   6.049  13.374 -0.4674  1.3239 -1.5902
 3032TIP3    H230512   2.501   6.082  13.507 -0.9820 -2.8650 -0.7359
 3033TIP3   OH230513   5.781   2.648  17.090 -1.2065 -0.2230 -0.8046
 3033TIP3    H130514   5.731   2.571  17.118 -1.7551  0.2615 -0.4296
 3033TIP3    H230515   5.760   2.715  17.155 -0.4566  0.1391 -0.9279
 3034TIP3   OH230516   5.237   5.640  12.712 -0.2373 -0.2719  0.0349
 3034TIP3    H130517   5.177   5.636  12.786 -1.0585  0.4386 -0.5873
 3034TIP3    H230518   5.288   5.559  12.718 -3.0404 -2.1733 -0.9057
 3035TIP3   OH230519   4.562   4.315   4.338  0.8028 -0.1711  0.8267
 3035TIP3    H130520   4.658   4.314   4.337  0.8314  1.2909 -0.5758
 3035TIP3    H230521   4.539   4.311   4.430  2.1304 -3.7838  1.0704
 3036TIP3   OH230522   3.350   6.720  16.886 -0.3729  0.0031 -0.5983
 3036TIP3    H130523   3.322   6.667  16.812 -1.7745  1.3939 -1.0729
 3036TIP3    H230524   3.321   6.670  16.963  0.3135 -1.0099 -0.9750
 3037TIP3   OH230525   3.148   1.663   5.683  0.0051 -0.2176  0.5921
 3037TIP3    H130526   3.124   1.753   5.661  0.4265 -0.1041  0.5902
 3037TIP3    H230527   3.243   1.665   5.689  0.1027 -0.9250 -0.5506
 3038TIP3   OH230528   2.120   2.886   4.227 -0.1798  0.1752 -0.2759
 3038TIP3    H130529   2.140   2.797   4.255  0.6259  0.4643  0.1036
 3038TIP3    H230530   2.094   2.931   4.308 -0.4291  0.3292 -0.4388
 3039TIP3   OH230531   6.228   1.696   3.591  0.2337  0.1012 -0.5862
 3039TIP3    H130532   6.274   1.765   3.544  1.7088  0.9460  1.9740
 3039TIP3    H230533   6.185   1.741   3.664 -2.0696 -1.1428 -1.1343
 3040TIP3   OH230534   1.979   5.200   0.415 -0.1468  0.6919 -0.2283
 3040TIP3    H130535   1.918   5.150   0.361 -0.6193  2.1021 -1.0259
 3040TIP3    H230536   2.056   5.144   0.422 -1.1905 -0.7355  0.0626
 3041TIP3   OH230537   4.776   2.986  12.124 -0.5339 -0.4334 -0.7918
 3041TIP3    H130538   4.843   2.927  12.089 -0.5367 -0.6010 -0.5153
 3041TIP3    H230539   4.697   2.965  12.074 -1.0164 -1.9551  0.5496
 3042TIP3   OH230540   6.169   6.171   0.692  0.3876 -0.2387  0.0293
 3042TIP3    H130541   6.261   6.176   0.720  0.2150 -1.7921  0.9467
 3042TIP3    H230542   6.172   6.124   0.609  0.5989  1.5434 -0.9948
 3043TIP3   OH230543   3.351   6.735   3.151  0.1922 -0.6555  0.0004
 3043TIP3    H130544   3.400   6.696   3.224  0.7802  0.7302  0.3643
 3043TIP3    H230545   3.264   6.753   3.188  0.6588  0.5439  0.5289
 3044TIP3   OH230546   1.722   0.548   1.692 -0.2364  0.2329  0.0989
 3044TIP3    H130547   1.788   0.546   1.623  0.2389  0.0735  0.5527
 3044TIP3    H230548   1.688   0.459   1.695 -0.2283  0.2297  0.0943
 3045TIP3   OH230549   5.329   5.852   5.861 -0.0598 -0.2567  0.7496
 3045TIP3    H130550   5.264   5.895   5.805 -0.4583  0.1258  1.5018
 3045TIP3    H230551   5.280   5.782   5.905  0.0215  0.0607  1.3530
 3046TIP3   OH230552   5.241   3.900   3.923 -0.1788 -0.0597 -0.6246
 3046TIP3    H130553   5.330   3.933   3.930 -0.1386  0.5873 -3.3834
 3046TIP3    H230554   5.243   3.816   3.969  1.4655  0.6249  0.6015
 3047TIP3   OH230555   5.727   4.682   1.909  0.0483 -0.3870  0.3122
 3047TIP3    H130556   5.672   4.684   1.988 -0.9661  0.4280 -0.3925
 3047TIP3    H230557   5.731   4.590   1.884 -0.1516 -0.5738  0.9681
 3048TIP3   OH230558   6.674   1.190  16.125  0.1064  0.4226 -0.1784
 3048TIP3    H130559   6.711   1.190  16.213 -1.1106  1.9993  0.3701
 3048TIP3    H230560   6.725   1.256  16.077 -1.5489  2.2297  0.4341
 3049TIP3   OH230561   2.050   5.818   3.292 -0.1786  0.1441  0.1902
 3049TIP3    H130562   2.062   5.723   3.283 -0.4498  0.1452 -0.1911
 3049TIP3    H230563   2.026   5.830   3.384  1.7834  0.0451  0.7415
 3050TIP3   OH230564   4.031   6.032  15.943  0.2598 -0.5801 -0.2157
 3050TIP3    H130565   4.111   6.009  15.991 -0.2072 -1.1655  0.2831
 3050TIP3    H230566   4.049   6.002  15.853  1.0023  0.2263 -0.3470
 3051TIP3   OH230567   1.211   2.212  14.273 -0.0410  0.4383 -0.3358
 3051TIP3    H130568   1.262   2.165  14.340  0.0543 -0.6695 -1.1694
 3051TIP3    H230569   1.276   2.259  14.222 -0.1068  1.2232  0.3010
 3052TIP3   OH230570   5.598   0.626  15.866 -0.1685  0.3193  0.2207
 3052TIP3    H130571   5.671   0.672  15.824  0.6202 -1.6296 -0.5966
 3052TIP3    H230572   5.520   0.665  15.826  0.5006  0.5385 -0.9038
 3053TIP3   OH230573   3.996   3.900  17.020 -0.2879  0.3039  0.0835
 3053TIP3    H130574   4.031   3.815  16.993  1.4657  0.2908  2.2766
 3053TIP3    H230575   3.901   3.891  17.008  0.1315 -0.6805 -3.1440
 3054TIP3   OH230576   0.806   1.006   4.220  0.6051 -0.0121  0.7058
 3054TIP3    H130577   0.800   0.934   4.283  1.5081  0.4700  1.3574
 3054TIP3    H230578   0.767   0.971   4.140  0.1770 -0.9025  1.2975
 3055TIP3   OH230579   5.447   5.788   2.086 -0.7044  0.2967 -0.1824
 3055TIP3    H130580   5.388   5.861   2.106  0.7740  1.0581  1.4651
 3055TIP3    H230581   5.530   5.829   2.065  0.5447 -0.9279  2.1291
 3056TIP3   OH230582   2.317   2.371   5.516 -0.7535 -0.6696 -0.4139
 3056TIP3    H130583   2.240   2.326   5.481 -1.3033  1.0588 -1.5295
 3056TIP3    H230584   2.315   2.457   5.473  0.1441  0.4771  1.7704
 3057TIP3   OH230585   5.727   0.811  16.336  0.3928 -0.1153 -0.1295
 3057TIP3    H130586   5.642   0.794  16.295  0.4769  0.5562 -0.6018
 3057TIP3    H230587   5.769   0.873  16.277  1.4757 -0.9385 -0.2290
 3058TIP3   OH230588   4.842   6.401  17.020 -0.3299  0.2574  0.7020
 3058TIP3    H130589   4.905   6.372  17.086  0.5253  0.7553  0.1231
 3058TIP3    H230590   4.887   6.472  16.973 -0.3411 -1.0269 -1.3322
 3059TIP3   OH230591   3.101   4.369   6.305  0.2490  0.1597  0.3895
 3059TIP3    H130592   3.039   4.421   6.357  1.0403  0.4297  1.0656
 3059TIP3    H230593   3.078   4.278   6.326  0.0786  0.2580  0.6326
 3060TIP3   OH230594   5.095   6.145  17.223 -0.8791  0.4047 -0.1661
 3060TIP3    H130595   5.100   6.079  17.154 -1.3540  0.3410 -0.1393
 3060TIP3    H230596   5.173   6.131  17.276 -0.5495  0.4144 -0.6549
 3061TIP3   OH230597   5.258   3.012  15.095 -0.0677  0.1954  0.1992
 3061TIP3    H130598   5.179   3.065  15.091 -0.2644 -0.1450 -0.3465
 3061TIP3    H230599   5.233   2.927  15.060  0.2103 -0.3136  1.1970
 3062TIP3   OH230600   6.528   6.334   1.003  0.3945  0.0636  0.1541
 3062TIP3    H130601   6.554   6.421   0.974 -1.1796  0.6547  0.4569
 3062TIP3    H230602   6.564   6.274   0.937  3.3803  0.7265  1.1041
 3063TIP3   OH230603   0.962   1.763   1.650 -1.1011  0.3659 -0.3141
 3063TIP3    H130604   1.017   1.804   1.717 -0.3806 -0.7261 -0.2158
 3063TIP3    H230605   1.006   1.783   1.568 -0.1086 -1.1268 -0.1810
 3064TIP3   OH230606   2.183   4.672   0.376 -0.4104  0.0548 -0.7330
 3064TIP3    H130607   2.091   4.647   0.381 -0.7983  1.7191  1.4412
 3064TIP3    H230608   2.230   4.604   0.424 -1.1247  1.7522  2.5507
 3065TIP3   OH230609   4.912   0.468  15.501  0.0278 -0.1011 -0.0479
 3065TIP3    H130610   4.974   0.535  15.473 -1.2521  1.3911  0.5887
 3065TIP3    H230611   4.845   0.468  15.433 -0.1046 -0.5783  0.0801
 3066TIP3   OH230612   0.229   3.707  13.616  0.7584  0.0313  0.4061
 3066TIP3    H130613   0.321   3.690  13.599  0.5906  0.8832 -1.5036
 3066TIP3    H230614   0.228   3.750  13.702  2.0186 -0.9102  0.9122
 3067TIP3   OH230615   4.202   4.269   2.674 -0.1841 -0.1087 -0.0277
 3067TIP3    H130616   4.160   4.239   2.754 -1.1001  0.1091 -0.4126
 3067TIP3    H230617   4.294   4.276   2.696 -0.0202 -2.7082  0.2082
 3068TIP3   OH230618   5.884   2.678  16.630  0.1635  0.0882 -0.5082
 3068TIP3    H130619   5.887   2.614  16.701  2.9660  1.6728  0.8603
 3068TIP3    H230620   5.842   2.754  16.669  0.8314  0.6233 -0.8380
 3069TIP3   OH230621   1.179   2.313   4.705  0.8266 -0.4526 -0.5534
 3069TIP3    H130622   1.236   2.366   4.760  0.4524 -1.5006  0.8640
 3069TIP3    H230623   1.115   2.374   4.669  1.0392  0.2202  0.2149
 3070TIP3   OH230624   6.767   1.716   1.673 -0.7405 -0.2290  0.1659
 3070TIP3    H130625   6.843   1.665   1.646 -0.0715  0.2251  1.1374
 3070TIP3    H230626   6.742   1.766   1.595 -0.0120 -0.3491 -0.1466
 3071TIP3   OH230627   1.766   6.078  13.039 -0.1987  0.2565 -0.3352
 3071TIP3    H130628   1.822   6.030  12.979 -0.1945  1.1694 -1.0837
 3071TIP3    H230629   1.823   6.105  13.110 -0.7030 -2.8973  1.3269
 3072TIP3   OH230630   1.488   0.778  14.330 -0.1796 -0.6878  0.0403
 3072TIP3    H130631   1.582   0.795  14.334 -0.2612 -0.4331  0.8177
 3072TIP3    H230632   1.481   0.683  14.324  0.0815 -0.7878  1.3150
 3073TIP3   OH230633   2.931   2.991  15.736  0.6363  0.5055 -0.4986
 3073TIP3    H130634   2.958   3.054  15.802  2.0445 -0.1768 -0.3974
 3073TIP3    H230635   2.836   2.995  15.736  0.6019  0.1003  1.9645
 3074TIP3   OH230636   2.369   1.015  13.593  0.2708 -0.4900  0.1116
 3074TIP3    H130637   2.320   0.938  13.622 -1.1124  0.5467  0.5647
 3074TIP3    H230638   2.306   1.065  13.542  1.3444  0.0440 -0.7060
 3075TIP3   OH230639   6.288   2.226  16.046  0.8772  0.5070 -0.6677
 3075TIP3    H130640   6.273   2.158  16.112  3.0562  0.0311 -0.6149
 3075TIP3    H230641   6.221   2.210  15.980 -0.2866 -0.0567  0.6182
 3076TIP3   OH230642   0.001   4.786  12.672 -0.3327 -0.4236  0.2064
 3076TIP3    H130643   0.073   4.819  12.619 -0.0068  1.0951  1.5583
 3076TIP3    H230644  -0.022   4.702  12.632  0.2114  0.4702 -2.0299
 3077TIP3   OH230645   6.731   3.034   5.183 -0.3626 -0.1143 -0.2770
 3077TIP3    H130646   6.786   2.983   5.124  1.0331 -0.9300  1.6684
 3077TIP3    H230647   6.683   2.968   5.234  0.1947  0.5088  1.0988
 3078TIP3   OH230648   3.832   0.146   1.035 -0.1212 -0.3613  0.2893
 3078TIP3    H130649   3.911   0.151   1.087  0.6192 -0.8625 -0.7680
 3078TIP3    H230650   3.838   0.219   0.973 -1.9598  1.4733  2.1855
 3079TIP3   OH230651   2.170   5.872  11.922 -0.0658 -0.4064 -0.1664
 3079TIP3    H130652   2.159   5.867  11.827 -1.8983  0.1195 -0.0078
 3079TIP3    H230653   2.256   5.911  11.934  1.5057 -3.2392 -1.5745
 3080TIP3   OH230654   3.884   6.748  15.511 -0.0884 -0.8213 -0.3976
 3080TIP3    H130655   3.801   6.727  15.467  0.6616  0.0774 -2.2965
 3080TIP3    H230656   3.949   6.747  15.441  1.3751 -0.6479  0.9306
 3081TIP3   OH230657   2.260   2.072  13.031  0.0707  0.3136 -0.1836
 3081TIP3    H130658   2.178   2.040  13.069 -0.4913  1.3179 -0.5416
 3081TIP3    H230659   2.327   2.049  13.096 -0.3866 -1.1744 -0.2404
 3082TIP3   OH230660   6.660   2.533  14.002  0.2042 -0.0988 -0.1177
 3082TIP3    H130661   6.588   2.501  13.947 -0.6004  0.1029  0.7964
 3082TIP3    H230662   6.659   2.628  13.991  1.6930 -0.2473 -1.7349
 3083TIP3   OH230663   0.533   5.020  10.864 -0.4744  0.3965  0.0845
 3083TIP3    H130664   0.495   5.044  10.780 -0.9124 -0.6575 -0.0243
 3083TIP3    H230665   0.476   4.951  10.898  1.0545 -0.8729  0.1350
 3084TIP3   OH230666   0.644   4.149   4.706 -0.5105  0.1590 -0.1545
 3084TIP3    H130667   0.650   4.078   4.642 -0.5997 -0.9125  1.0062
 3084TIP3    H230668   0.734   4.177   4.720 -0.3490 -0.5616  0.2909
 3085TIP3   OH230669   1.952   0.352  17.139  0.5053  0.4573  0.5678
 3085TIP3    H130670   1.950   0.275  17.082  0.9329  1.8425 -1.3764
 3085TIP3    H230671   1.896   0.329  17.212  0.0123 -1.4180 -0.3655
 3086TIP3   OH230672   6.542   4.295  13.116  0.1308  0.3559 -0.7780
 3086TIP3    H130673   6.463   4.341  13.087  1.7632  2.9194 -1.2839
 3086TIP3    H230674   6.610   4.324  13.056  2.1843  0.6850  1.6279
 3087TIP3   OH230675   4.304   6.772   6.127  0.3874  0.0136  0.7336
 3087TIP3    H130676   4.369   6.761   6.058  0.1133 -0.1027  0.4910
 3087TIP3    H230677   4.224   6.797   6.080  0.1199 -0.3727  0.9862
 3088TIP3   OH230678   4.546   5.457   4.809 -0.4208 -0.3136 -0.3413
 3088TIP3    H130679   4.574   5.472   4.899  0.8084  1.5880 -1.0001
 3088TIP3    H230680   4.489   5.380   4.813 -1.7634  0.7856  2.2919
 3089TIP3   OH230681   6.567   3.201  16.906  0.2186  0.0153 -0.1305
 3089TIP3    H130682   6.652   3.193  16.862 -0.6178  2.3578 -2.2980
 3089TIP3    H230683   6.504   3.165  16.844 -0.7353  1.3782  0.0092
 3090TIP3   OH230684   5.412   4.009  13.167 -0.5898 -0.4194  0.0767
 3090TIP3    H130685   5.386   4.094  13.203  0.1329  0.2905 -1.0440
 3090TIP3    H230686   5.507   4.008  13.172 -0.4657 -0.2785 -1.8182
 3091TIP3   OH230687   3.144   6.388   4.435 -0.2806 -0.6168  0.0242
 3091TIP3    H130688   3.143   6.340   4.352 -1.0796 -3.0476  1.3632
 3091TIP3    H230689   3.237   6.405   4.451 -0.0448 -0.9867 -0.8906
 3092TIP3   OH230690   3.674   1.144   2.602 -0.0961  0.3849 -0.4806
 3092TIP3    H130691   3.640   1.141   2.691 -0.4930 -0.5188 -0.6525
 3092TIP3    H230692   3.769   1.145   2.612 -0.1060 -1.2727 -0.0690
 3093TIP3   OH230693   0.573   0.066  12.965 -0.6429  0.4054  0.3629
 3093TIP3    H130694   0.570   0.153  12.926 -1.7018  0.6896  1.0625
 3093TIP3    H230695   0.494   0.023  12.933  0.9084 -1.0485 -1.6565
 3094TIP3   OH230696   5.410   4.655   1.448 -0.3057 -0.0673  0.0441
 3094TIP3    H130697   5.386   4.581   1.393 -2.2720  0.0061  0.7551
 3094TIP3    H230698   5.451   4.616   1.525  0.3540 -0.3011 -0.4239
 3095TIP3   OH230699   5.314   0.672  15.599 -0.1752 -0.0189 -0.3694
 3095TIP3    H130700   5.255   0.705  15.531  0.5127  1.5601 -0.2154
 3095TIP3    H230701   5.333   0.748  15.654  0.3655 -0.9738  0.7983
 3096TIP3   OH230702   1.227   4.213  11.131 -0.2918  0.0556  0.0677
 3096TIP3    H130703   1.184   4.265  11.064  1.7490  0.2838 -1.1068
 3096TIP3    H230704   1.259   4.278  11.194 -0.7182 -0.0346  0.3784
 3097TIP3   OH230705   2.159   5.160   0.641 -0.0613  0.3513 -0.0724
 3097TIP3    H130706   2.210   5.228   0.683  0.6772 -0.2385 -0.0126
 3097TIP3    H230707   2.216   5.125   0.572  0.1531 -1.2535  0.8880
 3098TIP3   OH230708   6.589   2.319  12.647  0.0544 -0.3939 -0.3229
 3098TIP3    H130709   6.568   2.253  12.713 -1.8818  0.6619  0.1463
 3098TIP3    H230710   6.633   2.388  12.696 -0.3183 -0.1394 -0.3489
 3099TIP3   OH230711   2.263   2.798   3.143 -0.4391  0.1965  0.2300
 3099TIP3    H130712   2.234   2.820   3.232 -0.3699 -1.2728  0.6421
 3099TIP3    H230713   2.228   2.867   3.088 -0.9340  0.8432  1.3398
 3100TIP3   OH230714   6.251   4.892   0.255 -0.2231  0.0321  0.8659
 3100TIP3    H130715   6.225   4.971   0.301  0.0599 -0.7426  2.3661
 3100TIP3    H230716   6.302   4.842   0.318  1.0077 -0.6028 -0.5852
 3101TIP3   OH230717   1.251   1.921  15.053  0.4138  0.1412 -0.4146
 3101TIP3    H130718   1.269   1.910  15.147  0.1962  0.4299 -0.3381
 3101TIP3    H230719   1.192   1.849  15.032 -1.6505  1.6123  0.2602
 3102TIP3   OH230720   4.523   3.717  14.073  0.3587 -0.4333 -0.5358
 3102TIP3    H130721   4.611   3.692  14.101 -0.4077 -1.8023  0.7194
 3102TIP3    H230722   4.488   3.638  14.032 -1.6905 -1.1577  2.4658
 3103TIP3   OH230723   1.098   0.594   1.729  0.2653  0.0635 -0.1629
 3103TIP3    H130724   1.063   0.665   1.676 -0.5415  1.0001  1.5711
 3103TIP3    H230725   1.021   0.545   1.758  0.7918 -1.3480 -1.0798
 3104TIP3   OH230726   4.346   4.831   3.414 -0.0308  0.0657 -0.1211
 3104TIP3    H130727   4.362   4.912   3.366  1.2975  0.5726  1.1513
 3104TIP3    H230728   4.433   4.792   3.425 -0.4387 -0.5673  0.9183
 3105TIP3   OH230729   2.153   3.486   2.867 -0.3725 -0.1428 -0.3870
 3105TIP3    H130730   2.182   3.471   2.777 -2.1427 -1.6573 -0.7317
 3105TIP3    H230731   2.142   3.398   2.904  1.5018  0.4567  1.7279
 3106TIP3   OH230732   5.103   1.530  16.521 -0.5044  0.3857 -0.3025
 3106TIP3    H130733   5.059   1.448  16.496  1.0735  0.0431 -2.0712
 3106TIP3    H230734   5.062   1.597  16.465  0.8580  0.1386 -1.6338
 3107TIP3   OH230735   3.546   0.792  15.131 -0.5961  0.0685  0.5858
 3107TIP3    H130736   3.501   0.721  15.176 -0.5516 -0.6164 -0.4374
 3107TIP3    H230737   3.622   0.812  15.186 -0.2214 -1.1586  0.5233
 3108TIP3   OH230738   1.409   3.170   1.353  0.1002  0.6918 -0.2036
 3108TIP3    H130739   1.404   3.172   1.257 -2.9638 -2.1958 -0.1744
 3108TIP3    H230740   1.456   3.090   1.373  2.1042  2.0613  0.7400
 3109TIP3   OH230741   2.395   5.065  16.370 -0.4532  0.0444 -0.0752
 3109TIP3    H130742   2.374   5.158  16.375  0.7917  0.2724  1.1408
 3109TIP3    H230743   2.402   5.047  16.276  0.1515  1.3775 -0.2909
 3110TIP3   OH230744   2.536   4.775   1.414  0.2910 -0.2488  0.1764
 3110TIP3    H130745   2.523   4.757   1.507 -0.3888 -0.7681 -0.0188
 3110TIP3    H230746   2.614   4.724   1.390 -0.0499 -0.8024  0.2548
 3111TIP3   OH230747   3.273   5.575   2.546  0.1033  0.2178 -0.3367
 3111TIP3    H130748   3.335   5.648   2.557 -1.3678  1.4563 -0.1281
 3111TIP3    H230749   3.250   5.577   2.453  0.9766 -0.7624 -0.5899
 3112TIP3   OH230750   6.152   4.025   5.447  0.1967 -0.2353  0.0725
 3112TIP3    H130751   6.219   4.054   5.385  0.2424  1.0536  0.7210
 3112TIP3    H230752   6.200   4.001   5.526 -0.1183  1.0628  0.6756
 3113TIP3   OH230753   0.235   4.384  11.208 -0.0041  0.2792  0.1825
 3113TIP3    H130754   0.248   4.403  11.301  0.2066 -0.8549  0.3926
 3113TIP3    H230755   0.168   4.315  11.206  1.6176 -1.3352 -0.3713
 3114TIP3   OH230756   1.002   5.483   4.287 -0.3971 -0.0975 -0.2081
 3114TIP3    H130757   0.976   5.563   4.242  0.9790  0.6311  0.2661
 3114TIP3    H230758   1.061   5.439   4.226  0.0033 -0.0196  0.1173
 3115TIP3   OH230759   1.275   2.004   3.984  0.4139  0.0788 -0.1873
 3115TIP3    H130760   1.223   1.923   3.982 -1.8561  1.4601  1.0125
 3115TIP3    H230761   1.236   2.059   3.917  0.5016  1.0216  0.5266
 3116TIP3   OH230762   1.132   4.831   1.983  0.3413  0.3537 -0.3902
 3116TIP3    H130763   1.192   4.757   1.991  0.6131  0.6291  0.1530
 3116TIP3    H230764   1.051   4.800   2.025  0.2487  0.1495 -0.7121
 3117TIP3   OH230765   2.869   3.876   3.276  0.0584 -0.2226  0.1966
 3117TIP3    H130766   2.807   3.803   3.273 -2.0279  1.3380  3.1728
 3117TIP3    H230767   2.835   3.939   3.213 -0.3482 -0.1051  0.5408
 3118TIP3   OH230768   4.560   1.005  14.373  0.2693 -0.2535 -0.2871
 3118TIP3    H130769   4.617   0.982  14.446  1.4501 -0.1508 -1.1524
 3118TIP3    H230770   4.508   0.926  14.357  1.5869 -1.0427 -0.7732
 3119TIP3   OH230771   5.830   6.315  15.928  0.2757 -0.3750  0.1026
 3119TIP3    H130772   5.925   6.322  15.932  0.2163  0.8848 -0.3664
 3119TIP3    H230773   5.808   6.246  15.990  1.4529 -0.2932  0.6158
 3120TIP3   OH230774   1.726   1.109  16.267 -0.1523 -0.6818 -0.7154
 3120TIP3    H130775   1.759   1.020  16.254  0.8132 -0.7737  1.9474
 3120TIP3    H230776   1.802   1.160  16.293 -0.9377  0.6473 -0.9394
 3121TIP3   OH230777   6.396   6.777   2.601  1.0328 -0.6613 -0.2624
 3121TIP3    H130778   6.329   6.718   2.567  1.2192 -1.1870  0.2602
 3121TIP3    H230779   6.460   6.785   2.530 -0.2879  0.9921 -1.3068
 3122TIP3   OH230780   0.739   2.184  16.682 -0.4224 -0.2165 -0.0573
 3122TIP3    H130781   0.753   2.167  16.589  1.3852  0.9921 -0.0417
 3122TIP3    H230782   0.712   2.276  16.687  1.7420  0.4152  0.7529
 3123TIP3   OH230783   3.627   4.940   5.909  0.1007 -0.5239  0.1139
 3123TIP3    H130784   3.713   4.925   5.870  0.3957 -1.2097  1.0465
 3123TIP3    H230785   3.591   5.012   5.857  2.2386  1.4601  1.2805
 3124TIP3   OH230786   2.091   3.166   5.655 -0.0143  0.1484 -0.1268
 3124TIP3    H130787   2.159   3.124   5.708 -1.4732 -1.8176  0.2381
 3124TIP3    H230788   2.130   3.175   5.568  1.1218  0.1307  0.3698
 3125TIP3   OH230789   6.352   4.756  10.896 -0.8303  0.5530  0.0289
 3125TIP3    H130790   6.327   4.728  10.808 -1.6294  0.3759  0.3104
 3125TIP3    H230791   6.424   4.818  10.881 -1.8018  1.5017 -0.8337
 3126TIP3   OH230792   3.398   6.348   2.945 -0.0751  0.5703  0.1246
 3126TIP3    H130793   3.358   6.305   2.869  0.1907 -1.1538  0.9344
 3126TIP3    H230794   3.475   6.294   2.965  1.3397  2.5012  0.0309
 3127TIP3   OH230795   2.447   2.565   3.173  0.1411  0.0108 -0.2779
 3127TIP3    H130796   2.365   2.612   3.158  0.4687  0.1540 -1.6948
 3127TIP3    H230797   2.454   2.506   3.098  0.8258 -0.7377  0.3699
 3128TIP3   OH230798   0.480   6.410  12.253 -0.4916  0.1563  0.4752
 3128TIP3    H130799   0.504   6.318  12.262  1.9056  0.6729 -0.2578
 3128TIP3    H230800   0.389   6.414  12.283 -1.1888 -2.7318 -1.0595
 3129TIP3   OH230801   5.428   2.050  15.428  0.0933  0.4330 -0.3802
 3129TIP3    H130802   5.495   1.992  15.463 -0.1094 -0.7398 -1.8764
 3129TIP3    H230803   5.397   2.100  15.503  0.5472 -1.1244  0.8455
 3130TIP3   OH230804   5.882   6.608  15.863 -0.4070 -0.1881  0.1981
 3130TIP3    H130805   5.862   6.516  15.845 -1.4252 -0.0084  0.3460
 3130TIP3    H230806   5.838   6.655  15.792  0.0819  0.1819  0.1429
 3131TIP3   OH230807   1.733   1.254  14.075  0.1286 -0.8866 -0.2425
 3131TIP3    H130808   1.698   1.192  14.012 -1.8521  0.6557 -0.7079
 3131TIP3    H230809   1.733   1.338  14.029 -0.0322  0.0050  1.3522
 3132TIP3   OH230810   6.220   5.491   3.465  0.0518 -0.0413 -0.2236
 3132TIP3    H130811   6.257   5.460   3.547  0.5027 -1.0777 -0.8102
 3132TIP3    H230812   6.294   5.530   3.419 -0.0419 -0.1247 -0.4470
 3133TIP3   OH230813   0.781   3.466  16.178  0.0731 -0.2360  0.4251
 3133TIP3    H130814   0.751   3.540  16.124 -0.3113 -0.6650  0.0476
 3133TIP3    H230815   0.738   3.479  16.263 -1.3526 -0.9563 -0.1745
 3134TIP3   OH230816   2.942   1.369   3.992 -0.4570 -0.3084  0.2366
 3134TIP3    H130817   2.991   1.289   3.972 -0.5033 -0.5074  0.9121
 3134TIP3    H230818   2.928   1.366   4.086 -1.1388  0.1080  0.1533
 3135TIP3   OH230819   5.057   5.677   1.746  0.3424 -0.4613 -0.2064
 3135TIP3    H130820   5.131   5.735   1.730 -0.0947  0.1002 -0.2282
 3135TIP3    H230821   5.089   5.589   1.726  0.7917 -0.1391 -0.8889
 3136TIP3   OH230822   2.725   3.287  15.674 -0.2924 -0.1606  0.1885
 3136TIP3    H130823   2.659   3.299  15.742  0.8137 -2.7817  1.8250
 3136TIP3    H230824   2.707   3.200  15.638  0.3109  0.4204 -1.5881
 3137TIP3   OH230825   2.948   2.535   4.366  0.3755 -0.0379 -0.1218
 3137TIP3    H130826   2.900   2.554   4.285  0.7239 -1.7223 -0.7271
 3137TIP3    H230827   2.880   2.504   4.427  0.3664 -0.3402 -0.2867
 3138TIP3   OH230828   1.202   2.314   3.155 -0.2009  0.3514 -0.1013
 3138TIP3    H130829   1.224   2.222   3.149 -1.3859  0.0180  0.4732
 3138TIP3    H230830   1.118   2.322   3.110  0.8428  1.5181 -1.9160
 3139TIP3   OH230831   5.462   5.324  14.939 -0.0004  0.1099 -0.2499
 3139TIP3    H130832   5.387   5.322  14.880 -0.6571  0.7214  0.5634
 3139TIP3    H230833   5.535   5.351  14.884 -0.6396  0.8483 -0.7426
 3140TIP3   OH230834   3.758   0.638   3.799  0.6910  0.5032  0.3923
 3140TIP3    H130835   3.679   0.584   3.793  0.3975  0.9376  0.4103
 3140TIP3    H230836   3.790   0.622   3.888 -1.3018  3.0245  1.6224
 3141TIP3   OH230837   3.364   1.364  12.770  0.0253  0.1540  0.0634
 3141TIP3    H130838   3.373   1.270  12.758 -1.0894  0.1358 -0.7952
 3141TIP3    H230839   3.276   1.375  12.807 -0.3445  0.9194 -0.9965
 3142TIP3   OH230840   5.237   0.551   6.608 -0.0521 -0.3370 -0.3094
 3142TIP3    H130841   5.302   0.620   6.594 -0.2505 -0.4563 -1.9052
 3142TIP3    H230842   5.154   0.598   6.621  0.3986 -0.1636  2.2569
 3143TIP3   OH230843   6.217   6.195   2.166 -0.1976 -0.1204 -0.1800
 3143TIP3    H130844   6.142   6.172   2.112 -1.8119  2.2357  0.9867
 3143TIP3    H230845   6.198   6.156   2.252 -0.3112  0.8382  0.2377
 3144TIP3   OH230846   0.850   3.820  16.881  0.4897  0.2419 -0.2818
 3144TIP3    H130847   0.851   3.851  16.971 -1.8952  0.6387 -0.3440
 3144TIP3    H230848   0.866   3.899  16.829  2.1145 -0.0325 -0.1962
 3145TIP3   OH230849   5.682   0.593   2.057 -0.1462 -0.0996 -0.2697
 3145TIP3    H130850   5.691   0.584   1.962 -0.1438  1.9201 -0.4876
 3145TIP3    H230851   5.632   0.517   2.084  0.9573 -1.3644 -1.7200
 3146TIP3   OH230852   5.998   4.644  16.676 -0.5700  0.6425 -0.6717
 3146TIP3    H130853   5.973   4.588  16.602 -0.4674  0.2740 -0.4268
 3146TIP3    H230854   5.914   4.669  16.716 -0.5617 -0.4579  0.0472
 3147TIP3   OH230855   4.591   2.310  13.438  0.5919  0.2375  0.2068
 3147TIP3    H130856   4.618   2.363  13.513 -0.4466 -1.3331  1.7370
 3147TIP3    H230857   4.597   2.220  13.470 -0.9120 -0.3968 -1.2733
 3148TIP3   OH230858   2.907   0.262   1.883  0.2576 -0.0728 -0.1059
 3148TIP3    H130859   2.903   0.349   1.921  0.2352 -0.0223 -0.2254
 3148TIP3    H230860   2.820   0.247   1.846 -0.2328 -0.7585  1.2686
 3149TIP3   OH230861   0.008   4.322  12.074  0.2738 -0.7001  0.1168
 3149TIP3    H130862   0.092   4.366  12.086  0.8128 -1.8827  0.7412
 3149TIP3    H230863  -0.014   4.338  11.983  1.9526 -1.7102 -0.4864
 3150TIP3   OH230864   1.835   5.376   2.910 -0.0697  0.2774  0.2870
 3150TIP3    H130865   1.754   5.385   2.860 -0.5620  0.7865  1.1684
 3150TIP3    H230866   1.813   5.406   2.998  1.5104  1.9396  0.1389
 3151TIP3   OH230867   4.000   0.800   1.541  0.4347  0.0572  0.0543
 3151TIP3    H130868   3.948   0.861   1.594  0.0740  0.2656 -0.5283
 3151TIP3    H230869   4.038   0.855   1.472 -1.3692 -0.6544 -1.5557
 3152TIP3   OH230870   3.644   3.684   0.488  0.7290 -0.4960  0.1038
 3152TIP3    H130871   3.674   3.598   0.459 -0.2270 -0.5635 -0.7263
 3152TIP3    H230872   3.667   3.743   0.416 -1.0802 -0.5476 -0.5360
 3153TIP3   OH230873   2.793   2.937  11.292  0.8938 -0.0429  0.3462
 3153TIP3    H130874   2.885   2.946  11.318  1.1360 -0.1537 -0.4635
 3153TIP3    H230875   2.792   2.961  11.200  0.3288 -1.2914  0.0141
 3154TIP3   OH230876   1.553   4.014  17.238 -0.0120  0.1016 -0.3412
 3154TIP3    H130877   1.528   3.929  17.276  0.4750 -0.9638 -2.3338
 3154TIP3    H230878   1.649   4.012  17.237  0.0057  0.7619 -0.2255
 3155TIP3   OH230879   3.609   6.766  10.775  0.4266 -0.3097  0.2008
 3155TIP3    H130880   3.682   6.826  10.791 -0.3235  0.3273  1.2602
 3155TIP3    H230881   3.536   6.823  10.750  0.1431 -0.9034 -0.3340
 3156TIP3   OH230882   1.100   1.553  14.060  0.7996  0.3761 -0.0314
 3156TIP3    H130883   1.117   1.500  13.981  1.2093 -0.4264  0.5883
 3156TIP3    H230884   1.079   1.640  14.026 -0.7580 -0.3942 -1.0939
 3157TIP3   OH230885   4.668   1.467  16.592 -0.3528  0.7280  0.3352
 3157TIP3    H130886   4.659   1.379  16.556 -0.4291 -0.1653  2.4470
 3157TIP3    H230887   4.584   1.509  16.573 -0.5968  0.0872 -0.0072
 3158TIP3   OH230888   1.678   1.107   0.374  0.1264 -0.0457 -0.5672
 3158TIP3    H130889   1.735   1.132   0.301 -0.9890 -0.3159 -1.5447
 3158TIP3    H230890   1.628   1.033   0.341 -0.3058 -0.2586  0.5319
 3159TIP3   OH230891   5.762   4.976  16.841  0.3466  0.3219  0.0714
 3159TIP3    H130892   5.762   4.942  16.930  0.9394  1.6686  0.6034
 3159TIP3    H230893   5.752   5.071  16.852 -1.2947  0.3259 -1.3702
 3160TIP3   OH230894   6.322   1.892   2.904 -0.3414 -0.5658 -0.1025
 3160TIP3    H130895   6.290   1.921   2.819 -0.6010 -0.0236  0.1793
 3160TIP3    H230896   6.266   1.817   2.926 -1.3787  0.3331  0.3560
 3161TIP3   OH230897   5.028   1.566   2.663 -0.1597 -0.4433  0.1199
 3161TIP3    H130898   4.937   1.537   2.654  0.3098 -1.6251 -0.9143
 3161TIP3    H230899   5.047   1.611   2.581  0.1544 -0.0700  0.3929
 3162TIP3   OH230900   6.445   6.418  12.188  0.2756  0.0823 -0.3116
 3162TIP3    H130901   6.394   6.339  12.204  0.0046 -0.0210 -1.6084
 3162TIP3    H230902   6.380   6.486  12.172  0.4877  0.7702  1.6093
 3163TIP3   OH230903   3.245   5.848   4.261 -0.1085  0.6289  0.4765
 3163TIP3    H130904   3.279   5.810   4.342 -1.0252 -0.5932  0.3025
 3163TIP3    H230905   3.160   5.807   4.249  0.7669 -0.5414 -2.0480
 3164TIP3   OH230906   6.607   6.707  15.422  0.0503  0.3400  0.3749
 3164TIP3    H130907   6.684   6.729  15.369  0.1910 -3.9191 -1.3808
 3164TIP3    H230908   6.546   6.779  15.409  0.0997 -0.5103 -5.6403
 3165TIP3   OH230909   4.060   2.995   4.795 -0.4347  0.0565  0.0175
 3165TIP3    H130910   4.134   2.955   4.841  0.3774 -0.5097 -1.7267
 3165TIP3    H230911   4.097   3.071   4.751 -1.0326  0.1618 -0.3171
 3166TIP3   OH230912   5.419   3.149   2.672  0.0283  0.4935  0.6973
 3166TIP3    H130913   5.495   3.165   2.617  1.3508 -1.4092  1.9226
 3166TIP3    H230914   5.414   3.225   2.730  0.8976  0.6958  0.4985
 3167TIP3   OH230915   0.199   5.806   6.444  0.0084  0.2864  0.0722
 3167TIP3    H130916   0.109   5.819   6.412 -0.6016 -2.6121  0.4283
 3167TIP3    H230917   0.193   5.820   6.538 -0.0636  0.1698  0.0861
 3168TIP3   OH230918   1.043   0.132   0.535  0.1293 -0.3258  0.6189
 3168TIP3    H130919   1.016   0.053   0.582  1.0756 -0.2271  1.3523
 3168TIP3    H230920   1.071   0.192   0.604 -0.8628  0.7713  0.0920
 3169TIP3   OH230921   6.689   1.503  11.465 -0.0879 -0.3750 -0.3663
 3169TIP3    H130922   6.618   1.441  11.450 -0.4814  0.4475 -2.0455
 3169TIP3    H230923   6.764   1.466  11.419 -0.5291  0.7416 -2.0336
 3170TIP3   OH230924   4.107   0.593   5.680  0.5976  0.2921 -0.8310
 3170TIP3    H130925   4.078   0.509   5.714 -0.2523  0.7780 -0.3250
 3170TIP3    H230926   4.110   0.581   5.585  1.3211 -0.5597 -0.7058
 3171TIP3   OH230927   1.267   1.212   3.401  0.2670  0.3530  0.3968
 3171TIP3    H130928   1.306   1.137   3.445  0.9984  1.1952  1.2056
 3171TIP3    H230929   1.336   1.246   3.344 -0.0199  0.4892  0.1272
 3172TIP3   OH230930   3.923   2.432  15.416  0.1752  0.0886  0.3191
 3172TIP3    H130931   3.856   2.466  15.475  0.6204  4.0488 -1.3291
 3172TIP3    H230932   3.887   2.350  15.383 -2.6956  0.8566  1.4720
 3173TIP3   OH230933   1.121   0.069   0.971  0.5813 -0.4693 -0.2162
 3173TIP3    H130934   1.215   0.066   0.984  0.6838 -0.3890 -0.9251
 3173TIP3    H230935   1.089   0.130   1.037  1.0937 -0.0730 -0.3386
 3174TIP3   OH230936   6.656   1.050   6.445  0.3081 -0.3772 -0.3185
 3174TIP3    H130937   6.693   0.964   6.461  0.2061 -0.0813  1.6543
 3174TIP3    H230938   6.726   1.111   6.465 -0.1009  0.0444 -0.1485
 3175TIP3   OH230939   5.534   1.031   4.935 -0.3463  0.2535  0.2413
 3175TIP3    H130940   5.497   1.034   5.023 -0.6745  1.4151  0.0652
 3175TIP3    H230941   5.491   0.955   4.895  0.1691 -0.5782  1.2269
 3176TIP3   OH230942   4.906   3.266   1.213 -0.0877 -0.1285 -0.4606
 3176TIP3    H130943   4.920   3.249   1.120 -3.1762  0.6108 -1.1171
 3176TIP3    H230944   4.914   3.361   1.222  1.6406 -0.3333  0.3175
 3177TIP3   OH230945   6.669   6.690  12.671  0.6050  0.3955 -0.4431
 3177TIP3    H130946   6.578   6.662  12.660  0.2094  2.1084 -1.7271
 3177TIP3    H230947   6.663   6.780  12.703  1.8621  0.0767  0.7465
 3178TIP3   OH230948   0.384   1.031  16.259 -0.0210  0.3062 -0.1685
 3178TIP3    H130949   0.472   0.992  16.264  1.5494  3.7043  0.4751
 3178TIP3    H230950   0.343   1.007  16.342  1.4121  1.0693  0.7883
 3179TIP3   OH230951   5.427   0.791   4.581  0.3211 -0.3173 -0.1996
 3179TIP3    H130952   5.420   0.749   4.666  0.9522 -0.6557 -0.3144
 3179TIP3    H230953   5.480   0.731   4.528 -1.8311 -1.1584 -1.5023
 3180TIP3   OH230954   1.716   0.308   5.518  0.0491 -0.0513 -0.2889
 3180TIP3    H130955   1.716   0.219   5.481  0.6368 -0.4131  0.5822
 3180TIP3    H230956   1.670   0.299   5.601  1.8913  0.0578  0.7594
 3181TIP3   OH230957   4.734   3.438  14.414  0.0319  0.4406  0.3333
 3181TIP3    H130958   4.747   3.343  14.403 -2.2673 -0.0228  1.2693
 3181TIP3    H230959   4.781   3.459  14.495  1.0904  0.2418 -0.2141
 3182TIP3   OH230960   5.216   6.520  11.263  0.2837  0.3625 -0.1537
 3182TIP3    H130961   5.214   6.527  11.168 -2.0403 -1.4645 -0.2984
 3182TIP3    H230962   5.200   6.427  11.281  0.4929  0.7116  2.0064
 3183TIP3   OH230963   0.927   3.383   0.159  0.8847 -0.6676  0.3206
 3183TIP3    H130964   0.979   3.364   0.237  0.9825  0.6861  0.5877
 3183TIP3    H230965   0.837   3.393   0.191  1.0953  0.9987  0.4348
 3184TIP3   OH230966   1.109   6.372  12.904 -0.1704  0.5297  0.2511
 3184TIP3    H130967   1.054   6.389  12.980 -0.7256  1.3728 -0.3404
 3184TIP3    H230968   1.097   6.448  12.847  0.7680  0.2216 -0.3712
 3185TIP3   OH230969   2.940   4.577   3.102 -0.4151 -1.0734 -0.0566
 3185TIP3    H130970   2.904   4.607   3.019  0.2173 -0.8719 -0.2585
 3185TIP3    H230971   2.966   4.656   3.148 -0.8559 -1.1804  0.3744
 3186TIP3   OH230972   5.092   1.481   6.495  0.1309 -0.1822 -0.5295
 3186TIP3    H130973   5.172   1.441   6.462 -0.4110 -1.0387 -0.8358
 3186TIP3    H230974   5.100   1.474   6.590  0.4936 -0.1223 -0.5557
 3187TIP3   OH230975   2.843   4.020   0.494  0.2165  0.2061 -0.2381
 3187TIP3    H130976   2.850   3.940   0.544 -0.5233  0.3113  0.0409
 3187TIP3    H230977   2.809   3.992   0.409 -2.5305  0.5194  0.7209
 3188TIP3   OH230978   0.589   0.309   6.133 -0.2437 -0.1773 -0.2649
 3188TIP3    H130979   0.579   0.392   6.180 -1.6432 -1.3269  1.5243
 3188TIP3    H230980   0.575   0.332   6.041 -0.9711  1.5068  0.2401
 3189TIP3   OH230981   2.516   4.787   0.712 -0.8342  0.0633 -0.0276
 3189TIP3    H130982   2.507   4.738   0.794 -0.5065  0.6709  0.3730
 3189TIP3    H230983   2.572   4.731   0.657  0.4734  0.4898  0.8379
 3190TIP3   OH230984   4.419   0.252   2.705 -0.0507 -0.3712 -0.3967
 3190TIP3    H130985   4.510   0.273   2.682 -0.7612 -1.7343 -4.9049
 3190TIP3    H230986   4.368   0.323   2.666 -1.0094  0.1698  1.7775
 3191TIP3   OH230987   2.503   5.679   3.317  0.1734 -0.1004 -0.8936
 3191TIP3    H130988   2.535   5.641   3.235 -1.3115 -1.1400 -1.0125
 3191TIP3    H230989   2.414   5.709   3.296  0.0887  0.3773  0.1163
 3192TIP3   OH230990   1.330   4.946   0.226 -0.4480 -0.2471 -0.7732
 3192TIP3    H130991   1.421   4.955   0.198  1.0215 -2.1401  3.0974
 3192TIP3    H230992   1.303   4.861   0.191 -0.5088  0.0095 -1.3535
 3193TIP3   OH230993   0.511   0.945  13.688  0.5014  0.1258 -0.1415
 3193TIP3    H130994   0.537   1.011  13.752 -3.2420  0.4699  1.1162
 3193TIP3    H230995   0.530   0.984  13.603 -0.7475  2.4118  0.6075
 3194TIP3   OH230996   5.266   2.684   1.644  0.0904 -0.2169  1.0225
 3194TIP3    H130997   5.327   2.616   1.615 -0.6570 -0.4901  0.0439
 3194TIP3    H230998   5.314   2.733   1.711  1.6859  0.1236 -0.3513
 3195TIP3   OH230999   0.307   1.631   4.392 -0.2474  0.1841 -0.7307
 3195TIP3    H131000   0.402   1.630   4.383  0.1321  2.8191  1.9962
 3195TIP3    H231001   0.276   1.688   4.322  0.0011 -1.9254 -2.5984
 3196TIP3   OH231002   2.117   0.071  12.031  0.3192 -0.6796  0.1736
 3196TIP3    H131003   2.135   0.043  12.121  1.9816 -0.3479 -0.0481
 3196TIP3    H231004   2.046   0.014  12.002  1.2573 -2.2914  0.9446
 3197TIP3   OH231005   0.617   4.379   5.949  0.1035  0.1274 -0.3061
 3197TIP3    H131006   0.627   4.364   6.043 -0.1473 -1.1371 -0.4692
 3197TIP3    H231007   0.557   4.453   5.942 -0.7483 -0.4676  0.5360
 3198TIP3   OH231008   3.073   1.172   1.223 -0.3679 -0.1900  0.2130
 3198TIP3    H131009   3.025   1.145   1.145 -1.9842  0.0075  1.1163
 3198TIP3    H231010   3.028   1.251   1.252 -0.4867 -0.9006  1.9970
 3199TIP3   OH231011   5.157   6.305  14.287  0.0428 -0.2297  0.0045
 3199TIP3    H131012   5.209   6.259  14.353 -0.6879 -1.0905 -0.0104
 3199TIP3    H231013   5.095   6.358  14.338  0.4428  0.2284  0.0159
 3200TIP3   OH231014   1.723   6.257   4.802  0.7972 -0.3936 -0.0556
 3200TIP3    H131015   1.630   6.268   4.783  0.1136 -0.4696  2.9095
 3200TIP3    H231016   1.751   6.184   4.747 -1.0708 -0.8091 -0.4835
 3201TIP3   OH231017   0.730   6.313   3.331 -0.1504  0.7844  0.5228
 3201TIP3    H131018   0.686   6.326   3.247 -1.7957  1.4930  1.4846
 3201TIP3    H231019   0.753   6.401   3.360  0.1048  0.5716  0.9800
 3202TIP3   OH231020   2.740   5.377   1.914 -0.2460  0.0184  0.4920
 3202TIP3    H131021   2.825   5.344   1.943 -0.0952 -0.8364 -0.9156
 3202TIP3    H231022   2.684   5.369   1.991  0.0353 -2.6314  0.4444
 3203TIP3   OH231023   6.486   6.003  12.363 -0.1739  0.0677  0.4474
 3203TIP3    H131024   6.430   6.061  12.313  0.7745 -1.0581 -1.9949
 3203TIP3    H231025   6.517   6.057  12.436 -2.0647  1.5486  0.1951
 3204TIP3   OH231026   5.818   3.088  15.913 -0.7168  0.6231 -0.2777
 3204TIP3    H131027   5.821   2.997  15.883 -0.9438  1.0155 -1.5285
 3204TIP3    H231028   5.761   3.087  15.990 -0.1425 -0.4022  0.1453
 3205TIP3   OH231029   4.433   0.906   0.473  0.4471 -0.1526 -0.6443
 3205TIP3    H131030   4.455   0.992   0.437  0.8297  0.0537  0.0562
 3205TIP3    H231031   4.454   0.844   0.403  1.9054  0.1730 -0.5269
 3206TIP3   OH231032   2.459   2.871   0.997 -0.1231  0.5416 -0.0570
 3206TIP3    H131033   2.515   2.810   0.949  0.5247 -0.5064  1.9881
 3206TIP3    H231034   2.460   2.951   0.944  0.0679 -0.7584 -2.0905
 3207TIP3   OH231035   2.825   6.417  11.651 -0.3106  0.0789 -0.0963
 3207TIP3    H131036   2.816   6.504  11.612  0.3027 -0.0068 -0.4335
 3207TIP3    H231037   2.918   6.410  11.672 -0.6475  0.1599  1.4706
 3208TIP3   OH231038   5.845   2.311   2.513 -0.0068  0.8171 -0.1131
 3208TIP3    H131039   5.939   2.322   2.501  0.9212 -0.9715  4.6355
 3208TIP3    H231040   5.825   2.227   2.472  0.0800  1.9613 -2.5899
 3209TIP3   OH231041   4.579   4.288   1.981  0.2281  0.6357  0.4692
 3209TIP3    H131042   4.613   4.295   2.070  3.1356 -0.8048 -0.4665
 3209TIP3    H231043   4.602   4.199   1.954  0.2533  1.3857 -2.0683
 3210TIP3   OH231044   3.141   4.536   4.769  0.0114 -0.4981 -0.1165
 3210TIP3    H131045   3.072   4.480   4.804  0.6191 -1.9267 -1.1364
 3210TIP3    H231046   3.218   4.478   4.765  1.1284  0.9119  0.4903
 3211TIP3   OH231047   3.261   4.922   1.787 -0.6876 -0.4635 -0.1960
 3211TIP3    H131048   3.226   5.002   1.750  1.1433  0.2332 -0.4768
 3211TIP3    H231049   3.244   4.855   1.721 -1.9922 -0.2667 -0.0709
 3212TIP3   OH231050   6.459   3.390  11.921 -0.1489 -0.3797  0.2198
 3212TIP3    H131051   6.512   3.311  11.927  0.2735 -0.3210 -2.0246
 3212TIP3    H231052   6.520   3.462  11.938  0.1759 -0.4032 -0.7603
 3213TIP3   OH231053   5.293   4.719  15.415  0.3608  0.3033 -0.5057
 3213TIP3    H131054   5.340   4.720  15.498  0.1327 -0.4666 -0.3676
 3213TIP3    H231055   5.360   4.697  15.350 -0.2287 -3.0375 -0.0388
 3214TIP3   OH231056   1.404   0.505   2.466 -0.1387 -0.3002  0.1892
 3214TIP3    H131057   1.457   0.542   2.537  0.7280 -0.4058 -0.3926
 3214TIP3    H231058   1.468   0.470   2.404 -0.9158 -3.1467  0.9051
 3215TIP3   OH231059   2.554   1.025   3.118  0.3376 -0.0342  0.0197
 3215TIP3    H131060   2.608   0.967   3.171  0.5238 -1.5556 -1.7703
 3215TIP3    H231061   2.618   1.076   3.067  0.1419  0.0196 -0.1748
 3216TIP3   OH231062   5.091   3.926  14.447 -0.3844  0.6293 -0.0384
 3216TIP3    H131063   5.092   4.021  14.452 -0.1659  0.8051 -2.9683
 3216TIP3    H231064   5.010   3.900  14.491 -2.4311  2.4220 -2.6185
 3217TIP3   OH231065   0.710   6.278   4.895 -0.3324 -0.1884  0.3069
 3217TIP3    H131066   0.741   6.217   4.962  0.1578  0.4336  0.6568
 3217TIP3    H231067   0.617   6.256   4.883 -0.2630 -0.7213  0.7318
 3218TIP3   OH231068   2.209   4.193  11.733 -0.0381  0.2380  0.0420
 3218TIP3    H131069   2.262   4.151  11.800  0.8998 -0.1248 -0.9085
 3218TIP3    H231070   2.120   4.161  11.748  0.4883 -1.3146 -0.0460
 3219TIP3   OH231071   4.240   4.866  11.851 -0.0737  0.2078  0.1151
 3219TIP3    H131072   4.278   4.785  11.886 -2.1405 -0.8533 -0.0301
 3219TIP3    H231073   4.285   4.880  11.768  2.5721  0.9775  1.6416
 3220TIP3   OH231074   2.110   4.853   6.050 -0.1837  0.0576 -0.2624
 3220TIP3    H131075   2.028   4.838   6.097  0.7123  1.2074  1.7888
 3220TIP3    H231076   2.155   4.769   6.053 -0.2752  0.0324  0.7252
 3221TIP3   OH231077   6.311   0.116   1.395  0.0218  0.5293 -0.6228
 3221TIP3    H131078   6.326   0.041   1.338 -1.0590 -0.3702  0.2617
 3221TIP3    H231079   6.372   0.104   1.468 -1.5500 -0.5873  0.5438
 3222TIP3   OH231080   2.096   6.056  11.528  0.9843  0.1599  0.0748
 3222TIP3    H131081   2.082   6.090  11.617  1.4138  0.2446  0.1133
 3222TIP3    H231082   2.122   6.133  11.478 -1.1501  0.4712 -0.5744
 3223TIP3   OH231083   2.108   6.547  14.891 -0.0433 -0.3419 -0.4966
 3223TIP3    H131084   2.175   6.587  14.835 -0.7926  0.5046 -0.8115
 3223TIP3    H231085   2.157   6.502  14.959  0.8530  0.9562 -0.2560
 3224TIP3   OH231086   6.495   2.082  11.520 -0.8940 -0.7682 -0.0659
 3224TIP3    H131087   6.547   2.116  11.447 -0.8668  1.1584  0.8135
 3224TIP3    H231088   6.455   2.159  11.558  1.4386 -1.3320  3.7820
 3225TIP3   OH231089   6.428   0.469  13.005 -0.0022 -0.0648 -0.3392
 3225TIP3    H131090   6.344   0.422  13.000  0.2977 -0.5053 -1.4128
 3225TIP3    H231091   6.494   0.399  13.004  0.4142  0.3326 -0.8378
 3226TIP3   OH231092   2.557   6.293  10.725  0.3623  0.3690 -0.1974
 3226TIP3    H131093   2.603   6.211  10.743 -0.9474 -0.3681 -0.1411
 3226TIP3    H231094   2.541   6.291  10.631 -0.6732  0.0157 -0.0217
 3227TIP3   OH231095   1.629   4.181   2.785  0.2216 -0.4481 -0.8546
 3227TIP3    H131096   1.655   4.259   2.735  1.1821  0.3453  0.8424
 3227TIP3    H231097   1.585   4.217   2.863 -0.1549 -1.6349 -0.5146
 3228TIP3   OH231098   1.906   2.106  11.073 -0.0647  0.2759 -0.4742
 3228TIP3    H131099   1.904   2.022  11.027 -0.8557 -1.4525  2.6218
 3228TIP3    H231100   1.997   2.115  11.102 -0.3495 -0.3446  0.6386
 3229TIP3   OH231101   1.412   3.490  14.133  0.0184  0.2311  0.2144
 3229TIP3    H131102   1.430   3.581  14.155 -1.3397  0.2293  1.4650
 3229TIP3    H231103   1.355   3.459  14.205  1.8474 -2.0948  0.7229
 3230TIP3   OH231104   2.103   0.713   0.529  0.1210  0.6027  0.1927
 3230TIP3    H131105   2.012   0.738   0.512  0.4093  0.8612 -1.0368
 3230TIP3    H231106   2.143   0.792   0.565  0.2570  0.9772 -0.7754
 3231TIP3   OH231107   4.864   3.788   4.296 -0.3392 -0.4845 -0.0972
 3231TIP3    H131108   4.817   3.705   4.292 -0.1087 -0.5632 -2.0689
 3231TIP3    H231109   4.953   3.765   4.321 -0.8780 -0.5451  1.7885
 3232TIP3   OH231110   6.101   0.504  11.863 -0.0072  0.6872 -0.3944
 3232TIP3    H131111   6.115   0.518  11.769  0.6448 -1.2592 -0.6168
 3232TIP3    H231112   6.189   0.508  11.901 -0.3300  2.1078  0.2495
 3233TIP3   OH231113   4.486   0.436   1.506 -0.4551 -0.6865 -0.1503
 3233TIP3    H131114   4.404   0.455   1.550 -0.6767  0.0734 -0.8736
 3233TIP3    H231115   4.540   0.394   1.572  0.0001  2.3507  1.4587
 3234TIP3   OH231116   5.727   3.276  14.715 -0.0796  0.4953  0.4661
 3234TIP3    H131117   5.733   3.233  14.800 -0.8920  0.8173  0.6972
 3234TIP3    H231118   5.633   3.281  14.697  0.0996  0.1733 -0.5849
 3235TIP3   OH231119   3.126   4.096   0.935 -0.3112 -0.7508  0.4060
 3235TIP3    H131120   3.132   4.178   0.886  0.9568 -1.4847 -0.7167
 3235TIP3    H231121   3.130   4.122   1.027 -1.8097  0.5812  0.1175
 3236TIP3   OH231122   2.253   0.539  14.373  0.6286 -0.6012 -0.4801
 3236TIP3    H131123   2.183   0.588  14.332  0.9551  2.6808  2.6223
 3236TIP3    H231124   2.214   0.501  14.451  1.4870 -1.6096 -0.5208
 3237TIP3   OH231125   4.237   3.916   3.201  0.8193  0.2266 -0.1123
 3237TIP3    H131126   4.249   3.850   3.269  0.6743 -0.2584 -0.5598
 3237TIP3    H231127   4.271   3.875   3.121  0.7029  0.6806 -0.3972
 3238TIP3   OH231128   5.015   1.878   0.388  0.1612  0.1779  0.2335
 3238TIP3    H131129   4.997   1.961   0.344  3.4469 -0.0558 -1.7447
 3238TIP3    H231130   4.974   1.811   0.333 -0.4857  0.2939  0.5677
 3239TIP3   OH231131   3.590   6.260  12.192  0.2041 -0.1176 -0.2399
 3239TIP3    H131132   3.505   6.302  12.182  0.6354  1.3353  1.9135
 3239TIP3    H231133   3.653   6.332  12.186  1.2636 -1.1016 -1.2357
 3240TIP3   OH231134   4.510   5.071   0.579  0.3094  0.1925 -0.4120
 3240TIP3    H131135   4.536   5.012   0.649  1.9433 -0.5307 -1.5973
 3240TIP3    H231136   4.419   5.093   0.599  0.0648 -1.7325  0.7294
 3241TIP3   OH231137   2.885   1.216  11.632  0.4100  0.3684 -0.0863
 3241TIP3    H131138   2.838   1.133  11.640  1.0464  0.0516  0.4392
 3241TIP3    H231139   2.816   1.283  11.629 -0.0750 -0.0852  0.7581
 3242TIP3   OH231140   0.686   1.895  14.339 -0.0592  0.1425 -0.6899
 3242TIP3    H131141   0.622   1.898  14.410  0.7310 -2.2803  0.1909
 3242TIP3    H231142   0.656   1.960  14.276 -1.6273  1.2629  1.1554
 3243TIP3   OH231143   0.279   5.278  16.630  0.1999 -0.5912  0.4370
 3243TIP3    H131144   0.261   5.350  16.569 -1.8987 -1.5882 -0.1733
 3243TIP3    H231145   0.337   5.317  16.696  0.9017  1.0385 -1.1025
 3244TIP3   OH231146   3.488   2.048   3.190 -0.1729 -0.6308  0.2627
 3244TIP3    H131147   3.474   1.970   3.244 -1.2676  0.1959  1.2006
 3244TIP3    H231148   3.411   2.051   3.134  0.7382 -1.2222 -1.0332
 3245TIP3   OH231149   0.351   3.647   1.566  0.4966  0.5550 -0.5882
 3245TIP3    H131150   0.311   3.597   1.495  2.0929 -0.4247 -0.8141
 3245TIP3    H231151   0.279   3.697   1.603 -1.2625 -2.3565  0.0435
 3246TIP3   OH231152   3.578   2.499  15.895  0.1339 -0.0874 -0.2427
 3246TIP3    H131153   3.534   2.504  15.980 -1.6138 -0.8096 -1.0709
 3246TIP3    H231154   3.507   2.483  15.832  1.5105 -0.5748 -1.7172
 3247TIP3   OH231155   3.750   5.487  15.229  0.5083 -0.7619 -0.6886
 3247TIP3    H131156   3.743   5.472  15.135 -1.0944 -0.0286 -0.7176
 3247TIP3    H231157   3.841   5.512  15.244  0.1442  1.8245 -2.4784
 3248TIP3   OH231158   0.027   2.630   1.217 -0.1764 -0.2198  0.3428
 3248TIP3    H131159   0.021   2.541   1.250 -0.2770 -0.1948  0.3900
 3248TIP3    H231160  -0.047   2.639   1.157 -0.7721  0.1778  1.1423
 3249TIP3   OH231161   4.338   6.315  16.866 -0.7706  0.1487  0.0185
 3249TIP3    H131162   4.432   6.333  16.859 -0.6893 -1.1020 -2.6046
 3249TIP3    H231163   4.296   6.399  16.852 -0.0787  0.3871 -0.6762
 3250TIP3   OH231164   4.967   3.879   2.582 -0.3217  0.5493 -0.0338
 3250TIP3    H131165   4.951   3.913   2.670 -5.3234 -0.7009 -0.3318
 3250TIP3    H231166   4.949   3.954   2.524  0.2953  0.6223 -0.1336
 3251TIP3   OH231167   2.616   0.863  12.178  0.6880 -1.1957  0.1664
 3251TIP3    H131168   2.660   0.890  12.258  0.1700 -0.0581  0.0782
 3251TIP3    H231169   2.608   0.767  12.186  2.3559 -1.3140  0.5693
 3252TIP3   OH231170   0.027   0.322   0.848  0.7598 -0.2165 -0.1697
 3252TIP3    H131171   0.061   0.281   0.928 -1.6187 -1.8284  0.0403
 3252TIP3    H231172   0.028   0.252   0.783  0.7681  0.5546 -1.0063
 3253TIP3   OH231173   2.148   1.368  11.078 -0.1350 -0.6094 -0.0735
 3253TIP3    H131174   2.187   1.281  11.072 -0.7789 -0.8342 -1.0420
 3253TIP3    H231175   2.054   1.353  11.067 -0.2813  0.1627  0.1247
 3254TIP3   OH231176   6.012   1.413   0.121 -0.4469  0.3377  0.6191
 3254TIP3    H131177   5.940   1.384   0.065 -0.2725 -1.0595  1.1044
 3254TIP3    H231178   5.970   1.466   0.188 -0.9819 -0.1780  0.6953
 3255TIP3   OH231179   6.729   2.548   5.213 -0.0230 -0.0631  0.4375
 3255TIP3    H131180   6.650   2.603   5.214 -0.4453 -0.6361 -0.3372
 3255TIP3    H231181   6.718   2.490   5.288 -1.1417 -1.2207 -0.5841
 3256TIP3   OH231182   2.595   0.678   4.091  0.0552 -0.5037  0.1035
 3256TIP3    H131183   2.538   0.604   4.075 -0.8619  0.3608 -0.7108
 3256TIP3    H231184   2.641   0.692   4.008  0.7597 -0.6151  0.4706
 3257TIP3   OH231185   0.579   6.703  15.654  0.0464  0.4153 -0.1926
 3257TIP3    H131186   0.646   6.655  15.605  0.7059  0.5838  0.5471
 3257TIP3    H231187   0.497   6.681  15.610  0.3531 -1.3102  0.0815
 3258TIP3   OH231188   3.664   2.897  16.768  0.0101 -0.2021 -0.0116
 3258TIP3    H131189   3.588   2.847  16.798 -0.1398  0.8380  1.3958
 3258TIP3    H231190   3.739   2.842  16.791 -0.2140 -0.4088  0.2341
 3259TIP3   OH231191   0.666   0.275  14.580 -0.1073 -0.1383  0.5249
 3259TIP3    H131192   0.643   0.211  14.513 -1.5534 -0.4011  1.2490
 3259TIP3    H231193   0.586   0.324  14.596  0.8992  1.6621  0.2201
 3260TIP3   OH231194   1.475   0.136  12.187  0.2385 -0.6627 -0.1002
 3260TIP3    H131195   1.491   0.045  12.210  3.4163  0.5241  2.7315
 3260TIP3    H231196   1.391   0.157  12.229 -0.1318 -2.0487 -0.1337
 3261TIP3   OH231197   3.706   1.521  10.902 -0.3611  0.1446 -0.2491
 3261TIP3    H131198   3.726   1.592  10.842  0.6690  0.1948  0.1409
 3261TIP3    H231199   3.730   1.441  10.854  1.7277  0.2555  0.5689
 3262TIP3   OH231200   5.237   4.414  14.809 -0.0473 -0.4354  0.5077
 3262TIP3    H131201   5.285   4.494  14.830 -2.0750  0.4586  1.8525
 3262TIP3    H231202   5.161   4.416  14.866 -1.3384 -2.1761 -1.1071
 3263TIP3   OH231203   4.220   0.149  14.647  0.2410 -0.3567  0.4247
 3263TIP3    H131204   4.289   0.169  14.711 -0.5270 -0.3801  1.2723
 3263TIP3    H231205   4.196   0.058  14.664  0.1965 -0.4377 -0.0584
 3264TIP3   OH231206   3.799   1.888   0.465  0.3905 -0.0671  0.2379
 3264TIP3    H131207   3.762   1.822   0.406 -1.4380  0.6148  0.6091
 3264TIP3    H231208   3.756   1.969   0.440  2.1896  0.8974  0.1871
 3265TIP3   OH231209   6.554   4.668   3.788  0.2831 -0.3706  0.3367
 3265TIP3    H131210   6.649   4.664   3.798  0.3117  0.6464  0.5882
 3265TIP3    H231211   6.541   4.717   3.706 -0.0179  0.5394  0.9179
 3266TIP3   OH231212   2.015   4.441  16.025  0.4507 -0.4049 -0.3189
 3266TIP3    H131213   1.997   4.487  16.107  2.3341  0.2756 -0.2529
 3266TIP3    H231214   1.957   4.482  15.961 -1.4687 -1.3500  0.7856
 3267TIP3   OH231215   2.570   5.337  16.124  0.3508  0.1752  0.2640
 3267TIP3    H131216   2.665   5.346  16.133  0.4108 -0.3154  0.1861
 3267TIP3    H231217   2.559   5.252  16.081 -0.0870  0.5950 -0.4695
 3268TIP3   OH231218   0.875   0.964   6.643  0.0844  0.2736 -0.4043
 3268TIP3    H131219   0.939   1.030   6.619 -0.8024  1.9008  1.5281
 3268TIP3    H231220   0.885   0.954   6.738 -0.7601 -1.3222 -0.4550
 3269TIP3   OH231221   6.327   0.224   4.170  0.1097  0.2985 -0.1263
 3269TIP3    H131222   6.403   0.244   4.116 -0.5842 -1.4141 -1.8423
 3269TIP3    H231223   6.320   0.128   4.167 -1.8514  0.3934  0.3320
 3270TIP3   OH231224   6.172   3.199  13.174 -0.0683 -0.3942 -0.2930
 3270TIP3    H131225   6.135   3.135  13.114 -0.5683 -0.6592  0.2986
 3270TIP3    H231226   6.156   3.163  13.261 -0.8354  0.7977  0.0676
 3271TIP3   OH231227   5.204   0.989  16.341 -0.3607  0.4887  1.2492
 3271TIP3    H131228   5.173   1.012  16.429 -1.8576  0.2952  0.7761
 3271TIP3    H231229   5.168   1.056  16.284 -1.5727 -0.8210  0.4216
 3272TIP3   OH231230   0.654   4.455   0.134 -0.1674  0.1029 -0.0942
 3272TIP3    H131231   0.604   4.537   0.129  0.3247  0.4815  0.9448
 3272TIP3    H231232   0.605   4.394   0.079 -1.8086  0.4536  0.9246
 3273TIP3   OH231233   2.046   0.494  12.400 -0.0933  0.2532  0.0489
 3273TIP3    H131234   2.025   0.401  12.410  1.7394 -0.1741 -0.0579
 3273TIP3    H231235   2.000   0.536  12.473 -2.6049 -0.4450 -1.0562
 3274TIP3   OH231236   0.849   2.425   5.918 -0.2397  0.4103 -0.1131
 3274TIP3    H131237   0.802   2.342   5.932 -2.9139  1.5720 -1.6843
 3274TIP3    H231238   0.831   2.476   5.997  1.3168 -0.4434  0.8081
 3275TIP3   OH231239   4.480   5.663  11.951  0.0387  0.3686  0.3102
 3275TIP3    H131240   4.454   5.725  12.020 -0.5356  0.7227 -0.2217
 3275TIP3    H231241   4.564   5.697  11.919 -0.3631  0.9846 -0.1090
 3276TIP3   OH231242   6.748   0.586   3.172  0.4849  0.0021  0.1428
 3276TIP3    H131243   6.751   0.600   3.077  0.7388  0.6364  0.2416
 3276TIP3    H231244   6.745   0.675   3.209  1.5175 -0.2134  0.7608
 3277TIP3   OH231245   2.614   2.676   0.560 -0.3249 -0.3783  0.4202
 3277TIP3    H131246   2.641   2.670   0.468 -0.7112 -0.5734  0.3145
 3277TIP3    H231247   2.539   2.617   0.566 -0.5991  0.0019  0.7488
 3278TIP3   OH231248   6.757   2.336  12.419 -0.1632 -0.4514 -0.2710
 3278TIP3    H131249   6.688   2.333  12.485 -0.2585 -1.8246 -0.4256
 3278TIP3    H231250   6.822   2.273  12.451  0.9748  0.7546 -0.1753
 3279TIP3   OH231251   1.040   1.565   5.000 -0.1907  0.1101 -0.0891
 3279TIP3    H131252   0.994   1.513   5.066 -1.8775  0.0203 -1.2994
 3279TIP3    H231253   1.126   1.582   5.038 -0.9075 -0.4932  1.8469
 3280TIP3   OH231254   5.753   4.520  11.561 -0.0679 -0.2052  0.1082
 3280TIP3    H131255   5.831   4.478  11.598  1.0314 -0.0250 -1.8955
 3280TIP3    H231256   5.680   4.489  11.614  1.3673 -0.4173  2.0066
 3281TIP3   OH231257   0.534   6.585  12.447 -0.2269  0.3880  0.1140
 3281TIP3    H131258   0.499   6.541  12.369 -0.3616  0.8939 -0.1169
 3281TIP3    H231259   0.490   6.542  12.520 -1.4715  1.1163 -0.1830
 3282TIP3   OH231260   6.250   2.564   4.807  0.1453  0.5354  0.4223
 3282TIP3    H131261   6.310   2.581   4.734 -0.1402 -0.5258 -0.0598
 3282TIP3    H231262   6.162   2.578   4.770  0.0540  1.3940  0.9418
 3283TIP3   OH231263   1.886   0.996  15.169 -0.2848  0.5005 -0.6884
 3283TIP3    H131264   1.860   1.085  15.191  0.4110  1.0460 -2.0235
 3283TIP3    H231265   1.951   1.006  15.099  1.5764 -0.9269  0.7866
 3284TIP3   OH231266   1.796   0.534   2.175 -0.0873 -0.0888 -0.4198
 3284TIP3    H131267   1.752   0.614   2.147 -0.7469  0.0610  1.0297
 3284TIP3    H231268   1.767   0.520   2.265 -0.2271 -2.1121 -0.7460
 3285TIP3   OH231269   4.052   6.517   3.009  0.2207 -0.5322 -0.3598
 3285TIP3    H131270   4.022   6.606   2.990  0.9704  0.0567  1.1200
 3285TIP3    H231271   4.131   6.506   2.957  0.8694  0.1615  0.4637
 3286TIP3   OH231272   1.317   5.616  14.306  0.2259  0.2488  0.3104
 3286TIP3    H131273   1.240   5.576  14.266  0.6328 -1.0363  0.7952
 3286TIP3    H231274   1.347   5.552  14.371 -1.6582  3.1689  4.2029
 3287TIP3   OH231275   2.491   3.510   4.895  0.0546  0.3888 -0.2364
 3287TIP3    H131276   2.521   3.542   4.809 -1.4714  2.5185 -0.0224
 3287TIP3    H231277   2.468   3.419   4.880 -0.8416  0.9101 -2.2746
 3288TIP3   OH231278   5.784   2.704   3.038 -0.6364 -0.1098 -0.0445
 3288TIP3    H131279   5.867   2.665   3.066 -0.2242  1.2509  0.6683
 3288TIP3    H231280   5.769   2.669   2.950 -0.7260 -2.5470  0.9098
 3289TIP3   OH231281   2.384   1.226  16.345  0.4250  0.1073  0.6995
 3289TIP3    H131282   2.451   1.280  16.388  0.7482 -0.6146  1.1122
 3289TIP3    H231283   2.347   1.173  16.416  0.6325 -0.7570  0.1644
 3290TIP3   OH231284   0.856   0.625   2.652  0.1452  0.2317 -0.2562
 3290TIP3    H131285   0.849   0.543   2.700 -1.0361  1.2419  1.3448
 3290TIP3    H231286   0.769   0.638   2.614  0.1422  1.0620  0.0359
 3291TIP3   OH231287   6.035   6.634   2.084 -0.4486  0.1618 -0.2427
 3291TIP3    H131288   6.057   6.652   1.993 -1.6780 -0.0017 -0.5801
 3291TIP3    H231289   6.106   6.577   2.115  0.4811  0.9976 -0.8066
 3292TIP3   OH231290   4.666   4.276   5.066 -0.2943  0.3206 -0.6024
 3292TIP3    H131291   4.603   4.219   5.109 -1.7132  1.6362 -0.9082
 3292TIP3    H231292   4.713   4.319   5.138 -0.5880  0.2572 -0.3724
 3293TIP3   OH231293   2.443   0.788  14.100  0.2166 -0.0325  0.5707
 3293TIP3    H131294   2.482   0.812  14.017  1.2852  1.6537  1.5306
 3293TIP3    H231295   2.355   0.828  14.098 -0.3903 -1.3873 -0.3984
 3294TIP3   OH231296   6.708   4.992   1.139  0.2510  0.1127 -0.0723
 3294TIP3    H131297   6.705   5.086   1.121  0.5120 -0.0987 -1.2777
 3294TIP3    H231298   6.706   4.952   1.053  1.6954 -0.9594  0.3830
 3295TIP3   OH231299   4.059   5.970   0.455 -0.6132 -0.7065  0.0802
 3295TIP3    H131300   3.980   6.004   0.412 -0.6744 -0.7156  0.1876
 3295TIP3    H231301   4.052   5.875   0.445 -1.3974 -0.7941  1.4797
 3296TIP3   OH231302   0.391   2.436   3.282  0.0252  0.3470  0.2380
 3296TIP3    H131303   0.359   2.392   3.361  0.0810 -1.1864 -0.5759
 3296TIP3    H231304   0.475   2.473   3.308 -0.3899  0.6722  1.1560
 3297TIP3   OH231305   5.536   4.338  12.431  0.4238  0.1687  0.1126
 3297TIP3    H131306   5.567   4.382  12.352 -1.0204  1.0033 -0.0116
 3297TIP3    H231307   5.616   4.314  12.477  1.2770  1.1897 -0.7782
 3298TIP3   OH231308   1.499   2.392   1.839  0.0535  0.2970 -0.1229
 3298TIP3    H131309   1.540   2.339   1.771 -2.9776 -0.0052 -1.8117
 3298TIP3    H231310   1.437   2.448   1.791 -0.1845  1.9861  2.1144
 3299TIP3   OH231311   4.194   4.208  14.513  0.3323 -0.0371 -0.1372
 3299TIP3    H131312   4.254   4.157  14.458  1.2213  1.3494 -0.4653
 3299TIP3    H231313   4.171   4.284  14.459 -1.9805 -0.6992 -0.1353
 3300TIP3   OH231314   0.692   5.041  11.382  0.3931  0.2051 -0.7834
 3300TIP3    H131315   0.735   5.027  11.298  0.8795 -0.0822 -0.4871
 3300TIP3    H231316   0.601   5.061  11.360 -0.4596 -3.6874 -1.2275
 3301TIP3   OH231317   5.564   3.713  14.884  0.1669 -0.1055  0.5057
 3301TIP3    H131318   5.536   3.804  14.874 -0.2556 -0.1932  0.8949
 3301TIP3    H231319   5.515   3.680  14.959 -0.4382 -0.9547 -0.2529
 3302TIP3   OH231320   5.250   0.938  15.738  0.7953 -0.3010 -0.0031
 3302TIP3    H131321   5.214   1.020  15.707  0.8999  0.1563  1.0736
 3302TIP3    H231322   5.174   0.888  15.768  0.9203  0.1870  1.1530
 3303TIP3   OH231323   2.626   1.815  14.549 -0.1854  0.2661  0.4478
 3303TIP3    H131324   2.589   1.727  14.562 -0.3688  0.6638  2.7841
 3303TIP3    H231325   2.710   1.813  14.594 -1.2986  2.0188  2.7191
 3304TIP3   OH231326   3.324   3.584  11.173  0.0068  0.2233  0.2547
 3304TIP3    H131327   3.268   3.534  11.233 -2.4723  1.6526 -0.8000
 3304TIP3    H231328   3.273   3.589  11.092  1.9472  1.0524 -0.9405
 3305TIP3   OH231329   0.952   5.391   3.106  0.5942 -0.6197  0.7189
 3305TIP3    H131330   0.886   5.454   3.136  1.7548  0.7509  0.4619
 3305TIP3    H231331   0.905   5.309   3.098 -1.3896  0.6136 -0.6824
 3306TIP3   OH231332   5.935   5.099  16.623  0.3532  0.0187 -0.6892
 3306TIP3    H131333   6.003   5.166  16.630 -0.0313  0.2871  0.4728
 3306TIP3    H231334   5.936   5.054  16.707 -2.0968  1.1610 -0.0245
 3307TIP3   OH231335   3.192   1.374  11.936  0.1756  0.1386 -0.5767
 3307TIP3    H131336   3.205   1.375  12.031 -1.6104  0.8608 -0.3094
 3307TIP3    H231337   3.226   1.459  11.907 -2.7286  1.5484 -0.0349
 3308TIP3   OH231338   2.359   2.956   2.575 -0.4365 -0.0882  0.5038
 3308TIP3    H131339   2.366   3.038   2.623  0.4733 -0.2320  0.6305
 3308TIP3    H231340   2.449   2.922   2.572 -0.8507 -1.2487  0.7616
 3309TIP3   OH231341   2.671   1.923  15.187 -0.0515  0.0442  0.0740
 3309TIP3    H131342   2.731   1.929  15.261 -0.0792 -0.5035  0.1433
 3309TIP3    H231343   2.677   2.009  15.144 -0.5915  0.6240  1.1286
 3310TIP3   OH231344   6.757   2.872   2.679  0.2335 -0.0522  0.0255
 3310TIP3    H131345   6.680   2.872   2.622  0.3582 -1.2579 -0.1479
 3310TIP3    H231346   6.721   2.879   2.768  0.0012  0.9754 -0.1493
 3311TIP3   OH231347   3.192   2.090   0.410 -0.0264 -0.3489 -0.1971
 3311TIP3    H131348   3.216   2.093   0.318 -0.9111  0.2412 -0.4156
 3311TIP3    H231349   3.144   2.008   0.421 -0.6901 -0.0012 -0.4606
 3312TIP3   OH231350   2.519   0.047   1.684  0.0635 -0.3115  0.0275
 3312TIP3    H131351   2.579   0.087   1.747  2.1340 -2.9338 -0.1824
 3312TIP3    H231352   2.576   0.015   1.614 -1.8403 -0.7169 -1.3821
 3313TIP3   OH231353   4.297   2.596   2.352 -0.3380  0.4767  0.0649
 3313TIP3    H131354   4.293   2.561   2.442 -1.2593  1.8181  0.5604
 3313TIP3    H231355   4.378   2.646   2.349 -1.9109  3.1841  1.2022
 3314TIP3   OH231356   4.167   6.350   5.970 -0.1860  0.1127 -0.1563
 3314TIP3    H131357   4.215   6.270   5.953 -0.5674 -0.0429 -0.5014
 3314TIP3    H231358   4.172   6.362   6.065 -1.7018 -1.3101  0.1143
 3315TIP3   OH231359   1.922   5.188  15.777  0.6667 -0.6402  0.5058
 3315TIP3    H131360   1.960   5.207  15.692  0.0439 -2.1345 -0.1267
 3315TIP3    H231361   1.870   5.109  15.763 -2.1172  0.9179  1.4745
 3316TIP3   OH231362   3.679   0.502  12.598  0.2560 -0.7562 -0.2631
 3316TIP3    H131363   3.585   0.520  12.609  0.0992 -1.5172 -0.3223
 3316TIP3    H231364   3.706   0.559  12.527 -0.3491 -1.1353 -0.8041
 3317TIP3   OH231365   5.653   5.353   3.900  0.4167 -0.4105 -0.4546
 3317TIP3    H131366   5.619   5.349   3.989  0.4867 -0.9371 -0.4534
 3317TIP3    H231367   5.582   5.318   3.846  1.2131 -2.1587 -0.3846
 3318TIP3   OH231368   0.332   2.969  17.142  0.0090 -0.1129  0.1205
 3318TIP3    H131369   0.290   3.054  17.158  1.9021  0.8812  0.0611
 3318TIP3    H231370   0.419   2.992  17.110  0.9110 -2.0950  1.0543
 3319TIP3   OH231371   5.794   0.576  13.329  0.8255 -0.7867 -0.5346
 3319TIP3    H131372   5.772   0.507  13.267  0.6960 -0.1924 -1.1464
 3319TIP3    H231373   5.742   0.556  13.407 -0.8698 -0.1556 -1.4799
 3320TIP3   OH231374   2.997   5.867  14.548  0.2266  0.1039  0.0770
 3320TIP3    H131375   3.040   5.797  14.498 -1.4459 -0.7806 -0.1377
 3320TIP3    H231376   3.062   5.938  14.550  1.5315 -1.0481 -0.6091
 3321TIP3   OH231377   5.280   5.228   0.176  0.1945  0.3412  0.2016
 3321TIP3    H131378   5.240   5.230   0.089 -0.3378 -0.1717  0.4284
 3321TIP3    H231379   5.233   5.158   0.222  0.4693  0.6143  0.9001
 3322TIP3   OH231380   3.074   6.579   5.843  0.0241 -0.2789 -0.2165
 3322TIP3    H131381   3.157   6.545   5.808  0.8410  2.2075 -0.8549
 3322TIP3    H231382   3.056   6.656   5.789 -1.3926  0.6511  1.5447
 3323TIP3   OH231383   1.284   2.578   1.754 -0.0039 -0.8082 -0.1610
 3323TIP3    H131384   1.249   2.600   1.667  0.0504 -0.8588 -0.1957
 3323TIP3    H231385   1.236   2.635   1.814  0.7072 -0.0244 -0.3344
 3324TIP3   OH231386   2.133   3.892   3.757 -0.5633  0.2429 -0.6047
 3324TIP3    H131387   2.072   3.890   3.830  1.4378  2.5005  1.2207
 3324TIP3    H231388   2.103   3.965   3.702 -0.3040  0.4942 -0.4149
 3325TIP3   OH231389   4.071   2.917  14.368  0.4493 -0.6962 -0.2544
 3325TIP3    H131390   4.148   2.974  14.374 -1.0127  1.5480 -1.8681
 3325TIP3    H231391   4.068   2.891  14.277 -1.3321  0.1779 -0.4629
 3326TIP3   OH231392   5.567   5.469  16.976 -0.8767  0.1519 -0.1849
 3326TIP3    H131393   5.520   5.552  16.966  0.0906  0.6353 -0.9011
 3326TIP3    H231394   5.564   5.450  17.069 -1.1764  0.9592 -0.0257
 3327TIP3   OH231395   2.287   1.830  12.857  0.0132 -0.0448 -0.4593
 3327TIP3    H131396   2.316   1.905  12.909  0.2925  0.5886 -1.5227
 3327TIP3    H231397   2.248   1.770  12.921  0.6590  0.5764  0.5222
 3328TIP3   OH231398   0.586   1.033  14.878  0.1036 -0.2001 -0.4442
 3328TIP3    H131399   0.492   1.050  14.883 -0.0098 -1.3869  1.9942
 3328TIP3    H231400   0.594   0.938  14.882  1.4870 -0.0332  1.3044
 3329TIP3   OH231401   4.885   5.860  16.847 -0.1438  0.2488  0.5013
 3329TIP3    H131402   4.802   5.901  16.868  0.6658  1.7762  0.7520
 3329TIP3    H231403   4.879   5.840  16.754 -0.8491  0.2129  0.5527
 3330TIP3   OH231404   5.116   3.815   1.591 -0.1191 -0.2768 -0.3198
 3330TIP3    H131405   5.178   3.821   1.664 -0.6399 -1.0208  0.1845
 3330TIP3    H231406   5.168   3.784   1.518  0.0092 -1.3740  0.2271
 3331TIP3   OH231407   6.531   0.994  15.435 -0.0551 -0.3387  0.5850
 3331TIP3    H131408   6.534   1.089  15.427 -0.2998 -0.4108 -0.3894
 3331TIP3    H231409   6.610   0.963  15.391 -1.0293 -0.6882 -0.9910
 3332TIP3   OH231410   3.708   4.555   1.005 -0.4164  0.1025  0.2249
 3332TIP3    H131411   3.710   4.462   1.029  1.6490  0.6667  2.4276
 3332TIP3    H231412   3.722   4.555   0.910  2.9113 -1.7378  0.6219
 3333TIP3   OH231413   1.030   1.271   1.491  0.0690 -0.1429 -0.4745
 3333TIP3    H131414   1.013   1.364   1.506  0.3309  0.0993 -1.6167
 3333TIP3    H231415   1.076   1.268   1.407  1.7120 -1.1620  0.4503
 3334TIP3   OH231416   2.020   1.896   1.812 -0.3811  0.1046 -0.8266
 3334TIP3    H131417   2.097   1.854   1.850 -0.8402  0.7546  0.8856
 3334TIP3    H231418   1.954   1.826   1.810  0.2140 -0.4444 -2.2692
 3335TIP3   OH231419   3.047   6.136  14.571 -0.3864 -0.1958  0.7293
 3335TIP3    H131420   3.002   6.209  14.613 -0.9086 -1.0886  1.7327
 3335TIP3    H231421   2.988   6.111  14.500  0.9088  1.8856 -1.1573
 3336TIP3   OH231422   1.004   6.129  11.579 -0.1372  0.0649  0.1301
 3336TIP3    H131423   1.026   6.186  11.653  1.4674 -0.5025  0.1137
 3336TIP3    H231424   1.018   6.040  11.612 -0.5981 -0.2406 -0.4836
 3337TIP3   OH231425   2.355   4.738  15.435 -0.7486 -0.9815  0.0132
 3337TIP3    H131426   2.405   4.730  15.517 -0.9007 -1.8627  0.0303
 3337TIP3    H231427   2.298   4.661  15.435 -0.2308 -1.3744 -1.2712
 3338TIP3   OH231428   4.180   1.164  13.924  0.1628  0.3427  0.0069
 3338TIP3    H131429   4.111   1.220  13.888  0.3513  0.7545  0.2826
 3338TIP3    H231430   4.145   1.076  13.918  0.2886  0.3799 -1.4304
 3339TIP3   OH231431   1.357   3.621  11.240  0.2543 -0.1369 -0.0261
 3339TIP3    H131432   1.274   3.667  11.245  0.4148  0.2969 -1.1284
 3339TIP3    H231433   1.397   3.653  11.159  1.0188 -1.1186 -0.0444
 3340TIP3   OH231434   6.406   0.525  15.107  0.0734 -0.4526 -0.3395
 3340TIP3    H131435   6.446   0.612  15.113 -0.9787 -0.0712  1.6808
 3340TIP3    H231436   6.315   0.543  15.083  0.2814 -1.1248 -1.6913
 3341TIP3   OH231437   3.872   2.309   6.012  0.2478  0.0447 -0.2899
 3341TIP3    H131438   3.814   2.260   6.070 -0.4837 -0.9840 -1.8553
 3341TIP3    H231439   3.958   2.302   6.053 -0.1954 -0.9752  0.4860
 3342TIP3   OH231440   1.044   5.819   4.794 -0.0787 -0.3169  0.4521
 3342TIP3    H131441   1.027   5.829   4.888  0.4943 -0.5993  0.5843
 3342TIP3    H231442   1.035   5.725   4.778 -1.4767 -0.1220 -0.0348
 3343TIP3   OH231443   3.715   5.043   1.974 -0.3442 -0.4019 -0.3043
 3343TIP3    H131444   3.733   5.086   1.890 -1.0258  0.0529 -0.2191
 3343TIP3    H231445   3.760   5.098   2.039  1.3072 -1.4821 -0.4870
 3344TIP3   OH231446   6.722   2.440  16.586 -0.4031  0.1561  0.9022
 3344TIP3    H131447   6.637   2.396  16.584 -0.1863 -0.3099  1.9543
 3344TIP3    H231448   6.719   2.499  16.510 -0.6189 -1.7563 -0.6029
 3345TIP3   OH231449   2.950   2.614   2.205  0.0423  0.0441  0.0653
 3345TIP3    H131450   2.919   2.610   2.296  1.9363 -0.3014  0.7261
 3345TIP3    H231451   3.040   2.581   2.210  1.1492  2.7550 -1.4688
 3346TIP3   OH231452   0.858   2.058  13.818  0.3048 -0.6231 -0.5041
 3346TIP3    H131453   0.945   2.094  13.805  0.2084 -0.2103 -0.0661
 3346TIP3    H231454   0.839   2.008  13.739 -0.0387  1.2830 -1.6533
 3347TIP3   OH231455   4.017   3.706   1.730 -0.6504  0.1017  0.2311
 3347TIP3    H131456   4.020   3.628   1.785  0.1639 -1.4808 -2.0387
 3347TIP3    H231457   3.948   3.688   1.666 -0.1853  1.0680 -0.5521
 3348TIP3   OH231458   2.746   3.124   5.682  0.1233  0.1130  0.1365
 3348TIP3    H131459   2.723   3.210   5.716  0.4840 -0.2561  1.3177
 3348TIP3    H231460   2.665   3.073   5.692 -1.1322  1.2074 -3.6080
 3349TIP3   OH231461   4.486   6.117  15.076 -0.0079 -0.0079  0.0867
 3349TIP3    H131462   4.556   6.147  15.017  0.1246 -1.0389 -0.2937
 3349TIP3    H231463   4.406   6.126  15.024  0.1714 -1.4414 -0.4722
 3350TIP3   OH231464   5.221   2.545   6.369  0.5234  0.0176 -0.2471
 3350TIP3    H131465   5.264   2.563   6.452 -0.6643 -3.1427  1.1161
 3350TIP3    H231466   5.292   2.520   6.310  0.9645 -1.6832  0.9755
 3351TIP3   OH231467   5.719   0.121   0.843  0.3012 -0.4092  0.0334
 3351TIP3    H131468   5.765   0.167   0.913  0.8814 -1.2232  0.1873
 3351TIP3    H231469   5.761   0.151   0.763  0.7345 -0.7373  0.1393
 3352TIP3   OH231470   2.338   2.251  16.001  0.1056 -0.2266 -0.0309
 3352TIP3    H131471   2.397   2.303  16.056 -0.5647 -0.8088  1.2426
 3352TIP3    H231472   2.393   2.181  15.967  0.4699  0.0063  0.0773
 3353TIP3   OH231473   2.380   6.699  16.309  0.0569 -0.3186 -0.0586
 3353TIP3    H131474   2.369   6.724  16.217  1.8977  0.2117 -0.1395
 3353TIP3    H231475   2.413   6.609  16.305 -0.3686 -0.4852  0.1062
 3354TIP3   OH231476   2.598   6.191   0.306  0.1244  0.2669  0.1034
 3354TIP3    H131477   2.537   6.123   0.275  2.6177 -0.4718 -3.4458
 3354TIP3    H231478   2.563   6.273   0.271  0.5470 -0.0218 -1.0141
 3355TIP3   OH231479   0.842   6.273   1.275  0.6877 -0.2854 -0.6083
 3355TIP3    H131480   0.747   6.276   1.264  0.6578 -1.1011 -0.5657
 3355TIP3    H231481   0.859   6.329   1.351  0.2341 -0.2267 -0.5491
 3356TIP3   OH231482   2.348   6.672  15.046  0.1129  0.0298 -0.2245
 3356TIP3    H131483   2.423   6.693  14.989  0.4394  0.3587  0.3198
 3356TIP3    H231484   2.376   6.594  15.094 -1.0908 -1.7015 -2.2283
 3357TIP3   OH231485   6.094   0.211  12.329 -0.2706  0.2076  0.3069
 3357TIP3    H131486   6.035   0.183  12.260 -0.9088 -1.6400  1.5557
 3357TIP3    H231487   6.162   0.143  12.331 -0.2477  0.2559  1.4656
 3358TIP3   OH231488   1.763   1.365   5.319  0.3497 -0.2280 -0.2077
 3358TIP3    H131489   1.727   1.398   5.401  0.2516  0.6522 -0.6028
 3358TIP3    H231490   1.838   1.312   5.346 -1.1898 -2.0456  0.6075
 3359TIP3   OH231491   5.492   2.553   4.665 -0.1101  0.1221  0.2194
 3359TIP3    H131492   5.521   2.535   4.755 -2.2487  0.1260  0.9539
 3359TIP3    H231493   5.459   2.643   4.668  1.0158  0.5799 -0.9110
 3360TIP3   OH231494   2.209   0.506   5.767  0.2031  0.2396 -0.1863
 3360TIP3    H131495   2.220   0.417   5.735 -0.8710 -0.1835  0.5811
 3360TIP3    H231496   2.276   0.515   5.835 -1.3887 -0.9108  1.5922
 3361TIP3   OH231497   3.566   3.822  12.167  0.3294  0.2191  0.0413
 3361TIP3    H131498   3.609   3.834  12.251 -0.6873  0.3944  0.5518
 3361TIP3    H231499   3.509   3.746  12.179  0.9235 -0.3694 -0.7994
 3362TIP3   OH231500   5.752   0.087  15.098 -0.1089 -0.3119  0.5205
 3362TIP3    H131501   5.840   0.083  15.061 -0.2908  0.3653  0.0098
 3362TIP3    H231502   5.710   0.006  15.069  0.1825 -0.4025  0.3497
 3363TIP3   OH231503   2.891   3.945   4.299  0.5401 -0.0813 -0.1198
 3363TIP3    H131504   2.912   3.866   4.349  3.0638  0.3812 -0.3706
 3363TIP3    H231505   2.864   3.912   4.213  0.0314 -0.7237  0.2839
 3364TIP3   OH231506   5.201   0.751  13.059  0.2417  0.3145 -0.0426
 3364TIP3    H131507   5.130   0.795  13.013 -0.1662 -0.2962 -0.0090
 3364TIP3    H231508   5.164   0.667  13.085  0.6643  0.3937  0.8501
 3365TIP3   OH231509   0.915   5.232   1.969 -0.3213  0.1640  0.5907
 3365TIP3    H131510   0.823   5.206   1.971 -0.7287  1.5305  0.4269
 3365TIP3    H231511   0.934   5.261   2.058 -0.1379  0.1752  0.5493
 3366TIP3   OH231512   6.522   3.600   5.381 -0.3444 -0.4450  0.6174
 3366TIP3    H131513   6.601   3.584   5.431 -0.9899 -2.5684  0.9996
 3366TIP3    H231514   6.499   3.691   5.400  2.3582  0.4221 -0.0523
 3367TIP3   OH231515   4.062   5.731   3.122 -0.2308  0.4229 -0.4778
 3367TIP3    H131516   4.119   5.808   3.118  0.4244  0.0954  1.9276
 3367TIP3    H231517   4.123   5.657   3.115 -0.6138  0.0922 -0.2770
 3368TIP3   OH231518   0.611   4.735  15.328 -0.5719 -0.2737 -0.0154
 3368TIP3    H131519   0.683   4.769  15.275 -0.3078  0.3228  0.7159
 3368TIP3    H231520   0.557   4.812  15.348 -0.4440 -0.4204  0.9188
 3369TIP3   OH231521   0.854   0.391  13.649 -0.5115 -0.1538 -0.3450
 3369TIP3    H131522   0.824   0.481  13.644  2.3608  0.9213  0.4188
 3369TIP3    H231523   0.802   0.352  13.720  0.9569  2.1082  2.0970
 3370TIP3   OH231524   1.390   4.764  13.536  0.2335 -0.5091  0.4625
 3370TIP3    H131525   1.459   4.803  13.481 -0.3628  0.7954  0.6345
 3370TIP3    H231526   1.433   4.749  13.621  0.2137  0.5931  0.6668
 3371TIP3   OH231527   0.070   3.686  16.057 -0.0246 -0.6051  0.6831
 3371TIP3    H131528   0.008   3.758  16.047  1.6287  0.7119 -0.1349
 3371TIP3    H231529   0.074   3.645  15.971  0.7489 -0.2909  0.5748
 3372TIP3   OH231530   6.011   3.477   1.931  0.3150  0.1505 -0.1716
 3372TIP3    H131531   6.035   3.569   1.937 -0.5691  0.4239 -0.6774
 3372TIP3    H231532   5.930   3.470   1.981 -0.5510  0.0083 -1.5464
 3373TIP3   OH231533   4.223   1.930   0.029 -0.5553 -0.4311 -0.5058
 3373TIP3    H131534   4.146   1.883   0.060 -1.8684  0.8860 -1.7104
 3373TIP3    H231535   4.209   1.940  -0.065  1.4394 -0.8132 -0.8709
 3374TIP3   OH231536   4.177   2.166  12.637  0.4794  0.2226  0.1539
 3374TIP3    H131537   4.148   2.244  12.590  1.3242 -0.3747 -1.4063
 3374TIP3    H231538   4.215   2.199  12.718  1.4031  1.5017 -0.7733
 3375TIP3   OH231539   2.283   6.292   6.128  0.3429  0.2259  0.2832
 3375TIP3    H131540   2.242   6.242   6.198  0.0575  1.1055  0.7553
 3375TIP3    H231541   2.212   6.346   6.092  0.6731  0.3981 -0.1268
 3376TIP3   OH231542   4.354   2.590  10.581 -0.4769 -0.0681  0.5623
 3376TIP3    H131543   4.279   2.531  10.570  0.2943 -0.8385 -0.6998
 3376TIP3    H231544   4.345   2.624  10.670 -2.3722 -0.0803  0.3805
 3377TIP3   OH231545   0.185   1.766  16.032 -0.1180  0.8290  0.0880
 3377TIP3    H131546   0.253   1.702  16.007 -0.9835 -0.4698  0.9825
 3377TIP3    H231547   0.230   1.850  16.032  1.7099 -0.1134  1.4363
 3378TIP3   OH231548   6.109   0.846   3.210 -0.1750  0.3168  0.2774
 3378TIP3    H131549   6.037   0.789   3.185  1.0877 -1.8829  1.4846
 3378TIP3    H231550   6.137   0.888   3.129 -1.2363 -0.6452 -0.5865
 3379TIP3   OH231551   1.850   4.132  11.226 -0.0106 -0.6983  0.0912
 3379TIP3    H131552   1.907   4.071  11.179  0.9617  0.3310 -0.0966
 3379TIP3    H231553   1.763   4.114  11.192  0.8230  0.8857 -3.0661
 3380TIP3   OH231554   0.380   6.178  15.583  0.3828  0.4293  0.4059
 3380TIP3    H131555   0.468   6.210  15.562  0.3267  0.0275 -0.4579
 3380TIP3    H231556   0.321   6.244  15.545  0.2903 -0.0009 -0.2036
 3381TIP3   OH231557   1.031   4.134   2.650 -0.2834  0.0337 -0.1013
 3381TIP3    H131558   1.077   4.214   2.674 -1.2447  0.1860  1.2561
 3381TIP3    H231559   1.097   4.081   2.606  0.9382  0.6591  0.9574
 3382TIP3   OH231560   1.136   2.668   2.553  0.4963 -0.0617  0.6724
 3382TIP3    H131561   1.178   2.584   2.533  0.3425  0.0306 -0.0469
 3382TIP3    H231562   1.046   2.658   2.522  0.0842 -0.1151  1.8465
 3383TIP3   OH231563   3.105   5.216   1.993 -0.2255  0.3094 -0.6020
 3383TIP3    H131564   3.078   5.303   2.023  0.0160 -0.3276  1.5597
 3383TIP3    H231565   3.200   5.222   1.983 -0.2919  0.4860 -1.1613
 3384TIP3   OH231566   5.100   5.983   3.785 -0.1596  0.3789 -0.0558
 3384TIP3    H131567   5.060   6.063   3.821  0.4698  1.3707 -1.5089
 3384TIP3    H231568   5.146   5.944   3.859  0.3269  1.8877  0.4638
 3385TIP3   OH231569   2.629   4.388   5.745  0.4092 -0.2041 -0.2085
 3385TIP3    H131570   2.591   4.466   5.706  0.1211  0.6329  1.6745
 3385TIP3    H231571   2.581   4.315   5.707 -1.9636  0.7463  0.8624
 3386TIP3   OH231572   0.641   0.496  16.730  0.2472  0.1733  0.5608
 3386TIP3    H131573   0.588   0.561  16.777  0.4300 -0.5304  1.7626
 3386TIP3    H231574   0.580   0.424  16.713  0.7710 -0.6032  1.8721
 3387TIP3   OH231575   2.510   0.036   4.930 -0.0431  0.4499 -0.3734
 3387TIP3    H131576   2.573   0.040   5.002  1.4551  1.5634 -1.7182
 3387TIP3    H231577   2.427   0.014   4.973  1.1475 -0.6034  1.4782
 3388TIP3   OH231578   5.148   6.726  12.965  0.0641  0.2504  0.2376
 3388TIP3    H131579   5.221   6.668  12.987 -0.2520 -0.2581 -0.0377
 3388TIP3    H231580   5.184   6.784  12.897 -0.0798 -0.6568 -0.6226
 3389TIP3   OH231581   0.917   3.655   5.866 -0.0534  0.3294 -0.1000
 3389TIP3    H131582   0.937   3.622   5.954  2.4667  1.9752 -0.0305
 3389TIP3    H231583   0.919   3.577   5.810 -1.9958 -0.7876  1.3009
 3390TIP3   OH231584   0.309   3.080  14.918  0.2267 -0.1126  0.2446
 3390TIP3    H131585   0.334   3.060  15.008  0.0203 -2.1741 -0.1313
 3390TIP3    H231586   0.250   3.155  14.926 -2.0084 -1.9628  2.1111
 3391TIP3   OH231587   3.430   4.738  12.614  0.4060  0.1396  0.1978
 3391TIP3    H131588   3.520   4.770  12.623  0.8210 -0.7606 -0.6594
 3391TIP3    H231589   3.403   4.767  12.528 -0.0357  0.1748  0.3506
 3392TIP3   OH231590   6.655   0.406  11.977  0.1630  0.1149  0.3273
 3392TIP3    H131591   6.625   0.494  11.954 -0.6902 -0.3542 -0.3707
 3392TIP3    H231592   6.748   0.418  12.000  0.3448  1.0177 -0.8172
 3393TIP3   OH231593   2.535   3.738   5.084 -0.4343 -0.1968 -0.5459
 3393TIP3    H131594   2.454   3.788   5.096 -1.1003 -1.2089 -0.7942
 3393TIP3    H231595   2.507   3.654   5.049  0.5144 -1.4233  1.5510
 3394TIP3   OH231596   2.967   2.704   5.217 -1.0988 -0.4841  0.1845
 3394TIP3    H131597   2.926   2.779   5.174 -1.5126 -0.0849  1.2372
 3394TIP3    H231598   2.895   2.644   5.234 -0.6158 -1.6050 -1.5797
 3395TIP3   OH231599   5.859   6.754   3.257  0.0822  0.4294  0.2911
 3395TIP3    H131600   5.928   6.798   3.206  0.9018 -0.9027  0.2129
 3395TIP3    H231601   5.906   6.707   3.325 -0.8354  0.1811  0.7620
 3396TIP3   OH231602   6.229   2.117  17.071 -0.1142 -0.0283  0.7499
 3396TIP3    H131603   6.219   2.145  17.162 -1.8440  2.2357 -0.0936
 3396TIP3    H231604   6.144   2.137  17.030  0.9682 -0.0759 -1.6144
 3397TIP3   OH231605   3.508   1.079   3.312 -0.0880  0.3892  0.3606
 3397TIP3    H131606   3.517   0.986   3.330  0.0484  0.6553  1.7169
 3397TIP3    H231607   3.476   1.117   3.394  0.5440  1.6308  0.0520
 3398TIP3   OH231608   5.031   4.581  12.131  0.7680 -0.0095 -0.5847
 3398TIP3    H131609   4.985   4.619  12.056 -0.0459  2.0715  0.9315
 3398TIP3    H231610   4.979   4.503  12.153 -2.6210  2.7267  1.5985
 3399TIP3   OH231611   3.119   0.252  11.622  0.1465 -0.0559  0.8924
 3399TIP3    H131612   3.095   0.171  11.666 -0.7145 -0.8342 -0.9401
 3399TIP3    H231613   3.075   0.321  11.673 -3.4278 -1.1920 -0.4707
 3400TIP3   OH231614   0.185   1.868  14.722 -0.2150 -0.0151 -0.3432
 3400TIP3    H131615   0.173   1.821  14.804 -0.4312 -0.6331 -0.7216
 3400TIP3    H231616   0.119   1.831  14.663 -0.6692  1.0620 -0.5247
 3401TIP3   OH231617   6.162   5.745  15.708  0.1523  0.7036 -0.0629
 3401TIP3    H131618   6.181   5.732  15.615  0.9953  0.5375  0.1231
 3401TIP3    H231619   6.078   5.791  15.710 -0.8249 -1.0029 -0.8558
 3402TIP3   OH231620   6.503   4.567  16.737  0.2058  0.0735 -0.1920
 3402TIP3    H131621   6.568   4.508  16.699 -0.7454 -2.4275  1.9246
 3402TIP3    H231622   6.442   4.585  16.665  0.0052 -2.3209 -0.6569
 3403TIP3   OH231623   1.466   0.558   5.662  0.0830 -0.1761 -0.1080
 3403TIP3    H131624   1.394   0.574   5.602 -0.6356 -0.2724  0.7122
 3403TIP3    H231625   1.515   0.486   5.623 -1.2107 -1.2157  0.1345
 3404TIP3   OH231626   4.198   6.694  12.568  0.3771 -0.4031  0.2798
 3404TIP3    H131627   4.129   6.712  12.632  0.6182 -0.6696  0.6135
 3404TIP3    H231628   4.153   6.695  12.483  0.3452  1.6508  0.2819
 3405TIP3   OH231629   4.738   6.497  10.724  0.2802  0.8834 -0.1555
 3405TIP3    H131630   4.674   6.476  10.656  0.9389  0.3334 -0.6044
 3405TIP3    H231631   4.760   6.589  10.708 -2.5438  1.9480  1.7731
 3406TIP3   OH231632   3.730   0.304   4.767 -0.2792  0.8078  0.2113
 3406TIP3    H131633   3.710   0.300   4.860 -0.2461 -0.7603  0.1591
 3406TIP3    H231634   3.820   0.273   4.760 -1.0974 -1.5122 -0.5905
 3407TIP3   OH231635   6.711   1.978  12.668  0.2312 -0.2230 -0.2798
 3407TIP3    H131636   6.768   2.040  12.714  2.4370 -1.6050 -1.0464
 3407TIP3    H231637   6.759   1.958  12.587 -0.9848 -2.0387 -0.5708
 3408TIP3   OH231638   0.097   5.650  10.886 -0.1726  0.0820  0.3901
 3408TIP3    H131639   0.104   5.743  10.867  0.5878  0.4348  2.3174
 3408TIP3    H231640   0.181   5.626  10.926 -0.2898 -1.4652 -0.2481
 3409TIP3   OH231641   5.122   1.542  16.137 -0.0634 -0.0634  0.0088
 3409TIP3    H131642   5.210   1.533  16.175 -0.8594  1.1127  2.1701
 3409TIP3    H231643   5.138   1.584  16.052  1.2111  3.7002  1.9726
 3410TIP3   OH231644   6.187   3.958   2.931  0.0498 -0.1986 -0.1503
 3410TIP3    H131645   6.257   3.918   2.879 -1.0849 -0.5897 -1.3943
 3410TIP3    H231646   6.110   3.955   2.874 -0.5674  1.8509  0.5303
 3411TIP3   OH231647   4.864   2.478   5.663 -0.9056  0.4590  0.3806
 3411TIP3    H131648   4.848   2.397   5.711  0.9300 -0.2444 -0.1527
 3411TIP3    H231649   4.798   2.539   5.696 -3.0632 -1.5779 -0.0254
 3412TIP3   OH231650   3.840   4.994  13.752  1.7609  0.1175 -0.6196
 3412TIP3    H131651   3.818   5.013  13.843  1.5787 -1.3677 -0.3361
 3412TIP3    H231652   3.924   5.038  13.738  1.5872  0.7082  0.1251
 3413TIP3   OH231653   4.975   3.542   0.804 -0.4156 -0.4709  0.2311
 3413TIP3    H131654   4.942   3.579   0.886 -0.1015  0.7016 -0.1674
 3413TIP3    H231655   4.911   3.568   0.738  0.6663  0.8106 -0.3380
 3414TIP3   OH231656   2.935   5.826   1.290  0.0723 -0.1949 -0.2281
 3414TIP3    H131657   2.975   5.912   1.281  0.1512 -0.3128 -1.1102
 3414TIP3    H231658   2.994   5.767   1.242  0.6474 -0.9478  1.3441
 3415TIP3   OH231659   0.944   5.397  14.315 -0.2283  0.4951 -0.5424
 3415TIP3    H131660   0.876   5.331  14.332 -0.5675  0.7497 -0.9123
 3415TIP3    H231661   0.912   5.446  14.240 -0.4852  1.7547  0.3639
 3416TIP3   OH231662   6.747   6.204   1.967  0.5100  0.2221  0.1253
 3416TIP3    H131663   6.659   6.177   1.995 -0.7692  2.4398 -1.5013
 3416TIP3    H231664   6.789   6.237   2.046  0.6094 -2.6165  1.3013
 3417TIP3   OH231665   0.385   2.846  16.183 -0.3785 -0.1316  0.2079
 3417TIP3    H131666   0.454   2.789  16.218  0.6242  1.5687  1.0865
 3417TIP3    H231667   0.432   2.920  16.145 -1.7108  1.2730  1.1920
 3418TIP3   OH231668   4.862   3.553  14.629 -0.1157  0.3390  0.2910
 3418TIP3    H131669   4.829   3.636  14.663 -1.0230  0.2937 -0.4874
 3418TIP3    H231670   4.936   3.578  14.573 -0.3219  0.6140  0.1413
 3419TIP3   OH231671   4.493   1.621   4.320 -0.0639  0.0159  0.2925
 3419TIP3    H131672   4.412   1.654   4.282  1.7617  1.6169 -2.4468
 3419TIP3    H231673   4.482   1.631   4.414 -2.3354  1.9498 -0.1298
 3420TIP3   OH231674   3.250   0.662  15.680 -0.4564 -0.3306  0.0012
 3420TIP3    H131675   3.270   0.573  15.652 -1.0645  0.2825 -2.5654
 3420TIP3    H231676   3.162   0.679  15.646 -0.0979  1.4500 -0.0796
 3421TIP3   OH231677   5.860   5.891  12.030 -0.3862  0.0346 -0.6496
 3421TIP3    H131678   5.851   5.858  12.120 -0.8589  1.2464 -0.2398
 3421TIP3    H231679   5.784   5.856  11.984 -1.4174  1.3306  0.0333
 3422TIP3   OH231680   4.019   1.173   4.793 -0.0998 -0.0157 -0.4786
 3422TIP3    H131681   4.078   1.238   4.754 -1.7011  0.9701 -1.2891
 3422TIP3    H231682   3.949   1.164   4.729 -0.9563 -1.0123  0.5944
 3423TIP3   OH231683   6.507   5.335   4.018 -0.5314 -0.1243  0.2187
 3423TIP3    H131684   6.586   5.292   4.051  0.4873 -0.2480 -2.2637
 3423TIP3    H231685   6.442   5.264   4.014  0.3390 -0.8490 -1.2707
 3424TIP3   OH231686   6.351   4.941   4.345 -0.9142  0.1771  0.4113
 3424TIP3    H131687   6.262   4.927   4.314 -0.4443 -0.6397 -0.5941
 3424TIP3    H231688   6.396   4.859   4.328 -0.1377  0.3610  1.5299
 3425TIP3   OH231689   1.000   3.420   2.542 -0.0669 -0.2400  0.0816
 3425TIP3    H131690   0.921   3.421   2.488  0.1170 -1.7881 -0.2336
 3425TIP3    H231691   0.998   3.503   2.589 -1.7126 -0.1295 -0.1667
 3426TIP3   OH231692   2.128   6.448  12.408  0.1306  0.0127  0.4538
 3426TIP3    H131693   2.096   6.538  12.404 -0.8949 -0.3971 -0.8926
 3426TIP3    H231694   2.051   6.396  12.430 -0.0904 -0.9220 -2.2851
 3427TIP3   OH231695   5.812   6.351  14.941  0.0111 -0.8557  0.4205
 3427TIP3    H131696   5.902   6.363  14.971 -0.2722 -1.9883  1.7538
 3427TIP3    H231697   5.812   6.265  14.900 -0.6289 -1.1789  1.0843
 3428TIP3   OH231698   1.245   1.707   4.353  0.2470 -0.1036  0.0525
 3428TIP3    H131699   1.189   1.739   4.424  0.5336  0.3182  0.0907
 3428TIP3    H231700   1.309   1.651   4.397  0.3671  0.0832  0.1187
 3429TIP3   OH231701   4.862   0.369  12.615  0.1141 -0.3152  0.1657
 3429TIP3    H131702   4.876   0.457  12.581  0.5799 -0.5141 -0.1669
 3429TIP3    H231703   4.788   0.335  12.565 -0.4263  0.0835  0.6802
 3430TIP3   OH231704   2.931   0.455   4.091 -0.1804  0.4760 -0.4637
 3430TIP3    H131705   2.897   0.417   4.172 -0.0432  0.0177 -0.6211
 3430TIP3    H231706   2.981   0.385   4.050 -2.4799 -0.1658 -2.2987
 3431TIP3   OH231707   0.875   0.311  14.738 -0.0531  0.2808 -0.4687
 3431TIP3    H131708   0.820   0.371  14.788  1.4298  1.3679 -0.1169
 3431TIP3    H231709   0.815   0.271  14.675 -1.3035  1.2182  0.1024
 3432TIP3   OH231710   1.691   2.201   0.069  0.2388 -0.2724 -0.6122
 3432TIP3    H131711   1.769   2.158   0.035 -0.1096 -2.4459  1.1968
 3432TIP3    H231712   1.626   2.192  -0.001  1.2375  0.5281 -1.6637
 3433TIP3   OH231713   6.737   5.479   4.578  0.0764  1.0334 -0.0957
 3433TIP3    H131714   6.818   5.531   4.578  0.5216  0.3588  0.4187
 3433TIP3    H231715   6.671   5.537   4.614  0.6273  1.1608  0.7252
 3434TIP3   OH231716   3.074   6.282  13.878  0.1686 -1.0778 -0.3002
 3434TIP3    H131717   3.161   6.259  13.844  1.0952  1.0673  0.4824
 3434TIP3    H231718   3.037   6.199  13.908  2.2813 -1.9166  0.0874
 3435TIP3   OH231719   5.423   5.705  12.403 -0.5345  0.1420  0.0189
 3435TIP3    H131720   5.409   5.634  12.340 -0.1322  0.8916 -0.9330
 3435TIP3    H231721   5.433   5.783  12.348 -0.2230  0.8091  1.0230
 3436TIP3   OH231722   1.617   5.203  12.380  0.3538  0.8459  0.7030
 3436TIP3    H131723   1.552   5.148  12.422 -0.1461  1.4671  0.7571
 3436TIP3    H231724   1.576   5.290  12.377  1.4092  1.3747  1.2795
 3437TIP3   OH231725   1.492   3.747   1.328 -0.6863  0.2193 -0.7563
 3437TIP3    H131726   1.411   3.728   1.281 -0.1693  1.4957 -2.2437
 3437TIP3    H231727   1.554   3.681   1.297 -0.8455 -0.0467 -0.5036
 3438TIP3   OH231728   4.391   2.766  14.845 -0.2471  0.0432  0.1653
 3438TIP3    H131729   4.312   2.795  14.889 -1.8834 -1.0756 -1.9717
 3438TIP3    H231730   4.414   2.684  14.889  1.5493  1.8994  2.8561
 3439TIP3   OH231731   4.860   1.716   0.224 -0.2537  0.1556  0.1896
 3439TIP3    H131732   4.782   1.669   0.253 -0.3160 -0.1749 -0.5105
 3439TIP3    H231733   4.901   1.658   0.161 -0.7286  1.3441 -1.2465
 3440TIP3   OH231734   5.231   5.920   4.017  1.1315  0.2256  0.2835
 3440TIP3    H131735   5.253   5.997   4.069  1.6052  0.1202  0.2419
 3440TIP3    H231736   5.140   5.902   4.039  0.9746  0.8810  0.1871
 3441TIP3   OH231737   2.844   4.503  13.028 -0.0814  1.0205  0.3800
 3441TIP3    H131738   2.752   4.482  13.040 -0.3469  1.9579 -0.0092
 3441TIP3    H231739   2.846   4.597  13.010  0.7637  0.6629 -1.5564
 3442TIP3   OH231740   3.892   4.851  11.438  0.1101 -0.0960  0.3060
 3442TIP3    H131741   3.893   4.930  11.492 -0.1742  0.1084  0.0081
 3442TIP3    H231742   3.944   4.874  11.361 -1.9909  0.5999 -0.9296
 3443TIP3   OH231743   2.044   5.494  11.775  0.4533  0.2767  1.0047
 3443TIP3    H131744   1.984   5.536  11.713  0.0303 -0.7319  0.7234
 3443TIP3    H231745   2.040   5.550  11.854 -1.1870 -0.0260  1.1423
 3444TIP3   OH231746   1.327   4.109   1.689  0.4757 -0.8959  0.5563
 3444TIP3    H131747   1.312   4.030   1.636  0.2475 -0.5637  0.1185
 3444TIP3    H231748   1.370   4.170   1.629  0.1980 -0.5073  0.7512
 3445TIP3   OH231749   5.145   0.125  14.668 -0.5215  0.1144 -0.2930
 3445TIP3    H131750   5.076   0.059  14.673  0.3645 -0.7897  0.2684
 3445TIP3    H231751   5.178   0.132  14.758  0.2063  0.4386 -0.5815
 3446TIP3   OH231752   1.360   4.294   0.430 -0.6080  0.0079  0.8142
 3446TIP3    H131753   1.293   4.360   0.413 -0.2742  0.5689  1.6130
 3446TIP3    H231754   1.424   4.305   0.360  1.3166  3.0209  2.9405
 3447TIP3   OH231755   4.987   6.031   5.482 -0.7863 -0.2915  0.2196
 3447TIP3    H131756   4.937   6.020   5.563 -2.2492  0.0193 -0.6317
 3447TIP3    H231757   4.927   6.005   5.412  0.2236  0.1252 -0.8284
 3448TIP3   OH231758   5.443   1.074  12.118 -0.0074  0.0194  0.1992
 3448TIP3    H131759   5.531   1.109  12.130  0.2526 -0.1575 -1.0923
 3448TIP3    H231760   5.409   1.064  12.207  2.3337 -2.6052  0.8702
 3449TIP3   OH231761   4.600   0.687   0.286 -0.0859 -0.0756 -0.0575
 3449TIP3    H131762   4.597   0.594   0.308  0.1369 -0.6089 -2.1310
 3449TIP3    H231763   4.687   0.699   0.246 -0.1052  1.0296  0.2099
 3450TIP3   OH231764   3.868   5.152   2.167  0.5292 -0.4819 -0.4885
 3450TIP3    H131765   3.925   5.225   2.144  0.9740  0.0657  2.1642
 3450TIP3    H231766   3.791   5.193   2.207 -0.4889 -1.3507 -1.5016
 3451TIP3   OH231767   2.393   4.331   5.979 -0.1131 -0.3495  0.5048
 3451TIP3    H131768   2.406   4.237   5.989  1.2304 -0.1977  0.3743
 3451TIP3    H231769   2.318   4.340   5.920 -0.5499 -1.3268  0.9089
 3452TIP3   OH231770   5.703   5.884   1.349  0.0661  0.0158 -0.1209
 3452TIP3    H131771   5.749   5.813   1.393  1.1595  0.7965  0.0169
 3452TIP3    H231772   5.693   5.854   1.258  3.7258  1.1541 -0.9719
 3453TIP3   OH231773   4.788   4.258  14.711  0.2843  0.0253  0.3853
 3453TIP3    H131774   4.869   4.207  14.717 -0.1511 -0.5750  1.2708
 3453TIP3    H231775   4.812   4.345  14.743  0.4396 -0.3061  1.1671
 3454TIP3   OH231776   4.928   1.302   4.247  0.2230 -0.0122  0.3947
 3454TIP3    H131777   4.960   1.327   4.334  0.4298  0.6792  0.1265
 3454TIP3    H231778   4.979   1.357   4.187 -0.8891  0.5093 -0.0874
 3455TIP3   OH231779   3.624   1.275   0.299 -0.5365  0.8028 -0.1942
 3455TIP3    H131780   3.717   1.275   0.321 -0.8571 -0.4239  1.1804
 3455TIP3    H231781   3.588   1.349   0.348 -0.5369  0.4295  0.3726
 3456TIP3   OH231782   4.981   5.179   2.304  0.0422  0.0442  0.0484
 3456TIP3    H131783   4.919   5.129   2.357 -0.2499  1.2266  0.8576
 3456TIP3    H231784   5.002   5.256   2.358  2.1797 -0.3142 -0.2235
 3457TIP3   OH231785   6.008   5.356  12.199 -0.8425  0.2605  0.1931
 3457TIP3    H131786   5.990   5.350  12.292  1.0955  2.1181  0.7220
 3457TIP3    H231787   5.947   5.295  12.158  0.5054 -3.0481  2.9320
 3458TIP3   OH231788   5.521   6.490   2.672  0.4829 -0.3134  0.2442
 3458TIP3    H131789   5.488   6.489   2.582 -0.2041 -0.1396  0.4904
 3458TIP3    H231790   5.510   6.400   2.702 -0.3865 -0.1099  0.5457
 3459TIP3   OH231791   1.502   6.303   3.543 -0.2303 -0.0571  0.3571
 3459TIP3    H131792   1.556   6.380   3.530 -1.4361  0.4506 -1.9428
 3459TIP3    H231793   1.544   6.234   3.491 -1.6584  0.3261 -1.3979
 3460TIP3   OH231794   6.616   0.799  12.290  0.1637 -0.3263 -0.0887
 3460TIP3    H131795   6.543   0.854  12.260  0.7185  0.6625  0.3524
 3460TIP3    H231796   6.688   0.861  12.304  0.3136 -0.9406  2.0105
 3461TIP3   OH231797   5.685   0.299  11.477 -0.3445 -0.3949 -0.0786
 3461TIP3    H131798   5.629   0.373  11.501 -0.4375  0.6107 -3.1293
 3461TIP3    H231799   5.628   0.243  11.423  0.2614 -1.7297  0.6619
 3462TIP3   OH231800   1.676   3.886  14.052 -0.1445  0.5135  0.0160
 3462TIP3    H131801   1.708   3.796  14.043  1.6714  1.2848 -1.3622
 3462TIP3    H231802   1.744   3.940  14.012 -2.0390  2.3778 -0.7721
 3463TIP3   OH231803   5.454   4.282   4.865  0.4045 -0.1084  0.0386
 3463TIP3    H131804   5.480   4.262   4.954 -0.9841 -1.4521  0.1468
 3463TIP3    H231805   5.410   4.367   4.871  0.4184 -0.1412  0.5919
 3464TIP3   OH231806   5.673   1.728  13.351  0.1696  0.1898  0.3914
 3464TIP3    H131807   5.706   1.816  13.334  0.5928 -0.2004 -0.9409
 3464TIP3    H231808   5.604   1.716  13.285  0.6392 -0.7484  0.0684
 3465TIP3   OH231809   6.381   5.239  14.785  0.7908  0.2207  0.6388
 3465TIP3    H131810   6.351   5.175  14.850 -1.8940  1.8584  1.1062
 3465TIP3    H231811   6.421   5.309  14.837 -0.4702  1.0710  0.4833
 3466TIP3   OH231812   5.908   3.807   1.123 -0.1727  0.7288  0.0350
 3466TIP3    H131813   5.989   3.773   1.161 -0.3248  0.6864  0.3274
 3466TIP3    H231814   5.912   3.783   1.031  0.7842  1.9273 -0.2495
 3467TIP3   OH231815   1.220   2.434   2.252  0.1727  0.0474  0.7151
 3467TIP3    H131816   1.153   2.397   2.309  0.0865  0.4852  0.9042
 3467TIP3    H231817   1.225   2.374   2.178 -1.0640  0.4952  0.2573
 3468TIP3   OH231818   6.224   2.401   0.572  0.2301 -0.3451  0.2315
 3468TIP3    H131819   6.204   2.315   0.611  0.3620  0.1786  1.4848
 3468TIP3    H231820   6.314   2.419   0.600  0.3598  0.0012 -0.4097
 3469TIP3   OH231821   5.274   1.536  11.750 -0.0479  0.1663 -0.5501
 3469TIP3    H131822   5.181   1.513  11.759  0.0258 -0.5559 -1.5717
 3469TIP3    H231823   5.317   1.485  11.818 -0.1325 -1.2367 -1.5334
 3470TIP3   OH231824   6.046   3.594   2.550 -0.0486  0.6646  0.3825
 3470TIP3    H131825   6.124   3.638   2.518  0.0049  1.2163  1.2714
 3470TIP3    H231826   5.994   3.578   2.471  1.2694 -0.3481 -0.3012
 3471TIP3   OH231827   0.941   0.359  12.894 -0.5156  0.4240  0.3842
 3471TIP3    H131828   1.005   0.429  12.910  1.3739 -0.7628 -1.7786
 3471TIP3    H231829   0.864   0.405  12.860 -0.0082  1.6476  0.8605
 3472TIP3   OH231830   4.030   0.758  15.833 -0.3540  0.4411 -0.2591
 3472TIP3    H131831   4.087   0.833  15.846 -0.9567  0.6921  1.1021
 3472TIP3    H231832   3.955   0.792  15.784 -1.3125  1.0933  1.5899
 3473TIP3   OH231833   0.764   3.521   4.640  0.0489  0.4673  0.0068
 3473TIP3    H131834   0.829   3.481   4.698  1.2458  2.9713  0.4614
 3473TIP3    H231835   0.803   3.605   4.615 -2.3481  1.3232 -0.9716
 3474TIP3   OH231836   6.063   5.081   2.187  0.2133 -0.0694 -0.2674
 3474TIP3    H131837   6.034   4.990   2.189 -1.4728  0.4654  0.7411
 3474TIP3    H231838   6.157   5.076   2.171  0.3092 -2.0204  0.7715
 3475TIP3   OH231839   6.642   4.112  16.506  0.1588 -0.6453  0.5271
 3475TIP3    H131840   6.646   4.029  16.459 -3.6161 -1.4670  1.4782
 3475TIP3    H231841   6.647   4.087  16.598  0.9846  0.3571  0.7545
 3476TIP3   OH231842   1.441   0.443   2.979 -0.4065 -0.2345  0.2759
 3476TIP3    H131843   1.482   0.382   2.918 -0.6428 -1.9276  1.7639
 3476TIP3    H231844   1.478   0.529   2.956  1.7207 -1.2711 -0.3131
 3477TIP3   OH231845   6.437   0.897   4.941 -0.5660 -0.6798 -0.0703
 3477TIP3    H131846   6.386   0.938   4.871  1.4198 -1.0633 -1.7927
 3477TIP3    H231847   6.468   0.815   4.903  0.2207 -1.0760  1.4067
 3478TIP3   OH231848   5.917   3.683   5.300  0.4820  0.8517  0.2195
 3478TIP3    H131849   5.988   3.675   5.364 -1.9222 -0.1689  2.8626
 3478TIP3    H231850   5.939   3.618   5.233  1.3075 -0.4858  1.7458
 3479TIP3   OH231851   3.300   4.610  16.474  0.0528 -0.2425 -0.4561
 3479TIP3    H131852   3.310   4.524  16.435  0.8912 -0.9575  1.2766
 3479TIP3    H231853   3.215   4.641  16.442 -0.3749 -1.8115 -0.8959
 3480TIP3   OH231854   4.309   3.299  16.436  0.0431 -0.6447  0.0186
 3480TIP3    H131855   4.251   3.265  16.367  1.9706 -1.2411 -1.3329
 3480TIP3    H231856   4.298   3.394  16.431  0.2794 -0.6730 -1.2327
 3481TIP3   OH231857   2.735   3.797  13.680  0.0032  0.6970 -0.0442
 3481TIP3    H131858   2.820   3.761  13.657 -0.4402  1.4743 -3.0746
 3481TIP3    H231859   2.677   3.721  13.686  0.1922  0.4505 -1.2987
 3482TIP3   OH231860   5.496   0.415  12.059  0.0496 -0.0344 -0.2706
 3482TIP3    H131861   5.537   0.330  12.079 -1.9259 -0.7310  0.9137
 3482TIP3    H231862   5.570   0.472  12.037  1.8351 -0.8526  3.2567
 3483TIP3   OH231863   3.467   2.092   0.403 -0.0594  0.3087  0.8898
 3483TIP3    H131864   3.373   2.080   0.392  0.0501 -0.5153  0.8119
 3483TIP3    H231865   3.477   2.183   0.432 -0.7075  1.0387 -1.1198
 3484TIP3   OH231866   6.612   1.899   2.843  0.6181  0.6386 -0.3866
 3484TIP3    H131867   6.524   1.933   2.855  1.0823  1.6277  0.2970
 3484TIP3    H231868   6.600   1.805   2.828 -0.5761  0.8566 -0.8092
 3485TIP3   OH231869   1.651   1.882  16.991  0.2487  0.2509 -0.3178
 3485TIP3    H131870   1.565   1.899  17.030 -0.0211 -2.1658  0.2343
 3485TIP3    H231871   1.636   1.893  16.897  0.1775  3.1170 -0.0272
 3486TIP3   OH231872   6.623   3.219   2.814 -0.4481 -0.4526  0.0143
 3486TIP3    H131873   6.580   3.164   2.880  0.5249 -0.9171  0.2826
 3486TIP3    H231874   6.702   3.170   2.791  0.7440  1.0881  0.6748
 3487TIP3   OH231875   2.904   2.382   2.414 -0.3400  0.1567 -0.4076
 3487TIP3    H131876   2.811   2.399   2.397 -0.9430 -0.4369  2.0565
 3487TIP3    H231877   2.923   2.302   2.366 -1.9212 -1.3858  1.4476
 3488TIP3   OH231878   4.371   0.330   6.477 -0.1127 -0.1553 -0.9477
 3488TIP3    H131879   4.395   0.340   6.569 -0.3849  3.3904 -1.1841
 3488TIP3    H231880   4.296   0.271   6.478 -1.1004  1.0720  1.2781
 3489TIP3   OH231881   6.731   5.490   1.221  0.7773 -0.5375 -0.2518
 3489TIP3    H131882   6.719   5.428   1.292 -0.9555 -1.1154 -1.0253
 3489TIP3    H231883   6.767   5.438   1.149  0.8105 -0.3105 -0.3991
 3490TIP3   OH231884   0.190   2.628  12.705 -0.3415 -0.1591 -0.2564
 3490TIP3    H131885   0.272   2.592  12.672 -1.6701 -4.8664  1.0713
 3490TIP3    H231886   0.210   2.658  12.794  0.1991 -0.3025 -0.3318
 3491TIP3   OH231887   1.095   4.515  12.961 -0.4275  0.1254 -0.7521
 3491TIP3    H131888   1.132   4.521  12.873 -1.3780 -0.3444 -1.1913
 3491TIP3    H231889   1.001   4.530  12.948 -0.4262  1.1453  0.3228
 3492TIP3   OH231890   4.612   4.957   0.062  0.3583 -0.1482 -0.3868
 3492TIP3    H131891   4.647   5.045   0.046 -1.1177  0.6295  0.5859
 3492TIP3    H231892   4.653   4.929   0.144 -0.1447  0.1629 -0.0247
 3493TIP3   OH231893   3.875   3.024   3.713  0.1188  0.7716 -0.2917
 3493TIP3    H131894   3.888   2.954   3.649 -0.6666  0.0087  0.3720
 3493TIP3    H231895   3.932   2.999   3.786 -1.0024  0.2421  0.4023
 3494TIP3   OH231896   6.752   2.978   2.969  0.6855 -0.4164  0.2944
 3494TIP3    H131897   6.731   3.029   3.047 -0.3276  1.3190 -1.0866
 3494TIP3    H231898   6.674   2.925   2.953  1.0831 -1.1459  0.7275
 3495TIP3   OH231899   4.606   5.944   0.322 -0.2438  0.0088 -0.3111
 3495TIP3    H131900   4.531   5.937   0.262 -0.4296  1.2956 -0.2460
 3495TIP3    H231901   4.566   5.950   0.409  0.0129 -1.4398 -0.0898
 3496TIP3   OH231902   2.518   2.240  14.469  0.2712  0.2644 -0.8260
 3496TIP3    H131903   2.455   2.305  14.501  0.1951  0.3144 -1.0779
 3496TIP3    H231904   2.464   2.173  14.428  0.1366 -1.4063  1.9405
 3497TIP3   OH231905   3.377   5.205   2.414  0.0118 -0.0888 -0.0500
 3497TIP3    H131906   3.449   5.212   2.477  0.4955 -1.8970 -0.3716
 3497TIP3    H231907   3.371   5.292   2.374  2.4928 -0.1192 -0.5556
 3498TIP3   OH231908   0.102   2.865   0.464 -0.0709  0.0341 -0.1637
 3498TIP3    H131909   0.156   2.924   0.517  0.5809 -0.4695 -0.2462
 3498TIP3    H231910   0.108   2.900   0.375 -0.0922  0.1362 -0.1240
 3499TIP3   OH231911   0.846   4.686  15.790  0.1559 -0.6029  0.3684
 3499TIP3    H131912   0.873   4.639  15.869  0.4283 -0.1802  0.5296
 3499TIP3    H231913   0.899   4.647  15.720  0.3605 -0.5534  0.4949
 3500TIP3   OH231914   4.311   5.066  11.655 -0.1403 -0.2606  0.3592
 3500TIP3    H131915   4.258   5.124  11.600  0.7409  0.3910  0.1915
 3500TIP3    H231916   4.295   4.978  11.620  1.1282  0.2442 -1.5295
 3501TIP3   OH231917   0.249   2.416  12.154  0.1212 -0.0832  0.2799
 3501TIP3    H131918   0.223   2.459  12.235 -2.0743  0.4282 -0.6802
 3501TIP3    H231919   0.167   2.389  12.113  1.1813 -0.1557 -1.8707
 3502TIP3   OH231920   2.275   2.836   4.020 -0.2833 -0.1046  0.1754
 3502TIP3    H131921   2.230   2.853   4.103  0.0852 -0.5995  0.4851
 3502TIP3    H231922   2.217   2.872   3.953 -0.3016  0.8299  0.6915
 3503TIP3   OH231923   6.050   1.921  17.188  0.7266  0.0412 -0.6654
 3503TIP3    H131924   6.110   1.875  17.129  0.0895 -1.2571 -0.3315
 3503TIP3    H231925   6.098   1.999  17.215  2.0672 -0.6984 -0.8262
 3504TIP3   OH231926   1.622   2.743   2.164  0.3977  0.1506  0.3079
 3504TIP3    H131927   1.557   2.677   2.140  0.9339 -0.4241  0.4360
 3504TIP3    H231928   1.572   2.810   2.211  0.0958 -0.8712  1.4622
 3505TIP3   OH231929   2.097   0.664  11.086 -0.1661  0.3804 -0.0351
 3505TIP3    H131930   2.136   0.582  11.116  1.7501  1.6991  1.1835
 3505TIP3    H231931   2.009   0.662  11.124 -0.9561 -2.0894 -1.8534
 3506TIP3   OH231932   0.908   5.563  12.557  0.0465 -0.8782 -0.7224
 3506TIP3    H131933   0.941   5.479  12.590 -0.1818  0.0577  2.0424
 3506TIP3    H231934   0.986   5.608  12.525  0.1536 -2.1705 -2.3385
 3507TIP3   OH231935   2.169   2.095  16.850  0.5842 -0.5717  0.1840
 3507TIP3    H131936   2.206   2.035  16.915  2.6134 -0.0537 -0.4768
 3507TIP3    H231937   2.089   2.128  16.891  1.9730 -0.0398  2.5210
 3508TIP3   OH231938   3.870   6.233   0.892  0.6006  0.3396 -0.0435
 3508TIP3    H131939   3.894   6.193   0.808 -3.5626 -2.0884 -0.2053
 3508TIP3    H231940   3.825   6.314   0.867  0.8456  0.4788 -0.0419
 3509TIP3   OH231941   6.750   0.998  16.742  0.3276  0.4676  0.3332
 3509TIP3    H131942   6.657   1.017  16.727 -0.3945 -2.2167  1.0696
 3509TIP3    H231943   6.778   0.950  16.664  0.7391  0.1313  0.6860
 3510TIP3   OH231944   4.784   0.590   5.544  0.1147  0.2873 -0.4179
 3510TIP3    H131945   4.705   0.571   5.596 -0.5447  0.7299 -1.2515
 3510TIP3    H231946   4.851   0.534   5.582 -0.2190  1.0125  1.2970
 3511TIP3   OH231947   0.290   6.588   2.256  0.3438  0.0955 -0.1127
 3511TIP3    H131948   0.338   6.523   2.308 -0.3957 -2.5449 -2.6213
 3511TIP3    H231949   0.264   6.655   2.320  1.2012 -1.9895  2.5341
 3512TIP3   OH231950   3.677   4.555  12.877 -0.5341  0.2752 -0.3203
 3512TIP3    H131951   3.591   4.519  12.901 -0.0328  0.0608  1.2299
 3512TIP3    H231952   3.665   4.650  12.881 -0.7969  0.2488 -0.4593
 3513TIP3   OH231953   1.431   6.382  15.208  0.0140  0.3478 -0.1868
 3513TIP3    H131954   1.494   6.435  15.160 -0.3815 -0.4482 -1.6085
 3513TIP3    H231955   1.413   6.308  15.150 -0.1871 -0.8270  1.3464
 3514TIP3   OH231956   6.381   4.931  12.050 -0.3721  0.1017  0.5233
 3514TIP3    H131957   6.420   5.010  12.012 -1.1898  0.4047  0.3074
 3514TIP3    H231958   6.369   4.952  12.143  1.4451 -0.5682  0.9286
 3515TIP3   OH231959   4.867   5.906  15.265  0.0151  0.0635  0.0679
 3515TIP3    H131960   4.947   5.867  15.300 -0.0246 -0.3996 -0.3495
 3515TIP3    H231961   4.830   5.838  15.209 -0.6990  0.2567  0.3012
 3516TIP3   OH231962   3.345   4.521   0.719 -0.5748  0.3153 -0.0767
 3516TIP3    H131963   3.377   4.605   0.752  0.3610 -0.1165  0.1229
 3516TIP3    H231964   3.420   4.482   0.674 -1.0354 -0.3712 -0.2592
 3517TIP3   OH231965   3.053   5.949  11.222  0.1407  0.0406  0.4953
 3517TIP3    H131966   3.041   6.033  11.265  2.1638  0.5021  0.1647
 3517TIP3    H231967   3.018   5.962  11.133  0.3086  0.4650  0.4948
 3518TIP3   OH231968   3.112   5.171   5.592 -0.4280  0.2900 -0.1315
 3518TIP3    H131969   3.092   5.078   5.595 -0.5896  0.2941 -0.8741
 3518TIP3    H231970   3.157   5.190   5.674 -2.2478 -0.0146  0.9522
 3519TIP3   OH231971   3.823   0.915  16.153  0.0705 -0.2222  0.3452
 3519TIP3    H131972   3.858   0.836  16.112 -0.5376 -1.4514  2.1596
 3519TIP3    H231973   3.733   0.921  16.123 -1.0630 -2.3571  3.2213
 3520TIP3   OH231974   0.730   2.601  15.655 -0.0310 -0.4926  0.5650
 3520TIP3    H131975   0.660   2.646  15.606  0.1868  0.0785  0.7655
 3520TIP3    H231976   0.787   2.565  15.588  1.2623  1.8530  0.3642
 3521TIP3   OH231977   2.039   0.108   3.357 -0.2419  0.5572 -0.0174
 3521TIP3    H131978   2.050   0.013   3.366 -0.1676  0.5465 -0.2113
 3521TIP3    H231979   2.116   0.136   3.307  0.7220  0.9857  1.6425
 3522TIP3   OH231980   0.918   2.656  12.035  0.4303 -0.4612 -0.0222
 3522TIP3    H131981   0.910   2.658  11.940 -0.3947  0.8064  0.0713
 3522TIP3    H231982   0.959   2.740  12.057  2.6252 -1.6361  0.5679
 3523TIP3   OH231983   0.988   6.605  12.825 -0.7456 -0.3781  0.8447
 3523TIP3    H131984   0.961   6.616  12.915 -1.4731  1.5210  0.4150
 3523TIP3    H231985   0.921   6.649  12.773  1.3481  1.4324 -0.4268
 3524TIP3   OH231986   2.274   4.641   6.019  0.7414 -0.2430 -0.7813
 3524TIP3    H131987   2.204   4.582   5.991  0.8940 -1.7940  1.9563
 3524TIP3    H231988   2.351   4.612   5.970  0.4981 -1.4635 -0.4575
 3525TIP3   OH231989   3.464   4.603   2.049  0.1446  0.3843 -0.3928
 3525TIP3    H131990   3.540   4.660   2.036  1.4719 -0.6741  2.3444
 3525TIP3    H231991   3.389   4.662   2.041  1.3320  1.9064 -0.7659
 3526TIP3   OH231992   4.187   1.704  14.690  0.5773 -0.4982 -0.1106
 3526TIP3    H131993   4.110   1.662  14.728  0.9132 -0.4864  0.5833
 3526TIP3    H231994   4.236   1.632  14.649  1.1775 -0.8111  1.1174
 3527TIP3   OH231995   5.417   4.338  13.237 -0.1200 -0.0184  0.0172
 3527TIP3    H131996   5.501   4.324  13.192  0.2618 -0.8726  0.9790
 3527TIP3    H231997   5.352   4.297  13.180  0.1686  0.1809 -0.4675
 3528TIP3   OH231998   0.299   0.581  15.116 -0.3006 -0.1254 -0.5589
 3528TIP3    H131999   0.351   0.588  15.196 -0.3632 -1.2928 -0.4069
 3528TIP3    H232000   0.247   0.502  15.128 -1.2062  0.3558 -1.2409
 3529TIP3   OH232001   1.371   3.489  14.399 -1.0188 -0.1299 -0.0439
 3529TIP3    H132002   1.317   3.567  14.386  1.2205  0.9827 -3.2698
 3529TIP3    H232003   1.443   3.519  14.456 -0.4860  0.0079 -0.7869
 3530TIP3   OH232004   3.168   4.632  11.356 -0.0385 -0.1865 -0.4166
 3530TIP3    H132005   3.183   4.620  11.262 -0.0514  1.2528 -0.6077
 3530TIP3    H232006   3.238   4.581  11.398 -1.7738 -3.2558 -1.1423
 3531TIP3   OH232007   2.862   1.128  15.706  0.4065  0.5445 -0.1876
 3531TIP3    H132008   2.813   1.069  15.763  0.9690 -0.7475 -1.0155
 3531TIP3    H232009   2.796   1.183  15.664 -0.1931 -0.0553 -0.0267
 3532TIP3   OH232010   6.497   5.554  12.769 -0.2535 -0.5453  0.1046
 3532TIP3    H132011   6.482   5.640  12.809 -1.0915 -1.9802  2.9803
 3532TIP3    H232012   6.443   5.555  12.690 -0.2175  1.5640  0.0664
 3533TIP3   OH232013   2.960   5.790   2.154  0.1343  0.1415  0.1420
 3533TIP3    H132014   2.922   5.705   2.134 -0.1677  0.4319 -0.5413
 3533TIP3    H232015   2.978   5.829   2.068 -1.4823  1.5527  0.4274
 3534TIP3   OH232016   5.712   0.222  17.099  0.4935  0.6549  0.7106
 3534TIP3    H132017   5.778   0.170  17.053  0.9748  0.9219  1.0913
 3534TIP3    H232018   5.687   0.168  17.174  0.3615  0.6021  0.6285
 3535TIP3   OH232019   5.150   5.904   0.970  0.0610 -0.0377  0.6353
 3535TIP3    H132020   5.063   5.890   1.009 -0.1938  1.1208  0.5102
 3535TIP3    H232021   5.173   5.994   0.996 -0.1976  0.8199 -2.0204
 3536TIP3   OH232022   2.327   5.280   5.013  1.1122  0.1722 -0.7489
 3536TIP3    H132023   2.415   5.259   4.981  1.1069  0.3585 -0.8831
 3536TIP3    H232024   2.333   5.369   5.047  1.3349 -0.3441  0.5838
 3537TIP3   OH232025   3.098   0.690  11.221 -0.0925  0.3513 -0.0005
 3537TIP3    H132026   3.156   0.737  11.280  1.6483 -0.3038 -1.1725
 3537TIP3    H232027   3.103   0.739  11.138 -0.3668 -0.3468 -0.4340
 3538TIP3   OH232028   3.511   5.637  15.824  0.1112  0.5582  0.8897
 3538TIP3    H132029   3.554   5.720  15.840 -2.5410  1.8302  1.7072
 3538TIP3    H232030   3.420   5.660  15.804 -0.7089 -2.1321  1.2504
 3539TIP3   OH232031   2.000   4.872  15.677 -0.2984 -0.1890 -0.2990
 3539TIP3    H132032   2.032   4.813  15.608  1.4885 -1.1117  1.2483
 3539TIP3    H232033   1.920   4.910  15.642 -1.3640 -3.3745 -1.4582
 3540TIP3   OH232034   5.526   3.504   5.699 -0.7702  0.1280 -0.0887
 3540TIP3    H132035   5.492   3.459   5.622 -2.1532 -0.0179  0.5782
 3540TIP3    H232036   5.503   3.595   5.685  1.0995  0.4893 -0.9471
 3541TIP3   OH232037   4.178   6.674  15.049  0.3709  0.4683  0.1237
 3541TIP3    H132038   4.260   6.698  15.007  0.4135  1.9439  0.9767
 3541TIP3    H232039   4.110   6.713  14.993  0.3786  1.4037  0.7439
 3542TIP3   OH232040   0.171   0.399   5.396 -0.1113  0.5136  0.2594
 3542TIP3    H132041   0.233   0.403   5.323 -0.9826  0.1400 -0.5158
 3542TIP3    H232042   0.131   0.485   5.399  1.6295  1.2938  1.8313
 3543TIP3   OH232043   4.620   1.436   0.757  0.4018 -0.3555 -0.4444
 3543TIP3    H132044   4.628   1.356   0.707 -0.5595  0.5846 -2.1425
 3543TIP3    H232045   4.537   1.475   0.728  1.2534  1.6624 -0.2989
 3544TIP3   OH232046   2.947   0.531  16.874  0.1247 -0.3872 -0.0498
 3544TIP3    H132047   2.993   0.459  16.917  0.0948  0.0982  0.8209
 3544TIP3    H232048   2.965   0.520  16.781 -0.4843 -1.9385  0.0006
 3545TIP3   OH232049   5.166   2.339   0.328 -0.0566  0.3476  0.4200
 3545TIP3    H132050   5.145   2.307   0.416 -1.1430  0.6917  0.2994
 3545TIP3    H232051   5.167   2.435   0.338 -0.8126  0.4124 -0.0632
 3546TIP3   OH232052   3.754   2.695  17.195 -0.0423  0.0628 -0.4644
 3546TIP3    H132053   3.704   2.774  17.173  0.2189  0.7991  1.5306
 3546TIP3    H232054   3.845   2.721  17.182 -0.0339 -0.5692 -1.8138
 3547TIP3   OH232055   4.663   3.100  11.541  0.2550  0.0647 -0.3609
 3547TIP3    H132056   4.672   3.147  11.458  0.1600 -1.6272 -1.3540
 3547TIP3    H232057   4.576   3.126  11.572  0.4577  1.0393 -0.5675
 3548TIP3   OH232058   2.321   0.065   5.477  0.3189  0.1667 -0.4108
 3548TIP3    H132059   2.379  -0.003   5.512  0.2915  1.2386  1.7799
 3548TIP3    H232060   2.245   0.016   5.444  0.7632 -0.9422  0.1795
 3549TIP3   OH232061   2.415   4.215  11.952 -0.4941 -0.3188 -0.2399
 3549TIP3    H132062   2.475   4.192  12.023 -0.8486  0.6146  0.3705
 3549TIP3    H232063   2.451   4.296  11.916 -0.0512 -1.0307 -1.4501
 3550TIP3   OH232064   3.486   2.910   1.133 -0.2169 -0.6667 -0.0015
 3550TIP3    H132065   3.567   2.861   1.148 -0.6240 -0.9532  1.2819
 3550TIP3    H232066   3.418   2.844   1.128 -0.5405 -0.3436  0.1081
 3551TIP3   OH232067   0.842   1.116  12.880 -0.9592 -0.6325 -0.6430
 3551TIP3    H132068   0.928   1.147  12.852 -1.6051  1.2927 -0.6118
 3551TIP3    H232069   0.860   1.052  12.948  0.4367  1.2949  0.8721
 3552TIP3   OH232070   4.522   2.514  16.613  0.0332 -0.5556  0.2946
 3552TIP3    H132071   4.520   2.428  16.570 -2.4823  0.3467 -1.5085
 3552TIP3    H232072   4.590   2.561  16.565  0.0986 -0.9103  0.0318
 3553TIP3   OH232073   3.225   0.770   4.125  0.3969 -0.4226 -0.1179
 3553TIP3    H132074   3.143   0.749   4.079  0.2496  0.7803 -0.4004
 3553TIP3    H232075   3.287   0.704   4.093 -0.2220 -0.7951 -0.5746
 3554TIP3   OH232076   4.296   6.783   1.732  0.0212  0.0926 -0.0983
 3554TIP3    H132077   4.372   6.764   1.677 -0.1254 -0.8435  0.0165
 3554TIP3    H232078   4.223   6.739   1.687  0.1050 -1.7622  1.4835
 3555TIP3   OH232079   3.122   2.356  13.253  0.1310  0.0552 -0.0080
 3555TIP3    H132080   3.130   2.452  13.249  0.9093  0.0340  0.8415
 3555TIP3    H232081   3.190   2.324  13.194  0.3267  0.0185  0.2359
 3556TIP3   OH232082   0.943   1.987  12.804  0.2178 -0.5255  0.2090
 3556TIP3    H132083   0.978   2.048  12.869  0.0213 -1.1398  0.8806
 3556TIP3    H232084   0.882   2.040  12.753  0.6455  0.0482  0.2806
 3557TIP3   OH232085   5.088   3.652   1.952 -0.2722  0.2078  0.7080
 3557TIP3    H132086   5.034   3.574   1.968 -1.3684  0.6764 -0.5672
 3557TIP3    H232087   5.028   3.713   1.910  0.2695  2.1861  2.7142
 3558TIP3   OH232088   3.289   1.401   6.075 -0.3891 -0.5667  0.1415
 3558TIP3    H132089   3.212   1.349   6.051 -1.0745 -0.0216  1.1169
 3558TIP3    H232090   3.266   1.439   6.160  0.4284  0.6742 -0.1855
 3559TIP3   OH232091   3.605   4.810  12.913 -0.0534 -0.0183  0.3356
 3559TIP3    H132092   3.543   4.858  12.858 -0.2131  1.0661  1.4417
 3559TIP3    H232093   3.635   4.874  12.978 -1.2706 -1.6977  2.6478
 3560TIP3   OH232094   3.864   5.928   4.680  0.6964  0.5251  0.1954
 3560TIP3    H132095   3.774   5.909   4.655  1.2465  2.1727 -3.3178
 3560TIP3    H232096   3.859   6.009   4.730  0.3676  1.7426 -1.7341
 3561TIP3   OH232097   6.782   3.797   5.426  0.2041 -0.6622  0.5686
 3561TIP3    H132098   6.765   3.720   5.480 -3.1018 -2.8021 -3.2098
 3561TIP3    H232099   6.715   3.860   5.452  1.7383  0.2550  2.3623
 3562TIP3   OH232100   0.235   6.170   0.466 -0.1407  0.0579  0.2016
 3562TIP3    H132101   0.309   6.226   0.443  0.3380 -1.1082 -1.2082
 3562TIP3    H232102   0.269   6.113   0.535 -0.6165  1.4339  1.6081
 3563TIP3   OH232103   0.330   3.077  13.348 -0.0073 -0.0272  0.1507
 3563TIP3    H132104   0.267   3.080  13.421  0.2547 -0.3988  0.3955
 3563TIP3    H232105   0.386   3.002  13.369  0.0619 -0.1404 -0.4407
 3564TIP3   OH232106   2.799   5.566  15.670  0.1824  0.0058 -0.2938
 3564TIP3    H132107   2.714   5.547  15.630  1.3299 -0.2730 -2.6848
 3564TIP3    H232108   2.863   5.534  15.606  2.0969 -1.0930  2.1063
 3565TIP3   OH232109   4.767   6.677   3.417 -0.2783  0.1207  0.2727
 3565TIP3    H132110   4.794   6.738   3.486  0.4984 -2.1221  2.0335
 3565TIP3    H232111   4.691   6.631   3.455 -0.8015 -0.0667 -0.9814
 3566TIP3   OH232112   6.377   5.661  12.093 -0.1647 -0.1836  0.9235
 3566TIP3    H132113   6.440   5.597  12.127 -0.9746 -0.3573  2.1318
 3566TIP3    H232114   6.297   5.643  12.142 -1.6325 -1.0134 -1.6671
 3567TIP3   OH232115   5.870   2.273  15.567  0.4425  0.2167  0.3278
 3567TIP3    H132116   5.918   2.325  15.503 -1.2677  1.3045 -0.0884
 3567TIP3    H232117   5.827   2.205  15.515  0.4389  0.0593  0.5356
 3568TIP3   OH232118   0.453   2.870  13.483  0.2329 -0.0792 -0.1944
 3568TIP3    H132119   0.477   2.778  13.474  1.3312  0.1718  0.1533
 3568TIP3    H232120   0.395   2.873  13.559  0.9552 -0.3449  0.3660
 3569TIP3   OH232121   6.604   5.734   3.167  0.2003  0.0519  0.5753
 3569TIP3    H132122   6.604   5.699   3.078  0.6416  2.0542 -0.2439
 3569TIP3    H232123   6.670   5.804   3.166 -0.1016  0.4037  2.3463
 3570TIP3   OH232124   5.975   1.999   0.716 -0.5252 -0.5415  0.1207
 3570TIP3    H132125   5.899   1.972   0.769 -0.7557 -1.3403 -0.6084
 3570TIP3    H232126   5.995   1.923   0.662  0.1271  0.0400 -0.4678
 3571TIP3   OH232127   2.547   2.604  11.742  0.1660 -0.3856 -0.2534
 3571TIP3    H132128   2.604   2.637  11.812 -0.3325  1.2852 -0.6089
 3571TIP3    H232129   2.552   2.671  11.674 -2.2588 -0.1886 -0.2660
 3572TIP3   OH232130   1.714   4.195   6.118 -0.2799  0.2803 -0.0001
 3572TIP3    H132131   1.652   4.160   6.054  0.3521 -1.0725  0.1117
 3572TIP3    H232132   1.747   4.275   6.077  0.9265 -1.1285 -1.8744
 3573TIP3   OH232133   4.877   3.361  16.578  0.5409  0.1195 -0.4801
 3573TIP3    H132134   4.788   3.363  16.613  0.9389 -0.6613  0.6409
 3573TIP3    H232135   4.869   3.313  16.496 -0.4040  1.9064 -1.4542
 3574TIP3   OH232136   6.225   6.552  16.429  0.1243  0.2833  0.0736
 3574TIP3    H132137   6.179   6.487  16.376  1.2654 -0.7102  0.2797
 3574TIP3    H232138   6.174   6.633  16.418 -2.8284 -1.2748  1.9053
 3575TIP3   OH232139   5.398   2.123   4.612  0.0583  0.3597  0.0569
 3575TIP3    H132140   5.386   2.031   4.637 -0.0854  0.7194  1.3048
 3575TIP3    H232141   5.324   2.169   4.651 -0.1666  0.9404 -1.0194
 3576TIP3   OH232142   0.791   6.782  11.143 -0.1912  0.0747  0.5443
 3576TIP3    H132143   0.729   6.710  11.148  0.9826 -1.1155 -1.5293
 3576TIP3    H232144   0.869   6.749  11.187  0.5415 -0.1447 -0.8977
 3577TIP3   OH232145   5.972   2.741  13.329 -0.1957  0.1085 -0.2715
 3577TIP3    H132146   5.933   2.826  13.350  0.0181  0.5340 -1.5844
 3577TIP3    H232147   6.064   2.761  13.312  0.4396 -0.7642  1.9146
 3578TIP3   OH232148   0.192   6.391   0.082  0.7722 -0.0488  0.8096
 3578TIP3    H132149   0.141   6.322   0.039  1.6500  1.1052 -2.2587
 3578TIP3    H232150   0.155   6.473   0.048  4.4515  0.8196 -1.4327
 3579TIP3   OH232151   4.571   4.632   1.986  0.1489 -0.2597 -0.0755
 3579TIP3    H132152   4.633   4.571   1.946 -0.2241  0.4964 -1.8369
 3579TIP3    H232153   4.613   4.659   2.068  0.1885 -3.1065  0.8912
 3580TIP3   OH232154   1.512   4.850  16.764 -0.1844 -0.2211  0.1428
 3580TIP3    H132155   1.523   4.816  16.675 -1.3588  1.8292 -0.8093
 3580TIP3    H232156   1.544   4.939  16.760 -1.3085  0.2603  1.4895
 3581TIP3   OH232157   1.711   3.372  11.679  0.2320 -0.0833 -0.0861
 3581TIP3    H132158   1.792   3.410  11.647  0.5058  0.0321  0.7355
 3581TIP3    H232159   1.695   3.297  11.622  0.6198  0.2248 -0.5985
 3582TIP3   OH232160   0.876   3.311   3.494 -0.7564  0.0775  0.2006
 3582TIP3    H132161   0.945   3.370   3.463 -0.2755 -0.5638  0.0451
 3582TIP3    H232162   0.920   3.227   3.506 -1.0729  0.1533  2.0116
 3583TIP3   OH232163   0.931   1.904  15.691  0.3424  0.4237  0.1318
 3583TIP3    H132164   1.019   1.911  15.653  0.1426  0.6614 -0.2943
 3583TIP3    H232165   0.901   1.994  15.698  1.3770  0.5687  3.2669
 3584TIP3   OH232166   5.284   2.964  16.547  0.4018  0.0151 -0.0488
 3584TIP3    H132167   5.324   3.002  16.468  1.0638 -0.4196  0.0675
 3584TIP3    H232168   5.359   2.942  16.602 -0.0345 -0.3527  0.3922
 3585TIP3   OH232169   4.158   1.256  12.538  0.2827  0.1222 -0.0475
 3585TIP3    H132170   4.091   1.218  12.595 -0.3244  0.7049 -0.3654
 3585TIP3    H232171   4.216   1.304  12.597 -0.0816  0.3413  0.1353
 3586TIP3   OH232172   6.775   0.926  14.235  0.3674 -0.0274 -0.0532
 3586TIP3    H132173   6.728   0.846  14.260 -2.0362  0.8699 -1.5010
 3586TIP3    H232174   6.713   0.996  14.252  0.1601  1.0022 -4.3608
 3587TIP3   OH232175   1.418   1.595   3.455 -0.2188 -0.2730  0.4416
 3587TIP3    H132176   1.445   1.611   3.546 -0.8583  0.2928  0.5389
 3587TIP3    H232177   1.485   1.537   3.420 -0.3958 -1.1441  1.5223
 3588TIP3   OH232178   2.338   2.371   3.730  0.6480  0.9527  0.0061
 3588TIP3    H132179   2.349   2.318   3.809  1.7231 -0.4673 -1.0726
 3588TIP3    H232180   2.359   2.460   3.759  3.2672  0.1349  0.8460
 3589TIP3   OH232181   0.262   2.962  13.120 -0.2412 -0.2107  0.3501
 3589TIP3    H132182   0.166   2.958  13.121 -0.4107  2.9540  0.9089
 3589TIP3    H232183   0.284   3.019  13.194  1.8412  2.9621 -2.6233
 3590TIP3   OH232184   3.197   6.196   3.772 -0.0799 -0.6838 -0.5429
 3590TIP3    H132185   3.128   6.141   3.735 -0.2505  0.2759 -1.6569
 3590TIP3    H232186   3.251   6.221   3.697  0.8237 -0.4794  0.1598
 3591TIP3   OH232187   0.670   4.889   2.792 -0.6293 -0.1107  0.4100
 3591TIP3    H132188   0.655   4.869   2.884 -0.5389 -1.3337  0.1697
 3591TIP3    H232189   0.658   4.984   2.785  0.4121  0.1342  1.8734
 3592TIP3   OH232190   2.357   2.459  12.755  0.0875  0.3803  0.3146
 3592TIP3    H132191   2.282   2.500  12.712 -1.2854 -0.5455  1.7904
 3592TIP3    H232192   2.402   2.412  12.684 -1.7400 -0.5323 -0.2728
 3593TIP3   OH232193   5.561   5.934  16.655  0.2092 -0.6911  0.1154
 3593TIP3    H132194   5.544   6.026  16.674 -0.5610 -1.2491  2.3486
 3593TIP3    H232195   5.642   5.934  16.605 -0.7706  1.3175 -1.5444
 3594TIP3   OH232196   6.549   6.201   4.965 -0.0943  0.3103 -0.5405
 3594TIP3    H132197   6.456   6.189   4.983  0.4598  0.5804  2.8307
 3594TIP3    H232198   6.575   6.120   4.921 -1.6233 -0.4218 -0.1519
 3595TIP3   OH232199   3.168   3.134  12.312  0.7672  0.2962  0.2628
 3595TIP3    H132200   3.134   3.094  12.392  0.8239 -0.4420 -0.0775
 3595TIP3    H232201   3.163   3.065  12.247 -0.6792  1.3124 -0.7456
 3596TIP3   OH232202   6.664   5.175  13.157 -0.0869 -0.1272 -0.3493
 3596TIP3    H132203   6.709   5.253  13.124 -0.8968  0.0076 -1.1816
 3596TIP3    H232204   6.614   5.143  13.081 -1.2404 -0.3680  0.4976
 3597TIP3   OH232205   1.375   2.663   1.426 -0.2777  0.3300 -0.2055
 3597TIP3    H132206   1.409   2.717   1.498  1.1862  1.8074 -1.9462
 3597TIP3    H232207   1.429   2.585   1.427 -0.5276  0.1588  0.5428
 3598TIP3   OH232208   4.282   5.698   1.252 -0.2052 -0.4580 -0.2036
 3598TIP3    H132209   4.193   5.665   1.264 -0.0219 -1.7343 -2.1195
 3598TIP3    H232210   4.277   5.790   1.278 -1.5549 -1.0511  1.7857
 3599TIP3   OH232211   1.135   4.292   4.709  0.5417 -0.3261 -0.4978
 3599TIP3    H132212   1.156   4.376   4.749 -2.5648  0.0649  0.4568
 3599TIP3    H232213   1.128   4.231   4.783 -0.6559 -0.6347 -0.8455
 3600TIP3   OH232214   3.132   2.870  14.017 -0.8407 -0.1220 -0.0495
 3600TIP3    H132215   3.191   2.945  14.012  0.9841 -1.5749 -1.5943
 3600TIP3    H232216   3.092   2.876  14.103  0.4356  1.7580  0.4412
 3601TIP3   OH232217   4.003   6.746   4.640 -0.0908  0.1485  0.2342
 3601TIP3    H132218   4.094   6.750   4.610  0.5136  0.3664  2.0801
 3601TIP3    H232219   3.994   6.659   4.678 -0.3603  0.5224  1.0203
 3602TIP3   OH232220   2.553   2.978   0.191 -0.6265 -0.7625 -0.2595
 3602TIP3    H132221   2.476   2.938   0.148  0.3921 -2.6397 -0.4082
 3602TIP3    H232222   2.626   2.924   0.162  0.7757  1.0711 -0.1873
 3603TIP3   OH232223   6.551   0.411   0.090 -0.6398 -0.8000  0.0609
 3603TIP3    H132224   6.457   0.393   0.087 -0.5712 -0.9450 -1.4915
 3603TIP3    H232225   6.558   0.506   0.091 -0.8132 -0.7929  0.4546
 3604TIP3   OH232226   0.327   1.307   3.277 -0.2926  0.3621 -0.1188
 3604TIP3    H132227   0.420   1.287   3.279  0.1065  2.1141 -0.3871
 3604TIP3    H232228   0.289   1.251   3.345  0.9529 -0.3171  0.0293
 3605TIP3   OH232229   4.460   2.601   2.831 -0.5386 -0.0592  0.8992
 3605TIP3    H132230   4.482   2.689   2.801 -0.5669 -0.3651 -0.0453
 3605TIP3    H232231   4.533   2.575   2.887  1.8435 -1.2631 -2.5896
 3606TIP3   OH232232   0.421   1.401  11.221 -0.1027 -0.5449 -0.2205
 3606TIP3    H132233   0.419   1.424  11.128 -1.4940 -0.2483 -0.1255
 3606TIP3    H232234   0.481   1.326  11.226 -2.4159 -2.5900 -1.8157
 3607TIP3   OH232235   0.345   2.707  13.236 -0.0525 -0.3631  0.3159
 3607TIP3    H132236   0.374   2.798  13.244  0.0298 -0.4513  1.0538
 3607TIP3    H232237   0.384   2.663  13.312 -1.1776 -0.7368  0.6768
 3608TIP3   OH232238   5.845   1.083   2.596  0.4483  0.2344 -0.3797
 3608TIP3    H132239   5.895   1.080   2.678 -1.2615 -0.4873  0.6669
 3608TIP3    H232240   5.783   1.011   2.603  0.3204  0.1255 -2.3607
 3609TIP3   OH232241   5.269   5.850   2.524  0.1775 -0.2034  0.0216
 3609TIP3    H132242   5.349   5.801   2.543  0.2833 -0.3535 -0.8118
 3609TIP3    H232243   5.234   5.810   2.444 -0.1297  0.5924 -0.2509
 3610TIP3   OH232244   1.930   3.612  15.507 -0.3510 -0.4491  0.4239
 3610TIP3    H132245   1.874   3.573  15.439 -1.6896  1.9221  0.0795
 3610TIP3    H232246   1.868   3.645  15.572  0.8145 -0.3464  1.4901
 3611TIP3   OH232247   2.542   4.630   3.680 -0.2463 -0.3615 -0.5900
 3611TIP3    H132248   2.527   4.689   3.753 -0.0254 -0.8640 -0.1306
 3611TIP3    H232249   2.466   4.571   3.680  0.4940 -1.3259  0.1850
 3612TIP3   OH232250   0.291   2.400   1.468 -0.6778  0.1307 -0.2642
 3612TIP3    H132251   0.281   2.396   1.563  0.2336 -0.9179 -0.2043
 3612TIP3    H232252   0.336   2.318   1.445  0.3947  1.0271 -1.4221
 3613TIP3   OH232253   1.788   6.017  12.578 -0.2261  0.3111 -0.0514
 3613TIP3    H132254   1.761   6.101  12.615 -1.1856  0.0752 -0.2171
 3613TIP3    H232255   1.860   6.040  12.519  0.3523  0.8599  0.8508
 3614TIP3   OH232256   4.900   2.292  12.658 -0.2301  0.2648  0.3921
 3614TIP3    H132257   4.976   2.299  12.715 -0.5023  1.1942  0.6513
 3614TIP3    H232258   4.828   2.268  12.716 -0.1798 -0.4083  0.1807
 3615TIP3   OH232259   4.700   4.535   5.240  0.8107  0.1041 -0.3912
 3615TIP3    H132260   4.757   4.501   5.309  1.3277  2.5981  0.4873
 3615TIP3    H232261   4.648   4.603   5.284 -1.0927 -0.4471 -1.7516
 3616TIP3   OH232262   5.383   4.199   1.901  0.0262  0.4436 -0.1055
 3616TIP3    H132263   5.446   4.147   1.952 -1.0029  0.2879  1.0190
 3616TIP3    H232264   5.408   4.289   1.919  0.3829  0.3739 -0.2385
 3617TIP3   OH232265   4.484   4.038  12.654  0.0902 -0.2821  0.1861
 3617TIP3    H132266   4.563   4.051  12.601  0.4261 -0.5867  0.6054
 3617TIP3    H232267   4.497   4.093  12.731  0.1899 -0.8298  0.5637
 3618TIP3   OH232268   4.278   5.465   4.077  0.7403  0.0517  0.3266
 3618TIP3    H132269   4.313   5.402   4.140  0.7130  1.2544  1.5459
 3618TIP3    H232270   4.349   5.526   4.061  0.0862  0.9425  0.7682
 3619TIP3   OH232271   0.218   0.711  11.342 -0.3300  0.0599 -0.5015
 3619TIP3    H132272   0.159   0.767  11.291 -0.6686  0.4401  0.2974
 3619TIP3    H232273   0.284   0.771  11.376 -0.8389  0.0226  0.5719
 3620TIP3   OH232274   6.577   2.262  15.275  0.0257  0.4928  0.2115
 3620TIP3    H132275   6.663   2.248  15.236  0.0423  1.0373  0.0551
 3620TIP3    H232276   6.528   2.311  15.209 -0.3712  0.2762  0.3407
 3621TIP3   OH232277   0.100   3.305   5.070  0.6034  0.4840 -0.3491
 3621TIP3    H132278   0.113   3.380   5.012  1.1245  1.6865  1.2798
 3621TIP3    H232279   0.067   3.236   5.013 -2.6021  2.8040 -1.4522
 3622TIP3   OH232280   0.274   6.323  11.926  0.3797  0.4245 -0.2577
 3622TIP3    H132281   0.181   6.310  11.908  0.2681  1.0940 -0.1602
 3622TIP3    H232282   0.276   6.378  12.004  0.8532  1.1175 -0.7513
 3623TIP3   OH232283   1.673   5.184   0.455  0.1749 -0.3301  0.4925
 3623TIP3    H132284   1.704   5.100   0.491  1.5990 -0.2820 -0.5822
 3623TIP3    H232285   1.692   5.248   0.523  2.0313 -0.3829  0.0441
 3624TIP3   OH232286   3.880   4.920  12.876 -0.5858  0.1615  0.6342
 3624TIP3    H132287   3.788   4.900  12.862 -0.4997 -0.5515  1.0553
 3624TIP3    H232288   3.899   4.991  12.815 -1.8256  1.4316  1.6990
 3625TIP3   OH232289   6.335   5.882   1.846  0.0494 -0.0135 -0.0155
 3625TIP3    H132290   6.311   5.950   1.783  0.5002  0.1916  0.0299
 3625TIP3    H232291   6.422   5.909   1.878  0.8031 -1.3004 -0.9730
 3626TIP3   OH232292   1.945   4.996   0.161 -0.4288 -0.7996 -0.5202
 3626TIP3    H132293   2.009   5.062   0.134 -0.6809 -0.3695 -0.0520
 3626TIP3    H232294   1.869   5.013   0.106 -1.4998  1.0275  1.4613
 3627TIP3   OH232295   0.829   1.900  16.633 -0.3867 -0.5436  0.4127
 3627TIP3    H132296   0.756   1.839  16.644 -2.2504  1.0498 -2.6957
 3627TIP3    H232297   0.790   1.987  16.640  1.6214  0.3398  1.0364
 3628TIP3   OH232298   3.017   1.885  12.196 -0.5128  0.6804  0.2110
 3628TIP3    H132299   2.979   1.863  12.111 -2.0321 -1.7697  1.4452
 3628TIP3    H232300   3.100   1.837  12.199 -0.0231  1.4958 -0.2423
 3629TIP3   OH232301   2.894   4.256  15.856 -0.4216  0.0369  0.1967
 3629TIP3    H132302   2.891   4.215  15.769 -0.2876 -0.7398  0.5536
 3629TIP3    H232303   2.810   4.300  15.865 -0.8669 -0.7820  0.1026
 3630TIP3   OH232304   2.034   6.592  15.269 -0.3742  0.3288  0.0962
 3630TIP3    H132305   2.014   6.499  15.264 -2.1494  0.6216  1.1741
 3630TIP3    H232306   1.951   6.636  15.248  0.4005  1.6586 -0.2725
 3631TIP3   OH232307   4.789   0.656   4.734  0.0367 -0.1920  0.3728
 3631TIP3    H132308   4.769   0.735   4.685 -2.2885  0.0770  1.6867
 3631TIP3    H232309   4.800   0.588   4.667 -1.4623  0.5067 -0.5926
 3632TIP3   OH232310   3.489   3.571   5.456  0.1070  0.3989 -0.0242
 3632TIP3    H132311   3.430   3.610   5.390 -0.6835 -1.1509 -0.2648
 3632TIP3    H232312   3.525   3.646   5.503 -1.5423  1.4169 -0.3318
 3633TIP3   OH232313   3.834   5.210   3.448 -0.3529  0.1052 -0.1943
 3633TIP3    H132314   3.881   5.142   3.399 -0.1324  0.6483 -0.7463
 3633TIP3    H232315   3.883   5.218   3.530 -0.6487 -0.7203  0.0656
 3634TIP3   OH232316   0.865   0.748  12.386  0.8041 -0.1130 -0.0302
 3634TIP3    H132317   0.826   0.668  12.422  2.4693 -1.1064 -0.3790
 3634TIP3    H232318   0.885   0.726  12.295 -3.4986  2.4266 -1.7569
 3635TIP3   OH232319   4.134   5.298   5.150  0.5727 -0.4461  0.2268
 3635TIP3    H132320   4.100   5.332   5.233  1.0499  0.4073  0.0703
 3635TIP3    H232321   4.111   5.205   5.152  2.0332 -0.7940  2.0531
 3636TIP3   OH232322   0.494   0.294  12.820 -0.8404  0.2576  0.1880
 3636TIP3    H132323   0.469   0.341  12.899  0.3413  0.0593  0.6884
 3636TIP3    H232324   0.421   0.307  12.760 -1.6816  0.5298  1.2613
 3637TIP3   OH232325   2.339   3.359   1.860  0.0729 -0.5619  0.1570
 3637TIP3    H132326   2.403   3.307   1.812  0.0139  0.3137 -0.8962
 3637TIP3    H232327   2.275   3.386   1.794  0.2024  0.9834  0.6395
 3638TIP3   OH232328   6.004   1.211  12.745  0.0201  0.6900 -0.1240
 3638TIP3    H132329   5.998   1.262  12.665 -0.2669 -2.0578 -1.9129
 3638TIP3    H232330   5.913   1.194  12.770  0.1154  0.5480  0.1322
 3639TIP3   OH232331   1.700   0.137  13.696 -0.2839 -0.5268  0.0493
 3639TIP3    H132332   1.629   0.093  13.648 -0.5298 -1.6617  1.3971
 3639TIP3    H232333   1.763   0.163  13.629 -0.8418 -1.6592 -0.9256
 3640TIP3   OH232334   4.242   3.382  13.342 -0.2320  0.7600  0.0339
 3640TIP3    H132335   4.265   3.471  13.316  1.8221 -0.5937 -3.1937
 3640TIP3    H232336   4.177   3.354  13.277  1.1147 -0.9585 -0.6207
 3641TIP3   OH232337   3.622   4.644   0.046  0.4072 -0.1214  0.0985
 3641TIP3    H132338   3.668   4.573   0.092  1.9713  0.3165 -0.7747
 3641TIP3    H232339   3.671   4.656  -0.035 -2.5610 -1.1527 -1.9364
 3642TIP3   OH232340   2.165   5.267  13.660  0.1875  1.0653 -0.0312
 3642TIP3    H132341   2.147   5.219  13.741  0.4987 -1.2320 -1.2747
 3642TIP3    H232342   2.252   5.237  13.633  1.2064  3.7431  0.0951
 3643TIP3   OH232343   2.222   3.246  11.735  0.1767  0.4278 -0.0931
 3643TIP3    H132344   2.309   3.208  11.720 -0.6639 -1.6378  0.1116
 3643TIP3    H232345   2.194   3.210  11.819 -2.6339 -2.3663 -2.1069
 3644TIP3   OH232346   4.109   2.925   5.820  0.0754 -0.1443  0.2177
 3644TIP3    H132347   4.115   2.982   5.897 -1.4970 -0.3236  0.4946
 3644TIP3    H232348   4.025   2.948   5.780  0.5932 -0.4953 -1.1065
 3645TIP3   OH232349   0.047   3.067  15.948 -0.7440  0.5842  0.1273
 3645TIP3    H132350   0.013   3.128  15.883 -2.2011 -1.1049 -0.7497
 3645TIP3    H232351  -0.023   3.003  15.960  1.8617 -2.6923 -1.3524
 3646TIP3   OH232352   5.094   6.109  10.713 -0.6827 -0.4338  0.7511
 3646TIP3    H132353   5.029   6.071  10.655 -0.1477  0.4497 -0.4588
 3646TIP3    H232354   5.066   6.200  10.724  1.1136  0.3835 -1.0035
 3647TIP3   OH232355   1.653   1.491   3.500 -0.3147  0.3572  0.3348
 3647TIP3    H132356   1.658   1.470   3.593  2.0978  2.7909  0.8215
 3647TIP3    H232357   1.742   1.481   3.468 -0.6391  1.9094 -1.1541
 3648TIP3   OH232358   6.584   5.943   5.427  0.5277 -0.1050 -0.0902
 3648TIP3    H132359   6.584   6.017   5.365 -1.7962  0.2052  0.2517
 3648TIP3    H232360   6.506   5.893   5.404  0.0067 -0.3452  2.1588
 3649TIP3   OH232361   5.566   6.227   0.368 -0.0076  1.1766 -0.2933
 3649TIP3    H132362   5.498   6.169   0.403  0.3651  1.7624  1.4202
 3649TIP3    H232363   5.645   6.203   0.416  0.3908  2.3535 -0.3532
 3650TIP3   OH232364   4.694   1.345  12.961  0.2276  0.1457  0.1614
 3650TIP3    H132365   4.613   1.305  12.993 -0.9005  0.9376 -1.5855
 3650TIP3    H232366   4.763   1.282  12.982 -1.2619 -1.9308 -0.9729
 3651TIP3   OH232367   0.645   0.252   2.201  0.0274 -0.3999 -0.6603
 3651TIP3    H132368   0.579   0.214   2.259 -0.0517 -0.0659 -0.5269
 3651TIP3    H232369   0.725   0.203   2.220 -0.1910 -0.8360 -0.8532
 3652TIP3   OH232370   1.753   3.622   4.697  0.0555 -0.3367  0.0088
 3652TIP3    H132371   1.731   3.582   4.613 -0.5195 -1.5215  0.7193
 3652TIP3    H232372   1.848   3.632   4.694  0.1078 -0.9334 -0.5465
 3653TIP3   OH232373   6.618   4.395   1.226 -0.5909 -0.2171 -0.0334
 3653TIP3    H132374   6.637   4.480   1.186 -1.6678  0.3076  0.5706
 3653TIP3    H232375   6.684   4.387   1.296  0.3128 -0.4545 -0.8940
 3654TIP3   OH232376   5.589   0.904   2.610 -0.0812 -0.1172 -0.2904
 3654TIP3    H132377   5.567   0.827   2.663  0.4522 -0.7222 -0.9257
 3654TIP3    H232378   5.505   0.947   2.593 -0.1768  0.4771  1.6216
 3655TIP3   OH232379   1.249   4.376  15.198  0.4198  0.1575 -0.0803
 3655TIP3    H132380   1.175   4.435  15.185 -0.1430 -0.2244  1.3042
 3655TIP3    H232381   1.325   4.434  15.206 -0.2436  0.7767  2.1216
 3656TIP3   OH232382   5.732   5.562   4.617  0.0443  0.1191  0.1530
 3656TIP3    H132383   5.640   5.539   4.632  0.1274  1.8054  3.8678
 3656TIP3    H232384   5.780   5.481   4.631 -0.7359 -0.3428  0.1681
 3657TIP3   OH232385   6.121   6.139   3.645 -0.1475 -0.2655 -0.2476
 3657TIP3    H132386   6.173   6.059   3.641 -1.3119 -1.0003 -1.0542
 3657TIP3    H232387   6.051   6.118   3.707  0.5138  0.7211  0.8473
 3658TIP3   OH232388   3.394   5.457   3.892  0.3829  0.3660  0.2508
 3658TIP3    H132389   3.421   5.366   3.900  0.6804  0.4443  0.1426
 3658TIP3    H232390   3.321   5.456   3.830 -0.1944  0.0913  0.9182
 3659TIP3   OH232391   4.823   6.310   4.903  0.3782  0.0284  0.2456
 3659TIP3    H132392   4.852   6.221   4.925  1.7621  0.5185  0.4345
 3659TIP3    H232393   4.865   6.365   4.968 -2.8014  0.5436  1.9433
 3660TIP3   OH232394   4.193   6.187   2.683 -0.3272  0.4880 -0.5273
 3660TIP3    H132395   4.101   6.214   2.690  0.0307  1.5364  0.3053
 3660TIP3    H232396   4.211   6.143   2.766 -1.2889 -3.6818 -2.3798
 3661TIP3   OH232397   1.784   4.856   2.627 -0.5459 -1.3496 -0.0400
 3661TIP3    H132398   1.781   4.802   2.548 -0.4630 -0.0089 -0.9645
 3661TIP3    H232399   1.698   4.896   2.632 -0.6743 -1.7095  0.7627
 3662TIP3   OH232400   0.296   6.731  16.474  0.0457  0.3094 -0.0619
 3662TIP3    H132401   0.253   6.815  16.490 -0.7313 -0.2275  0.6871
 3662TIP3    H232402   0.379   6.736  16.522 -0.7483  0.0168  1.3791
 3663TIP3   OH232403   5.161   6.733  13.256 -0.2545  0.2447  0.2373
 3663TIP3    H132404   5.252   6.757  13.272 -0.0998  0.0794 -0.3695
 3663TIP3    H232405   5.165   6.640  13.232 -0.5684  0.2698  0.0872
 3664TIP3   OH232406   1.259   2.369  12.288 -0.0604  0.4119 -0.0045
 3664TIP3    H132407   1.262   2.280  12.321  1.7536  0.7223  0.7569
 3664TIP3    H232408   1.170   2.381  12.256  0.1419 -2.2152 -1.6527
 3665TIP3   OH232409   5.973   1.225   1.550 -0.0211  0.3234  0.4053
 3665TIP3    H132410   6.035   1.152   1.544 -1.7964 -1.0834 -1.6996
 3665TIP3    H232411   6.001   1.286   1.482 -1.1722 -0.5259 -0.8540
 3666TIP3   OH232412   6.291   6.608  13.724 -0.5887 -0.3579  0.1963
 3666TIP3    H132413   6.292   6.613  13.820  0.4510 -2.3526  0.3320
 3666TIP3    H232414   6.202   6.583  13.703 -0.3043 -1.9549  0.8051
 3667TIP3   OH232415   3.957   2.299  14.322 -0.4435 -0.2745  0.9506
 3667TIP3    H132416   3.927   2.264  14.238 -0.5529 -1.7233  1.5826
 3667TIP3    H232417   4.014   2.372  14.299 -0.4813 -0.6639 -0.3774
 3668TIP3   OH232418   6.567   3.554   0.595  0.2377  0.8419 -0.2078
 3668TIP3    H132419   6.649   3.517   0.564 -0.0976 -0.9534  0.9476
 3668TIP3    H232420   6.535   3.608   0.522  1.9274  0.7534 -1.0275
 3669TIP3   OH232421   3.022   0.780  16.505  0.6373 -0.0533  0.4245
 3669TIP3    H132422   3.104   0.740  16.477  0.5740  0.3675 -0.3601
 3669TIP3    H232423   2.978   0.804  16.424 -0.8555 -1.4471  0.8041
 3670TIP3   OH232424   5.623   4.896  11.775 -0.3732 -0.0915 -0.2188
 3670TIP3    H132425   5.706   4.849  11.766 -1.0329 -1.1444 -0.9294
 3670TIP3    H232426   5.559   4.840  11.731 -1.4577  0.7289  0.2949
 3671TIP3   OH232427   5.013   5.341  11.695  0.3678  0.2525 -0.3683
 3671TIP3    H132428   5.083   5.316  11.635 -0.7944 -0.4678 -1.4338
 3671TIP3    H232429   5.009   5.269  11.759  0.6730  0.3555 -0.2307
 3672TIP3   OH232430   2.021   2.674   6.040 -0.2427 -0.3473  0.5479
 3672TIP3    H132431   2.038   2.713   5.954 -0.5377 -1.8857 -0.2277
 3672TIP3    H232432   1.994   2.747   6.095  1.3809  0.8870 -0.2724
 3673TIP3   OH232433   2.549   1.989   5.255 -0.2781  0.0513  0.5494
 3673TIP3    H132434   2.620   2.044   5.223 -0.5344  0.6250  0.9716
 3673TIP3    H232435   2.576   1.962   5.343 -0.2970 -0.2426  0.4667
 3674TIP3   OH232436   3.208   3.003  11.701 -0.2535  0.5062 -0.8526
 3674TIP3    H132437   3.175   3.084  11.739  0.7521  1.4306 -1.8667
 3674TIP3    H232438   3.162   2.933  11.747 -2.1700  1.6926 -0.9307
 3675TIP3   OH232439   3.804   3.225  11.945 -0.6742  0.0528  0.5539
 3675TIP3    H132440   3.828   3.293  11.881 -0.0600 -0.2402  0.4700
 3675TIP3    H232441   3.761   3.273  12.016 -0.4876  0.4985  0.3698
 3676TIP3   OH232442   6.611   0.691  12.026  0.1089 -0.1109  0.0687
 3676TIP3    H132443   6.682   0.716  11.967 -1.7664  0.2765 -2.0895
 3676TIP3    H232444   6.631   0.737  12.108  1.9201  0.6115 -0.7502
 3677TIP3   OH232445   2.519   4.566   2.009 -0.4628  0.0869 -0.1758
 3677TIP3    H132446   2.439   4.521   1.982 -0.7115  0.6754 -0.4409
 3677TIP3    H232447   2.491   4.623   2.081 -0.1106 -0.3347  0.2970
 3678TIP3   OH232448   0.822   5.136  14.217  0.2780 -0.3025  0.8601
 3678TIP3    H132449   0.799   5.093  14.134 -1.0035 -0.7558  1.4388
 3678TIP3    H232450   0.910   5.103  14.237  0.1278 -1.0774  0.2639
 3679TIP3   OH232451   0.021   3.394   0.498  0.0401  0.0327  1.0441
 3679TIP3    H132452   0.112   3.367   0.486  0.0949  0.8201 -0.4173
 3679TIP3    H232453  -0.029   3.338   0.439 -0.0566  1.7632 -0.5543
 3680TIP3   OH232454   0.374   0.121   1.895 -0.0112  0.6688 -0.2524
 3680TIP3    H132455   0.353   0.049   1.836 -0.3058  1.2630 -0.8730
 3680TIP3    H232456   0.291   0.164   1.911  0.0360  0.4151  0.7388
 3681TIP3   OH232457   3.927   6.449  13.455 -0.2908  0.1979  0.0612
 3681TIP3    H132458   3.836   6.457  13.427  0.0473 -0.8350 -1.3588
 3681TIP3    H232459   3.933   6.363  13.497 -0.1578  0.6187  0.9313
 3682TIP3   OH232460   5.804   3.147   1.759  0.1612  0.3153  0.4213
 3682TIP3    H132461   5.831   3.229   1.719 -1.5057 -0.0388 -1.4870
 3682TIP3    H232462   5.748   3.172   1.832 -0.2969  0.8784 -0.1237
 3683TIP3   OH232463   4.133   6.391   1.270 -0.0676 -0.4833  0.2139
 3683TIP3    H132464   4.096   6.312   1.230  0.0367 -1.4333  1.9356
 3683TIP3    H232465   4.060   6.430   1.317  0.0911 -0.0127  0.0692
 3684TIP3   OH232466   2.166   5.136  11.845  0.0997 -0.3578  0.0170
 3684TIP3    H132467   2.114   5.208  11.810  0.1650 -0.9070 -1.2334
 3684TIP3    H232468   2.123   5.057  11.812  2.1371 -0.8146 -1.6231
 3685TIP3   OH232469   4.017   5.357  17.050 -0.2465  0.3934 -0.2689
 3685TIP3    H132470   4.107   5.388  17.060  0.1667 -0.4760 -1.1321
 3685TIP3    H232471   4.015   5.317  16.963 -0.6995 -2.0749  0.8216
 3686TIP3   OH232472   5.488   4.402   0.001  0.1685  0.1678  0.3960
 3686TIP3    H132473   5.490   4.341   0.074 -3.3360  2.5408  2.6226
 3686TIP3    H232474   5.396   4.428  -0.006  1.0575  2.8373 -2.4540
 3687TIP3   OH232475   6.075   1.357  15.852 -0.2740  0.2552  0.0394
 3687TIP3    H132476   6.133   1.395  15.787  0.2918 -1.2817 -0.3914
 3687TIP3    H232477   6.133   1.324  15.920 -0.7619  0.3920  0.5291
 3688TIP3   OH232478   2.797   6.189  16.659  0.2734 -0.1473 -0.0053
 3688TIP3    H132479   2.743   6.173  16.582 -0.7277  0.0865  0.6432
 3688TIP3    H232480   2.794   6.107  16.708 -1.7874  0.7493  1.4278
 3689TIP3   OH232481   6.734   4.732   4.939  0.0133  0.1610 -0.1003
 3689TIP3    H132482   6.778   4.784   4.872 -0.1180 -0.7354 -0.8862
 3689TIP3    H232483   6.801   4.718   5.006  0.4482  0.1891 -0.5283
 3690TIP3   OH232484   6.751   5.234   2.263 -0.2302 -0.1778 -0.1091
 3690TIP3    H132485   6.842   5.256   2.242  0.3060 -0.6806  1.6528
 3690TIP3    H232486   6.756   5.188   2.346 -2.0530 -0.7268 -0.2930
 3691TIP3   OH232487   1.095   0.942   0.781  0.0684 -0.4549 -0.3883
 3691TIP3    H132488   1.030   0.970   0.846  1.4974 -0.4127  1.0609
 3691TIP3    H232489   1.082   0.848   0.774 -0.6749 -0.3351 -0.7079
 3692TIP3   OH232490   3.537   6.665   1.943 -0.4519  0.0806  0.1444
 3692TIP3    H132491   3.455   6.699   1.906 -1.2552 -2.7039 -0.7107
 3692TIP3    H232492   3.597   6.661   1.868  0.2565  1.3462  0.6170
 3693TIP3   OH232493   2.049   4.569  16.679  0.1345 -0.0692  0.2939
 3693TIP3    H132494   2.141   4.574  16.652  0.5494 -0.7686  1.5528
 3693TIP3    H232495   2.037   4.641  16.740  0.4146 -1.2393  1.7512
 3694TIP3   OH232496   2.402   5.281  13.049  0.6085  0.0531  0.4235
 3694TIP3    H132497   2.371   5.371  13.049 -0.1686 -0.2066 -0.8201
 3694TIP3    H232498   2.417   5.260  13.141 -0.9746  0.8384  0.8633
 3695TIP3   OH232499   1.735   0.275  14.978  0.2512 -0.5087  0.7114
 3695TIP3    H132500   1.698   0.260  15.065 -1.3337 -0.0061  0.1262
 3695TIP3    H232501   1.803   0.341  14.993 -1.2745  0.9656  1.2904
 3696TIP3   OH232502   3.486   3.781  12.841  0.0096 -0.0193  0.7474
 3696TIP3    H132503   3.444   3.852  12.890  0.9969  1.5503 -0.6208
 3696TIP3    H232504   3.494   3.816  12.752  1.7385 -1.3474  0.3713
 3697TIP3   OH232505   0.506   0.361  15.089 -0.2417  0.1099  0.2216
 3697TIP3    H132506   0.479   0.287  15.143  1.0973 -0.2638  0.4144
 3697TIP3    H232507   0.529   0.430  15.151  1.2517 -0.3041  0.1651
 3698TIP3   OH232508   1.531   3.274   5.283  0.0677  0.0947 -0.3163
 3698TIP3    H132509   1.539   3.369   5.283  0.5629  0.0513 -0.2702
 3698TIP3    H232510   1.605   3.243   5.232  0.0654 -0.2796 -0.0962
 3699TIP3   OH232511   3.748   5.437  16.582 -0.2116 -0.4008  0.4062
 3699TIP3    H132512   3.712   5.503  16.523  1.2997 -0.4958 -0.6426
 3699TIP3    H232513   3.701   5.356  16.559  0.7773 -0.5770 -1.1208
 3700TIP3   OH232514   2.150   4.045   0.414 -0.3116 -0.1722 -0.0264
 3700TIP3    H132515   2.232   4.014   0.375 -0.4363  0.9650 -1.2212
 3700TIP3    H232516   2.083   3.988   0.376 -0.2140 -0.2905 -0.0204
 3701TIP3   OH232517   4.283   6.068  14.738  0.2267 -0.5694  0.7924
 3701TIP3    H132518   4.224   6.089  14.666  1.6228 -0.1880 -0.2488
 3701TIP3    H232519   4.241   6.106  14.815  0.0383  1.3479 -0.2201
 3702TIP3   OH232520   1.574   2.274  12.664  0.3751 -0.7790 -0.2133
 3702TIP3    H132521   1.516   2.249  12.592 -1.1188  1.7055  0.0548
 3702TIP3    H232522   1.555   2.210  12.733 -1.4354 -0.5670 -0.4666
 3703TIP3   OH232523   1.004   5.029   6.014  0.0342 -0.2352  0.3198
 3703TIP3    H132524   0.966   5.084   6.082  0.5845 -1.0018  1.2691
 3703TIP3    H232525   0.935   5.019   5.949 -0.2328  1.1550  0.3833
 3704TIP3   OH232526   1.686   4.912  16.332 -0.2464 -0.0372  0.1325
 3704TIP3    H132527   1.624   4.842  16.314 -2.7580  2.4132 -1.0560
 3704TIP3    H232528   1.748   4.874  16.394 -3.0975 -2.4547  1.6051
 3705TIP3   OH232529   3.979   5.315   5.694  0.1655  0.2480  0.2756
 3705TIP3    H132530   3.988   5.241   5.754 -0.4989 -0.3788 -0.3870
 3705TIP3    H232531   3.898   5.359   5.722  0.0642  0.1832  0.0833
 3706TIP3   OH232532   2.704   1.428   1.113 -0.0447  0.2696 -0.7355
 3706TIP3    H132533   2.798   1.418   1.125 -0.2308 -1.2554 -0.3693
 3706TIP3    H232534   2.668   1.342   1.134 -1.6035  1.0541 -0.0700
 3707TIP3   OH232535   0.629   2.289  13.898 -0.4940 -0.0064 -1.1687
 3707TIP3    H132536   0.700   2.226  13.889 -0.6002 -0.3124  0.0201
 3707TIP3    H232537   0.643   2.330  13.983 -0.0626  2.0594 -2.1813
 3708TIP3   OH232538   1.516   3.985   5.593 -0.5586  0.2073 -0.1537
 3708TIP3    H132539   1.609   4.004   5.586 -0.4595 -0.4915 -0.8792
 3708TIP3    H232540   1.485   3.983   5.502 -0.7823 -1.9134 -0.0601
 3709TIP3   OH232541   6.046   1.253   5.051  0.5412  0.0569  0.0655
 3709TIP3    H132542   6.061   1.182   4.989  0.5979  1.3009 -1.3850
 3709TIP3    H232543   5.950   1.260   5.056  0.5096 -1.2159  1.5130
 3710TIP3   OH232544   4.340   5.911   5.665  0.7121  0.2268 -0.3162
 3710TIP3    H132545   4.404   5.962   5.715 -1.0875 -1.0222  3.4715
 3710TIP3    H232546   4.387   5.832   5.639  1.5931  0.7396 -0.2930
 3711TIP3   OH232547   4.976   5.153  14.720  0.3220 -0.1192  0.2064
 3711TIP3    H132548   4.897   5.193  14.756  0.5606  0.8337 -0.2909
 3711TIP3    H232549   4.950   5.124  14.632  0.8844  1.5244 -0.5414
 3712TIP3   OH232550   6.170   2.989  16.975 -0.5586  0.2161 -0.3994
 3712TIP3    H132551   6.101   2.937  17.016  1.2653 -2.2950 -0.4187
 3712TIP3    H232552   6.155   2.981  16.881 -2.9277  3.4765 -0.3705
 3713TIP3   OH232553   5.346   1.053  12.385 -0.7244 -0.4733  0.4656
 3713TIP3    H132554   5.270   1.100  12.351 -0.6689 -0.7690 -0.0771
 3713TIP3    H232555   5.364   1.094  12.469 -0.8169  0.3167  0.1027
 3714TIP3   OH232556   6.519   0.331  11.509 -0.1084 -0.1869  0.1654
 3714TIP3    H132557   6.468   0.295  11.437 -1.6490 -0.0661  1.1894
 3714TIP3    H232558   6.577   0.259  11.536  2.1743  0.4936 -2.7013
 3715TIP3   OH232559   6.277   3.987   6.167  0.2248  0.2057  0.3682
 3715TIP3    H132560   6.204   4.047   6.184  0.7393  0.5936  1.2468
 3715TIP3    H232561   6.285   3.936   6.248  1.3021  0.5755  0.4971
 3716TIP3   OH232562   2.770   5.374  16.379 -0.5132 -0.2860  0.8820
 3716TIP3    H132563   2.856   5.352  16.342 -0.6610  0.3235  0.1771
 3716TIP3    H232564   2.782   5.364  16.473  0.0260 -1.2872  0.7172
 3717TIP3   OH232565   5.356   3.051  14.014 -0.5049  0.2960 -0.0549
 3717TIP3    H132566   5.371   2.958  13.997  0.9227  0.7451 -1.3927
 3717TIP3    H232567   5.314   3.054  14.100 -1.0635 -1.6076 -0.2515
 3718TIP3   OH232568   4.877   0.233  15.004 -0.4548 -0.3579  0.0197
 3718TIP3    H132569   4.958   0.265  15.044 -0.0591  0.1587 -1.1795
 3718TIP3    H232570   4.864   0.146  15.043  0.5876 -0.3832  0.3295
 3719TIP3   OH232571   5.482   0.666  13.068 -0.0544 -0.1479 -0.5184
 3719TIP3    H132572   5.400   0.698  13.105  0.2293 -1.0721  0.9696
 3719TIP3    H232573   5.530   0.746  13.042 -0.9020  0.4411 -0.2830
 3720TIP3   OH232574   1.319   3.527   5.007 -0.3801  0.1217 -0.0293
 3720TIP3    H132575   1.363   3.602   4.968  3.1309 -0.1594  3.1360
 3720TIP3    H232576   1.318   3.461   4.937  0.1942  1.7194 -1.5663
 3721TIP3   OH232577   1.488   6.261   4.449  0.1607  0.1086 -0.3227
 3721TIP3    H132578   1.413   6.289   4.397 -0.5818 -0.5054  0.3971
 3721TIP3    H232579   1.518   6.340   4.493  1.0697  0.7223 -2.0000
 3722TIP3   OH232580   6.461   5.617   4.038 -0.3037  0.5897  0.1699
 3722TIP3    H132581   6.461   5.529   4.002 -0.1993  0.1112  1.3228
 3722TIP3    H232582   6.414   5.609   4.122 -0.1757  1.5975  0.3452
 3723TIP3   OH232583   4.990   5.400   4.595 -0.3598  0.1112  0.2808
 3723TIP3    H132584   4.940   5.409   4.676 -1.2871 -0.2300 -0.2328
 3723TIP3    H232585   4.942   5.333   4.546  1.5634 -1.4219  0.4666
 3724TIP3   OH232586   6.530   2.716  11.713 -0.0334 -0.3232 -0.2144
 3724TIP3    H132587   6.518   2.791  11.772  0.5784 -0.7883  0.5090
 3724TIP3    H232588   6.614   2.734  11.669  0.2009 -0.6843  0.0944
 3725TIP3   OH232589   4.766   1.996  16.607 -0.4003 -0.6992 -0.3935
 3725TIP3    H132590   4.814   2.023  16.528 -1.2270 -0.3573 -0.7843
 3725TIP3    H232591   4.713   2.072  16.630  0.2733 -0.6026  0.8372
 3726TIP3   OH232592   4.311   0.257  13.305 -0.5210  0.3865  0.4416
 3726TIP3    H132593   4.367   0.314  13.358  0.5457 -0.0137 -0.2423
 3726TIP3    H232594   4.291   0.310  13.228 -0.3141  0.1843  0.2504
 3727TIP3   OH232595   1.903   5.288   3.798 -0.7720  0.0559 -0.2339
 3727TIP3    H132596   1.812   5.304   3.824 -0.8869 -2.0949  0.7783
 3727TIP3    H232597   1.946   5.258   3.878  0.5792  0.0918 -0.9388
 3728TIP3   OH232598   6.230   6.244   4.551  0.0190  0.1722  0.1628
 3728TIP3    H132599   6.215   6.247   4.456 -1.2275  0.6964  0.3643
 3728TIP3    H232600   6.200   6.156   4.577 -0.7225  0.4473  0.2437
 3729TIP3   OH232601   2.183   1.581   5.811 -0.5334 -0.4937  0.0692
 3729TIP3    H132602   2.141   1.572   5.725 -1.4513 -0.0087  0.4648
 3729TIP3    H232603   2.252   1.514   5.810 -0.2410 -0.2019 -1.2154
 3730TIP3   OH232604   1.805   0.801   0.523  0.2156 -0.2693 -0.7975
 3730TIP3    H132605   1.771   0.761   0.443 -1.6447 -0.8989  0.2698
 3730TIP3    H232606   1.731   0.848   0.560  0.7656 -0.7979  1.0584
 3731TIP3   OH232607   4.382   5.275  11.293 -0.0755 -0.0666 -0.0700
 3731TIP3    H132608   4.354   5.284  11.202 -1.6628  1.3620  0.5366
 3731TIP3    H232609   4.399   5.181  11.303  0.0750 -0.2475 -1.8167
 3732TIP3   OH232610   4.467   3.579   1.675 -0.8576  0.3388  0.1193
 3732TIP3    H132611   4.503   3.524   1.605 -0.0870 -0.0509  0.8254
 3732TIP3    H232612   4.450   3.663   1.632  0.6944  0.4646 -0.2767
 3733TIP3   OH232613   6.592   1.697   3.617  0.4637  0.0929  0.0250
 3733TIP3    H132614   6.597   1.639   3.542  0.9492 -1.0010  0.8871
 3733TIP3    H232615   6.570   1.782   3.580  1.3767 -0.2803 -1.4097
 3734TIP3   OH232616   0.560   2.660   1.440  0.3307  0.1082  0.7502
 3734TIP3    H132617   0.519   2.658   1.526 -0.6187  0.9807  0.3256
 3734TIP3    H232618   0.489   2.644   1.378  1.4386 -3.0988  0.2274
 3735TIP3   OH232619   5.774   3.953   4.700 -0.0039  0.6113  0.1842
 3735TIP3    H132620   5.737   3.890   4.638  0.5690  0.6393 -0.1916
 3735TIP3    H232621   5.723   4.033   4.687 -1.0883  0.0719  1.0403
 3736TIP3   OH232622   1.102   2.242  11.980 -0.3651 -0.2749 -0.6641
 3736TIP3    H132623   1.074   2.293  11.905  0.3815  0.4196 -0.4796
 3736TIP3    H232624   1.048   2.273  12.053 -0.0094  0.1446 -0.5819
 3737TIP3   OH232625   2.080   2.328  16.576  0.1060 -0.3079  0.2722
 3737TIP3    H132626   2.101   2.421  16.584 -0.1315 -0.3439  1.3804
 3737TIP3    H232627   2.110   2.289  16.658 -1.1184 -0.9529  0.4317
 3738TIP3   OH232628   5.705   4.381  14.889 -0.3405  0.1214 -0.2777
 3738TIP3    H132629   5.784   4.384  14.836 -1.5188 -2.0609 -2.2496
 3738TIP3    H232630   5.727   4.324  14.963  0.3558  0.6971 -0.0340
 3739TIP3   OH232631   2.046   1.965  15.492 -0.2018  0.5681 -0.2648
 3739TIP3    H132632   2.085   1.898  15.548 -1.4987 -0.1540 -0.1819
 3739TIP3    H232633   2.075   2.048  15.530  2.1379  0.0664 -0.8857
 3740TIP3   OH232634   3.819   4.017  12.602 -0.0826 -0.1647  0.1104
 3740TIP3    H132635   3.841   4.013  12.695 -0.6708 -1.1383  0.2077
 3740TIP3    H232636   3.896   3.981  12.558  0.3887  0.7328  0.1834
 3741TIP3   OH232637   5.199   1.681   5.583 -0.9078 -0.1993  0.3729
 3741TIP3    H132638   5.282   1.649   5.619  0.2786 -0.1411 -2.2063
 3741TIP3    H232639   5.186   1.766   5.625 -0.5195 -0.9348  2.0257
 3742TIP3   OH232640   2.458   1.722  15.792 -0.4383  0.1240  0.1500
 3742TIP3    H132641   2.412   1.702  15.873 -0.1206  0.5079  0.4262
 3742TIP3    H232642   2.502   1.805  15.810  1.2756 -0.7919  0.2522
 3743TIP3   OH232643   2.820   2.609   4.135  0.2052  0.0990 -0.7036
 3743TIP3    H132644   2.740   2.660   4.147 -0.1865 -0.1330 -2.2944
 3743TIP3    H232645   2.887   2.675   4.117  0.6635  0.3988  1.8368
 3744TIP3   OH232646   1.565   5.607   0.223  0.7033  0.4461 -0.3577
 3744TIP3    H132647   1.634   5.586   0.285 -0.3864 -2.3087  0.0100
 3744TIP3    H232648   1.610   5.641   0.145  2.3221  0.1503  0.4496
 3745TIP3   OH232649   5.496   0.392  13.445  0.2686 -0.3393 -0.6289
 3745TIP3    H132650   5.566   0.350  13.396  0.6671 -1.4133  0.8368
 3745TIP3    H232651   5.540   0.459  13.497  0.4354 -1.9338  1.3451
 3746TIP3   OH232652   4.598   5.414   3.148 -0.3440  0.0543  0.0964
 3746TIP3    H132653   4.689   5.420   3.120  1.6463 -1.2696  5.5030
 3746TIP3    H232654   4.568   5.329   3.115  0.5755  0.2406 -1.2304
 3747TIP3   OH232655   2.817   3.059  14.327 -0.0258  0.4825  0.4663
 3747TIP3    H132656   2.887   3.088  14.385  1.0377  0.3084 -0.7015
 3747TIP3    H232657   2.792   3.138  14.279  1.4406 -0.0560 -1.2360
 3748TIP3   OH232658   3.941   2.145  16.742 -0.4771 -0.4530  0.3213
 3748TIP3    H132659   4.005   2.089  16.698 -2.0219 -0.8313 -1.5062
 3748TIP3    H232660   3.975   2.234  16.730  1.7777 -0.9075  2.8902
 3749TIP3   OH232661   3.879   2.043   0.852  0.1304  0.2687  0.3185
 3749TIP3    H132662   3.830   1.964   0.874  2.2009 -0.5921  1.9743
 3749TIP3    H232663   3.932   2.018   0.776 -0.7451  0.7313 -0.4705
 3750TIP3   OH232664   3.179   4.011   2.437 -0.1750 -0.1960  0.2341
 3750TIP3    H132665   3.173   3.933   2.491  3.7323  0.8481  2.4033
 3750TIP3    H232666   3.236   3.986   2.364  1.1459  0.5829  0.9731
 3751TIP3   OH232667   3.302   6.707  15.127  0.0020 -0.6807  0.1975
 3751TIP3    H132668   3.302   6.726  15.033 -0.1077 -1.5757  0.0117
 3751TIP3    H232669   3.234   6.641  15.138  0.7371 -1.3651  0.7335
 3752TIP3   OH232670   5.236   6.581  15.382 -0.4001 -1.1545  0.2133
 3752TIP3    H132671   5.211   6.499  15.423  0.6477 -2.3653 -1.4871
 3752TIP3    H232672   5.261   6.557  15.293  3.2532  0.4908  0.7160
 3753TIP3   OH232673   6.363   0.841  13.790 -0.3404  0.1382  0.5464
 3753TIP3    H132674   6.448   0.866  13.754 -0.9151  0.2707 -0.7422
 3753TIP3    H232675   6.384   0.774  13.855  0.6391 -0.7753 -0.6922
 3754TIP3   OH232676   5.853   1.333  14.164  0.3633 -0.2373 -0.4037
 3754TIP3    H132677   5.801   1.339  14.245 -0.8657 -0.8527 -1.1393
 3754TIP3    H232678   5.868   1.424  14.139  1.0342 -0.0303  0.6869
 3755TIP3   OH232679   0.526   5.156   5.437 -0.0631  0.3598 -0.5366
 3755TIP3    H132680   0.517   5.247   5.463  2.2379  0.8245 -1.3486
 3755TIP3    H232681   0.586   5.118   5.501  1.7285  0.2865 -2.2487
 3756TIP3   OH232682   1.731   3.325   2.828 -0.0564  0.5070 -0.6591
 3756TIP3    H132683   1.718   3.392   2.761 -2.9921 -0.1929 -0.8663
 3756TIP3    H232684   1.803   3.272   2.794  0.6046  2.0391 -1.7135
 3757TIP3   OH232685   1.078   0.525   5.646 -0.9334 -0.2760 -0.1227
 3757TIP3    H132686   1.086   0.430   5.638  2.2214  0.0016 -0.9524
 3757TIP3    H232687   1.004   0.548   5.590  0.6900 -1.8891 -3.0731
 3758TIP3   OH232688   4.274   0.528  14.099  0.4471  0.2619  0.0833
 3758TIP3    H132689   4.255   0.499  14.010  0.8361  2.1335 -0.6288
 3758TIP3    H232690   4.338   0.465  14.132 -1.2588 -1.6477 -0.2105
 3759TIP3   OH232691   0.415   5.223   5.192 -0.9355  0.1588  0.4649
 3759TIP3    H132692   0.472   5.228   5.268 -0.5725  0.8813  0.1495
 3759TIP3    H232693   0.372   5.309   5.188 -4.0696 -1.2187  2.2462
 3760TIP3   OH232694   6.399   2.481  14.177 -0.1653 -0.1647 -0.5129
 3760TIP3    H132695   6.494   2.471  14.175 -0.0202  0.6528  0.9700
 3760TIP3    H232696   6.385   2.576  14.171 -0.8709 -0.2605 -0.4182
 3761TIP3   OH232697   5.952   3.291   2.952  0.0171 -0.4802  0.4174
 3761TIP3    H132698   5.924   3.354   2.886  0.9467 -1.9302 -1.4102
 3761TIP3    H232699   5.872   3.266   2.998 -0.8467 -0.4610 -1.0598
 3762TIP3   OH232700   1.889   0.793  10.662  0.1664 -0.2077 -0.1763
 3762TIP3    H132701   1.856   0.709  10.630 -0.9613  0.8785 -1.9962
 3762TIP3    H232702   1.886   0.850  10.585  1.3643  1.3723  0.9158
 3763TIP3   OH232703   1.558   3.411   4.454  0.1047  0.2583 -0.2252
 3763TIP3    H132704   1.551   3.502   4.425 -0.7249  0.1251 -0.4373
 3763TIP3    H232705   1.626   3.373   4.396 -0.4262  0.4162 -0.9570
 3764TIP3   OH232706   3.968   4.759  11.895 -0.0760  0.0136  1.1220
 3764TIP3    H132707   3.963   4.672  11.855 -2.4771  1.7188 -2.6107
 3764TIP3    H232708   4.058   4.786  11.880  0.3340 -1.2999  1.1244
 3765TIP3   OH232709   2.704   1.763   5.125  0.1151  0.2787  0.0986
 3765TIP3    H132710   2.729   1.817   5.050 -1.8646 -0.7507 -1.3322
 3765TIP3    H232711   2.786   1.749   5.173  0.8479  3.7700  0.0233
 3766TIP3   OH232712   5.413   2.656  12.532 -0.0512 -0.4037 -0.2451
 3766TIP3    H132713   5.346   2.612  12.479  0.9477 -1.9877 -0.2240
 3766TIP3    H232714   5.490   2.660  12.475  1.0778 -2.2530  1.0829
 3767TIP3   OH232715   1.023   6.617   6.126  0.0767 -0.1157 -0.2511
 3767TIP3    H132716   0.957   6.555   6.096  1.0569 -1.1957 -0.2353
 3767TIP3    H232717   0.974   6.687   6.167 -0.9628 -2.2037  2.2121
 3768TIP3   OH232718   1.324   1.292   4.909  0.0515 -0.0037  0.4010
 3768TIP3    H132719   1.404   1.245   4.886  0.5289  0.4888  1.0430
 3768TIP3    H232720   1.331   1.307   5.003 -1.7114 -1.6942  0.8552
 3769TIP3   OH232721   3.856   0.528  15.230  0.7126  0.4584 -0.6644
 3769TIP3    H132722   3.791   0.508  15.298 -0.8421 -0.8263 -2.4663
 3769TIP3    H232723   3.831   0.614  15.198  0.7387  0.5588 -0.4207
 3770TIP3   OH232724   4.534   2.498  14.386 -0.6164  0.5630  1.1787
 3770TIP3    H132725   4.490   2.431  14.333  0.2200  0.4273  0.6485
 3770TIP3    H232726   4.483   2.578  14.371  0.8362  1.0383 -1.5053
 3771TIP3   OH232727   1.834   6.384   5.859  0.2508 -0.4093  0.3790
 3771TIP3    H132728   1.837   6.433   5.941  0.3030 -0.2624  0.2891
 3771TIP3    H232729   1.923   6.390   5.825  0.8941 -2.5928  1.5609
 3772TIP3   OH232730   4.878   3.310   3.095  0.4884  0.6050  0.0431
 3772TIP3    H132731   4.792   3.286   3.131  0.6658 -0.3726 -0.1652
 3772TIP3    H232732   4.921   3.226   3.078  1.5820  1.0828  0.3692
 3773TIP3   OH232733   4.964   6.235  16.314  0.0066  0.1018  0.0409
 3773TIP3    H132734   4.907   6.296  16.268  0.1505 -0.4943 -0.9292
 3773TIP3    H232735   4.907   6.164  16.342  0.5788 -1.4345 -2.5791
 3774TIP3   OH232736   6.675   3.968  15.321 -0.0474 -0.2351  0.1248
 3774TIP3    H132737   6.706   3.998  15.236 -1.1034  1.0264  0.1671
 3774TIP3    H232738   6.704   3.877  15.327 -1.6700 -0.9524 -2.4195
 3775TIP3   OH232739   0.049   3.817   1.300 -0.1848  0.5859  0.5218
 3775TIP3    H132740   0.096   3.883   1.351  0.5177  0.8257 -0.4140
 3775TIP3    H232741  -0.011   3.777   1.362 -0.3043  1.8015  1.2155
 3776TIP3   OH232742   0.735   2.510  12.257 -0.4684  0.0241  0.5781
 3776TIP3    H132743   0.767   2.600  12.254  0.6571 -0.3914  0.0977
 3776TIP3    H232744   0.711   2.491  12.166  1.4327 -0.9296  0.2650
 3777TIP3   OH232745   4.343   1.972  12.191  0.1213 -0.2558 -0.1624
 3777TIP3    H132746   4.280   2.035  12.224 -1.4375 -1.3565 -0.9444
 3777TIP3    H232747   4.349   1.991  12.097  0.7734 -0.3141 -0.1355
 3778TIP3   OH232748   1.478   1.214  13.125  0.4791  0.1636  0.1793
 3778TIP3    H132749   1.487   1.202  13.220 -1.5774  2.0328  0.6831
 3778TIP3    H232750   1.431   1.297  13.117 -0.4454 -0.5719 -2.4512
 3779TIP3   OH232751   0.403   5.583  14.707 -0.0118  0.7819 -0.0451
 3779TIP3    H132752   0.448   5.549  14.784  0.1275  1.3144  0.1158
 3779TIP3    H232753   0.364   5.665  14.737 -0.7801  0.5067 -0.2830
 3780TIP3   OH232754   4.299   2.639  14.486  0.2523  0.2600 -0.0389
 3780TIP3    H132755   4.309   2.567  14.549  0.5416 -1.3671 -1.8790
 3780TIP3    H232756   4.225   2.689  14.518  1.3220  0.3646  2.4212
 3781TIP3   OH232757   2.776   0.406  13.541 -0.1509  0.4766 -0.4030
 3781TIP3    H132758   2.869   0.428  13.542 -0.1207  0.5112 -2.0555
 3781TIP3    H232759   2.735   0.475  13.489 -1.2319  0.9190  1.0069
 3782TIP3   OH232760   5.094   4.455   3.835  0.1847  0.5752  0.2354
 3782TIP3    H132761   5.097   4.424   3.926  0.4964 -1.0229 -0.2944
 3782TIP3    H232762   5.064   4.378   3.785  1.9053  0.8493 -1.2559
 3783TIP3   OH232763   6.586   5.164   0.662 -0.1318 -0.5085 -0.1434
 3783TIP3    H132764   6.557   5.164   0.753 -0.4037 -1.4836 -0.2283
 3783TIP3    H232765   6.529   5.101   0.618  1.9037 -2.2672 -0.3527
 3784TIP3   OH232766   1.368   0.520  11.255 -0.6473 -0.3916  0.6817
 3784TIP3    H132767   1.314   0.597  11.268 -1.7188 -1.3443  1.9440
 3784TIP3    H232768   1.356   0.497  11.162 -1.0797  0.3792  0.5477
 3785TIP3   OH232769   4.935   6.242   3.387  0.0920  0.0658 -0.1542
 3785TIP3    H132770   5.027   6.239   3.361  0.2482 -0.2566  0.4415
 3785TIP3    H232771   4.918   6.156   3.427 -0.4748  0.1108 -0.2902
 3786TIP3   OH232772   3.130   0.070   4.778  0.2619  0.0073 -0.2996
 3786TIP3    H132773   3.151   0.021   4.858  0.6390  0.7541  0.0686
 3786TIP3    H232774   3.154   0.011   4.707 -0.5460 -0.8608  0.1395
 3787TIP3   OH232775   4.137   5.514  13.695 -0.7077 -0.5234  0.3643
 3787TIP3    H132776   4.052   5.484  13.726 -1.5792  0.2932 -1.1941
 3787TIP3    H232777   4.160   5.454  13.624  0.5178 -1.3782  1.4481
 3788TIP3   OH232778   2.329   1.485   3.747  0.3659 -0.5714 -0.8751
 3788TIP3    H132779   2.408   1.459   3.699  0.5048 -0.8272 -0.5115
 3788TIP3    H232780   2.297   1.403   3.786  0.4224 -0.3160 -0.2872
 3789TIP3   OH232781   5.736   2.756   1.035 -0.0526  0.1137  0.1891
 3789TIP3    H132782   5.825   2.745   1.003 -0.0978  0.3406 -0.0123
 3789TIP3    H232783   5.702   2.667   1.041 -0.0584  0.0712 -0.4324
 3790TIP3   OH232784   2.081   1.403  10.757 -0.6896  0.2503 -0.5157
 3790TIP3    H132785   2.019   1.332  10.771 -1.4776  1.2390  1.3523
 3790TIP3    H232786   2.167   1.365  10.776 -1.1440 -0.1299  0.8664
 3791TIP3   OH232787   6.079   3.172   5.487  0.1078  0.1097 -0.5702
 3791TIP3    H132788   6.048   3.240   5.427 -1.3536 -0.5686 -0.6129
 3791TIP3    H232789   6.115   3.219   5.562 -0.5927  0.9289 -0.7486
 3792TIP3   OH232790   4.283   4.807  11.581 -0.2518  0.6213 -0.5871
 3792TIP3    H132791   4.205   4.752  11.575 -0.2377  0.3108  1.8183
 3792TIP3    H232792   4.352   4.754  11.542 -0.5472 -0.4369  0.3206
 3793TIP3   OH232793   3.014   5.643  16.323 -1.1308  0.0408  0.3004
 3793TIP3    H132794   3.017   5.575  16.256  1.6369 -0.8919  1.3057
 3793TIP3    H232795   2.968   5.603  16.396 -1.0719 -0.1329  0.2406
 3794TIP3   OH232796   0.198   3.050  15.428 -0.6453  0.5062 -0.0029
 3794TIP3    H132797   0.114   3.076  15.465 -0.1014  0.5094  1.2708
 3794TIP3    H232798   0.202   2.955  15.440 -0.9436  0.3514 -1.0820
 3795TIP3   OH232799   6.089   3.353  12.612 -0.1582 -0.5568 -0.2174
 3795TIP3    H132800   6.098   3.354  12.707  0.4231 -0.1722 -0.2714
 3795TIP3    H232801   6.106   3.262  12.587  0.2635 -0.5417  0.0000
 3796TIP3   OH232802   2.643   2.237  16.566  0.2321 -0.1456  0.2081
 3796TIP3    H132803   2.557   2.233  16.607  0.8627  1.4227  1.7712
 3796TIP3    H232804   2.678   2.322  16.593  2.0933 -0.5766 -0.7641
 3797TIP3   OH232805   1.646   3.345   4.170  0.7127 -0.2039 -0.3459
 3797TIP3    H132806   1.666   3.338   4.077 -0.3853 -2.2036 -0.4550
 3797TIP3    H232807   1.558   3.381   4.173  1.3337  1.3260 -0.0300
 3798TIP3   OH232808   1.374   1.140  15.156  0.2882 -0.7993 -0.2081
 3798TIP3    H132809   1.338   1.068  15.208  1.1039 -2.6008 -2.0888
 3798TIP3    H232810   1.427   1.098  15.089  0.3580  1.5340 -1.6953
 3799TIP3   OH232811   3.110   2.631   5.872 -0.1456 -0.3173 -0.2390
 3799TIP3    H132812   3.118   2.713   5.922 -0.1543  0.3096 -1.2476
 3799TIP3    H232813   3.118   2.562   5.938  3.0960  0.4344  0.2107
 3800TIP3   OH232814   2.871   1.437  11.195  0.5982  0.2067  0.0401
 3800TIP3    H132815   2.947   1.441  11.137  1.7414  0.5374  1.5124
 3800TIP3    H232816   2.883   1.356  11.244  0.2816  0.5144  0.6388
 3801TIP3   OH232817   5.762   1.439  12.874 -0.6333  0.2853  0.0644
 3801TIP3    H132818   5.826   1.412  12.940 -0.5850 -3.3602 -1.3553
 3801TIP3    H232819   5.810   1.499  12.817 -0.4479  2.8309  2.7879
 3802TIP3   OH232820   5.370   5.860  11.803  0.6919 -0.1269  0.3259
 3802TIP3    H132821   5.339   5.950  11.795 -0.1261 -0.3623  0.7748
 3802TIP3    H232822   5.383   5.847  11.897  1.4516 -0.2661  0.2017
 3803TIP3   OH232823   0.811   4.795  12.583  0.1365 -0.3632  0.5440
 3803TIP3    H132824   0.879   4.807  12.516 -0.9948 -1.7243 -0.8753
 3803TIP3    H232825   0.741   4.855  12.557 -0.7350 -1.6351 -0.1108
 3804TIP3   OH232826   6.559   6.137  14.956 -0.8857  0.7253  0.3077
 3804TIP3    H132827   6.485   6.080  14.979  0.7476 -2.0938 -1.1018
 3804TIP3    H232828   6.617   6.132  15.032 -0.7887  0.5745  0.2232
 3805TIP3   OH232829   0.743   3.644   5.616 -0.0901 -0.0232  0.4525
 3805TIP3    H132830   0.653   3.619   5.598 -0.0568  0.4476 -0.4365
 3805TIP3    H232831   0.787   3.563   5.641 -0.5204 -0.4408 -0.1376
 3806TIP3   OH232832   3.366   5.537  12.010 -0.3565 -0.2081 -0.0477
 3806TIP3    H132833   3.400   5.627  12.008  0.9572 -0.6310  1.7633
 3806TIP3    H232834   3.278   5.546  12.046  0.5538  0.1582  2.1477
 3807TIP3   OH232835   0.003   1.807  14.106  0.0587 -0.2185  0.3710
 3807TIP3    H132836  -0.080   1.854  14.104 -0.3996 -0.7828  3.7580
 3807TIP3    H232837   0.070   1.875  14.094 -0.8003  0.5228 -0.2139
 3808TIP3   OH232838   1.849   2.055   5.799  0.2529  0.1476  0.3312
 3808TIP3    H132839   1.873   2.057   5.707  1.5454  1.5405  0.6751
 3808TIP3    H232840   1.810   2.141   5.816 -3.4978 -1.4397  0.2121
 3809TIP3   OH232841   6.181   1.260  13.237 -0.2533  0.7478  0.0352
 3809TIP3    H132842   6.211   1.170  13.225  1.8253  1.2607  1.2448
 3809TIP3    H232843   6.104   1.252  13.293  1.5616 -0.1191  2.5185
 3810TIP3   OH232844   5.111   0.745   6.010 -0.0423 -0.0984  0.0845
 3810TIP3    H132845   5.190   0.692   6.020 -0.2317 -0.4364 -0.1772
 3810TIP3    H232846   5.135   0.831   6.043  0.6717  0.0185 -0.7086
 3811TIP3   OH232847   3.287   3.151  11.147 -0.1159 -0.4794  0.2346
 3811TIP3    H132848   3.274   3.229  11.201 -0.9147 -0.6804  0.3470
 3811TIP3    H232849   3.367   3.168  11.098 -0.6412  0.6905 -0.2341
 3812TIP3   OH232850   1.006   6.682   1.231 -0.5246  0.0756  0.2501
 3812TIP3    H132851   1.010   6.778   1.234 -1.9315  0.1228  2.0379
 3812TIP3    H232852   0.959   6.662   1.151  0.5532  0.8437 -0.5861
 3813TIP3   OH232853   0.261   5.218   2.509 -0.1497  0.3486 -0.5177
 3813TIP3    H132854   0.260   5.309   2.481 -1.3363  0.6125  0.3530
 3813TIP3    H232855   0.248   5.168   2.428  1.0344  0.9186 -1.0701
 3814TIP3   OH232856   4.886   1.784   5.921 -0.1834 -0.5410 -0.7511
 3814TIP3    H132857   4.823   1.837   5.872  0.7070  1.2179 -0.0396
 3814TIP3    H232858   4.870   1.804   6.013  0.1993 -1.4738 -0.4704
 3815TIP3   OH232859   5.304   5.681   3.818  0.4355  0.2029  0.2466
 3815TIP3    H132860   5.210   5.692   3.837  0.1497 -0.5510 -0.6595
 3815TIP3    H232861   5.331   5.608   3.874  0.3867  0.1554  0.2080
 3816TIP3   OH232862   2.357   3.603  10.778  0.4730 -0.5618 -0.6546
 3816TIP3    H132863   2.373   3.589  10.685  2.7112  1.9727 -0.7153
 3816TIP3    H232864   2.443   3.627  10.814 -0.8064  0.8567  1.5961
 3817TIP3   OH232865   6.613   4.251   6.598 -0.2626  0.5245 -0.1456
 3817TIP3    H132866   6.548   4.203   6.546  0.0536 -0.1129  0.0492
 3817TIP3    H232867   6.588   4.343   6.588 -0.2891  0.3994 -1.3260
 3818TIP3   OH232868   2.691   2.616   1.521 -0.1389  0.2594 -0.2288
 3818TIP3    H132869   2.720   2.694   1.473  0.2695  0.5079  0.4202
 3818TIP3    H232870   2.701   2.545   1.458  2.4157  0.2448  0.1226
 3819TIP3   OH232871   2.707   1.514  16.956  0.5947 -0.6384 -0.0074
 3819TIP3    H132872   2.781   1.537  16.900  0.4995 -3.1329 -1.2229
 3819TIP3    H232873   2.737   1.438  17.005 -0.5037 -0.5136  0.8748
 3820TIP3   OH232874   2.570   6.337   0.914 -0.6267 -0.6236 -0.2203
 3820TIP3    H132875   2.575   6.273   0.843  0.8964 -0.5580 -0.1987
 3820TIP3    H232876   2.652   6.387   0.907 -0.4159 -0.6606  1.5977
 3821TIP3   OH232877   3.720   3.175   1.140  0.1996  0.0126  0.2824
 3821TIP3    H132878   3.627   3.155   1.132  0.5992 -0.9700 -2.1174
 3821TIP3    H232879   3.761   3.091   1.161  0.8722 -0.1407 -1.5578
 3822TIP3   OH232880   6.346   4.551   1.575  0.2466  0.0076 -0.0454
 3822TIP3    H132881   6.298   4.493   1.634  0.7458  1.7489  2.1259
 3822TIP3    H232882   6.280   4.613   1.543  0.3417  0.2049  0.1401
 3823TIP3   OH232883   1.726   1.702  10.814 -0.1060  0.3624  0.0385
 3823TIP3    H132884   1.644   1.654  10.806  0.0310  0.2012 -0.4220
 3823TIP3    H232885   1.787   1.656  10.756  0.2777  0.5440  0.2965
 3824TIP3   OH232886   1.730   1.107   4.879  0.3497  0.5897  0.5709
 3824TIP3    H132887   1.735   1.202   4.891  1.0734  0.3356  2.5050
 3824TIP3    H232888   1.782   1.072   4.951  0.7734 -1.2599 -0.6178
 3825TIP3   OH232889   5.143   6.713  14.325 -0.3040 -0.5696 -0.0141
 3825TIP3    H132890   5.158   6.693  14.418  1.8951 -1.5108 -0.5363
 3825TIP3    H232891   5.048   6.726  14.318 -0.3748  0.5003  2.5482
 3826TIP3   OH232892   1.322   5.909  13.943  0.2225 -0.0562  0.2475
 3826TIP3    H132893   1.284   5.903  13.855  1.4017  0.5486 -0.3117
 3826TIP3    H232894   1.317   6.002  13.964  2.0107  0.1387 -0.1196
 3827TIP3   OH232895   4.455   4.653   1.429 -0.1539  0.3246  0.5233
 3827TIP3    H132896   4.409   4.652   1.513 -0.1734  0.5413  0.5152
 3827TIP3    H232897   4.521   4.722   1.438 -0.1577  0.3505  0.3620
 3828TIP3   OH232898   0.634   5.221  16.980 -0.6634  0.5827  0.0023
 3828TIP3    H132899   0.699   5.154  16.957 -2.1523 -1.6990  2.1528
 3828TIP3    H232900   0.675   5.272  17.049  0.7976  2.4967 -2.2004
 3829TIP3   OH232901   0.803   3.025  15.203  0.3895 -0.2797 -0.4334
 3829TIP3    H132902   0.756   3.103  15.232  0.3139 -0.2069 -0.7487
 3829TIP3    H232903   0.748   2.989  15.133  1.4250  0.4917 -1.6518
 3830TIP3   OH232904   0.009   6.525  15.870 -0.3840 -0.3160 -0.5929
 3830TIP3    H132905  -0.066   6.522  15.929  0.8314  1.2375  1.0740
 3830TIP3    H232906   0.023   6.433  15.844 -2.2750 -0.7195 -0.2064
 3831TIP3   OH232907   5.272   0.630   6.321 -0.0545 -0.2904  0.1294
 3831TIP3    H132908   5.200   0.572   6.347  1.3084 -2.0092  0.1818
 3831TIP3    H232909   5.301   0.595   6.237  0.7353  0.3820  0.1182
 3832TIP3   OH232910   0.320   0.844   5.476  0.2997  0.2351  0.0300
 3832TIP3    H132911   0.313   0.911   5.408 -0.0921 -0.1263 -0.2883
 3832TIP3    H232912   0.230   0.816   5.491  0.3811  0.3386  0.7247
 3833TIP3   OH232913   0.735   1.493  12.088  0.1078 -0.2360 -0.0238
 3833TIP3    H132914   0.645   1.512  12.113 -0.3661 -0.8989 -1.1684
 3833TIP3    H232915   0.778   1.579  12.082 -0.5667  0.1072  0.1047
 3834TIP3   OH232916   5.015   4.166   4.911  0.4084 -0.3496  0.3079
 3834TIP3    H132917   5.034   4.123   4.995  3.2781  0.5525  0.1784
 3834TIP3    H232918   4.987   4.095   4.853 -1.6867 -0.9735  2.0194
 3835TIP3   OH232919   1.297   4.396  12.530 -0.3850  0.0638 -0.3053
 3835TIP3    H132920   1.223   4.336  12.519 -0.0013 -0.0837 -2.2602
 3835TIP3    H232921   1.375   4.340  12.521  0.0033  0.1342  2.2069
 3836TIP3   OH232922   4.447   0.779   4.601 -0.0429 -0.0892  0.2602
 3836TIP3    H132923   4.427   0.870   4.578  1.1914 -0.3633 -2.0895
 3836TIP3    H232924   4.540   0.781   4.624 -0.0194 -0.7632  0.2221
 3837TIP3   OH232925   1.249   0.088   2.648  0.1095 -0.0702 -0.6948
 3837TIP3    H132926   1.221   0.160   2.705  1.0474 -0.7977  0.7306
 3837TIP3    H232927   1.172   0.031   2.641  0.1954 -0.3507  0.4690
 3838TIP3   OH232928   0.559   6.092   6.160 -0.7391  0.1495  1.0826
 3838TIP3    H132929   0.589   6.180   6.183 -0.4340  0.3404 -0.0427
 3838TIP3    H232930   0.612   6.033   6.214  0.3831  0.5697  0.4255
 3839TIP3   OH232931   5.640   1.055  15.606 -0.6748  0.3415  0.8768
 3839TIP3    H132932   5.585   1.077  15.531 -0.5276  0.5219  0.8204
 3839TIP3    H232933   5.694   0.982  15.575  2.4079  3.1022 -0.6489
 3840TIP3   OH232934   3.539   3.875  16.721  0.6996 -0.4492 -0.0923
 3840TIP3    H132935   3.465   3.898  16.776  1.3251 -0.7009  0.8768
 3840TIP3    H232936   3.536   3.938  16.648 -0.6360 -0.6699 -0.2347
 3841TIP3   OH232937   0.337   5.794  12.113 -0.1015 -0.5444 -1.0373
 3841TIP3    H132938   0.242   5.788  12.122  0.0340 -0.4452  0.5973
 3841TIP3    H232939   0.361   5.871  12.165  0.8609 -0.5230 -1.5083
 3842TIP3   OH232940   0.212   2.493  11.198  0.0009 -0.4580 -0.2250
 3842TIP3    H132941   0.122   2.520  11.213 -0.0573  0.4102 -2.0116
 3842TIP3    H232942   0.228   2.426  11.264 -1.7331 -0.1636  0.5277
 3843TIP3   OH232943   2.321   1.724  13.223  0.6862 -0.2458  0.2261
 3843TIP3    H132944   2.315   1.634  13.191  0.7143 -0.7329  1.5420
 3843TIP3    H232945   2.231   1.756  13.224  0.7690  0.0349 -1.0514
 3844TIP3   OH232946   2.573   6.503  14.624  0.4084  0.1411  0.0957
 3844TIP3    H132947   2.495   6.447  14.614  1.6510 -1.9355  1.5005
 3844TIP3    H232948   2.568   6.534  14.714 -0.9783  3.4962 -1.0691
 3845TIP3   OH232949   4.020   3.322   3.928 -0.1661  0.1897  0.3918
 3845TIP3    H132950   3.977   3.290   3.849 -0.0326  0.2459  0.2965
 3845TIP3    H232951   4.109   3.289   3.922 -0.2141  0.0130  0.6248
 3846TIP3   OH232952   6.380   5.463  13.147  0.9278 -0.1143  0.0690
 3846TIP3    H132953   6.391   5.375  13.184  0.3931  0.4913  1.7053
 3846TIP3    H232954   6.318   5.451  13.075  0.5053 -1.0051  0.5700
 3847TIP3   OH232955   3.457   1.672  15.554  0.1481  0.1778  0.0973
 3847TIP3    H132956   3.549   1.662  15.529  0.7520  1.2586  1.7923
 3847TIP3    H232957   3.430   1.584  15.581  0.9774  0.0453  0.5335
 3848TIP3   OH232958   4.839   2.515   4.677 -0.0035 -0.0689 -0.2427
 3848TIP3    H132959   4.748   2.526   4.651 -0.4039 -0.7064  0.8436
 3848TIP3    H232960   4.849   2.420   4.687  0.2375  0.1256  1.5157
 3849TIP3   OH232961   0.936   3.984   4.143  0.8885 -0.1826 -0.6120
 3849TIP3    H132962   0.891   4.064   4.172 -0.0783 -0.2811 -1.8120
 3849TIP3    H232963   1.019   4.014   4.107 -1.1240  0.7774 -4.8020
 3850TIP3   OH232964   1.888   2.219  16.910  0.4183  0.2544  0.0497
 3850TIP3    H132965   1.847   2.213  16.824  0.4582 -1.3254  0.1281
 3850TIP3    H232966   1.861   2.140  16.956  1.8210  0.2232  0.8643
 3851TIP3   OH232967   2.324   3.598   3.210  0.8500  0.1349  0.7242
 3851TIP3    H132968   2.352   3.511   3.239  1.5204 -0.6475 -2.0973
 3851TIP3    H232969   2.228   3.595   3.215  0.8380 -1.0333 -0.0233
 3852TIP3   OH232970   3.447   3.436  11.859  0.2199  0.0330  0.2239
 3852TIP3    H132971   3.443   3.362  11.920 -1.3513  0.4699  0.6803
 3852TIP3    H232972   3.536   3.470  11.868  0.7026 -1.3061  0.5927
 3853TIP3   OH232973   4.037   0.851   2.474 -0.1711  0.0487  0.0901
 3853TIP3    H132974   4.036   0.803   2.392  2.3740 -0.2080  0.1582
 3853TIP3    H232975   4.113   0.910   2.467 -0.1502  0.3113  2.0785
 3854TIP3   OH232976   3.029   5.312   5.373  0.2671 -0.2453 -0.5618
 3854TIP3    H132977   3.099   5.303   5.308 -0.4805  0.4233 -1.4757
 3854TIP3    H232978   3.059   5.262   5.448  1.2910 -0.7721 -1.3163
 3855TIP3   OH232979   0.880   4.404   4.618 -0.0148  0.0746  0.2811
 3855TIP3    H132980   0.865   4.370   4.530  0.4890 -1.0629  0.6246
 3855TIP3    H232981   0.884   4.326   4.674 -3.1892  0.8561  1.7701
 3856TIP3   OH232982   4.730   4.369  15.560  0.3464  0.0957 -0.4146
 3856TIP3    H132983   4.704   4.432  15.493  2.4884  1.5765  0.1089
 3856TIP3    H232984   4.666   4.382  15.630 -0.4075  0.3017 -1.1290
 3857TIP3   OH232985   4.974   4.649  12.449 -0.7164 -0.0915  0.1458
 3857TIP3    H132986   4.943   4.633  12.360 -0.6322  0.3801  0.0320
 3857TIP3    H232987   4.898   4.685  12.495 -1.3715 -2.2579  0.8251
 3858TIP3   OH232988   5.738   2.100   3.310 -0.0247  0.3777 -0.3702
 3858TIP3    H132989   5.774   2.012   3.300  1.2229  0.7450  0.7572
 3858TIP3    H232990   5.646   2.091   3.286  0.1316 -1.2069 -0.4142
 3859TIP3   OH232991   4.278   1.110   3.047  0.0757  0.0976 -0.2066
 3859TIP3    H132992   4.238   1.040   3.100  1.5048 -0.4151  0.2058
 3859TIP3    H232993   4.250   1.090   2.958  1.8464 -1.9993 -0.3236
 3860TIP3   OH232994   3.366   1.144  12.423  0.5408 -0.0779  0.4069
 3860TIP3    H132995   3.410   1.076  12.373 -1.4181 -0.0955 -1.3256
 3860TIP3    H232996   3.313   1.098  12.487  1.0845 -0.1079  0.8420
 3861TIP3   OH232997   6.249   5.217   3.935  0.1162 -0.4700 -0.0907
 3861TIP3    H132998   6.306   5.156   3.982  0.3788 -0.0030  0.1933
 3861TIP3    H232999   6.165   5.212   3.981 -0.1962 -1.4447 -0.7423
 3862TIP3   OH233000   0.607   4.867   1.688  0.0846 -0.8234 -0.0529
 3862TIP3    H133001   0.568   4.879   1.774 -0.7599  0.7004 -0.6304
 3862TIP3    H233002   0.534   4.842   1.631  0.2602  0.1785 -0.7399
 3863TIP3   OH233003   2.278   5.457   0.421  0.0623 -0.1650  0.3355
 3863TIP3    H133004   2.281   5.362   0.427 -0.1723 -0.2007 -0.0796
 3863TIP3    H233005   2.360   5.487   0.461  1.8215 -0.7010 -2.6913
 3864TIP3   OH233006   3.068   3.461   0.232 -0.4002  0.4300 -0.2127
 3864TIP3    H133007   3.163   3.451   0.241 -0.4079  0.9957  0.5728
 3864TIP3    H233008   3.032   3.379   0.266 -0.3851  2.2289  4.5234
 3865TIP3   OH233009   2.445   5.045   3.915 -0.3515  0.2943 -0.5621
 3865TIP3    H133010   2.435   5.082   4.003  0.5829  0.4877 -0.5220
 3865TIP3    H233011   2.362   5.002   3.897 -0.2675 -0.4402  0.7370
 3866TIP3   OH233012   0.723   1.388  13.027 -0.1715 -0.1151  0.2110
 3866TIP3    H133013   0.788   1.318  13.029  1.3128  1.2441  1.6229
 3866TIP3    H233014   0.639   1.343  13.019  0.9141 -1.9133 -1.4912
 3867TIP3   OH233015   5.594   2.601   5.728  0.1710  0.2158 -0.8660
 3867TIP3    H133016   5.554   2.672   5.779 -1.0745  0.2431 -1.8644
 3867TIP3    H233017   5.520   2.556   5.687  1.0728 -0.6293 -1.5941
 3868TIP3   OH233018   1.810   2.086  12.453  0.2402 -0.7600  0.0241
 3868TIP3    H133019   1.777   2.100  12.541  0.8964  1.0445 -0.0008
 3868TIP3    H233020   1.903   2.106  12.458 -0.1145  1.5245 -1.5255
 3869TIP3   OH233021   5.712   1.483   3.377  0.0403  0.1013 -0.2833
 3869TIP3    H133022   5.648   1.421   3.413  1.0085 -0.3262  0.7109
 3869TIP3    H233023   5.717   1.553   3.443  1.7072 -0.6086  0.3512
 3870TIP3   OH233024   3.412   3.084  15.991 -0.1696  0.1185  0.5081
 3870TIP3    H133025   3.352   3.013  16.014 -1.9582  2.1504  2.2286
 3870TIP3    H233026   3.474   3.087  16.064  0.2808 -0.0563  0.1378
 3871TIP3   OH233027   4.228   2.433   2.893  0.7226  0.4524 -0.3053
 3871TIP3    H133028   4.305   2.490   2.884  1.4474 -0.6760 -1.4467
 3871TIP3    H233029   4.265   2.348   2.917 -0.2176  0.0186 -0.4101
 3872TIP3   OH233030   1.423   4.886   0.573  0.8582  0.4099  0.1693
 3872TIP3    H133031   1.460   4.902   0.486  0.8932 -0.7534 -0.0324
 3872TIP3    H233032   1.433   4.792   0.586 -1.9141  0.0808  0.1518
 3873TIP3   OH233033   0.935   4.711   3.779  1.0089  0.2654  0.3426
 3873TIP3    H133034   0.974   4.733   3.863  0.6245  0.4330  0.4787
 3873TIP3    H233035   0.942   4.616   3.773  2.1174  0.3610  0.0276
 3874TIP3   OH233036   2.765   5.110   0.092 -0.4353  0.2576  0.3338
 3874TIP3    H133037   2.800   5.158   0.167 -0.0581 -1.5804  1.3637
 3874TIP3    H233038   2.681   5.076   0.122 -0.4379 -0.2129 -0.1910
 3875TIP3   OH233039   3.449   2.127   2.787 -0.2761 -0.1593 -0.5644
 3875TIP3    H133040   3.372   2.174   2.754 -0.1241 -0.1237 -0.8675
 3875TIP3    H233041   3.414   2.045   2.822 -0.7610  0.9024  1.5073
 3876TIP3   OH233042   3.967   5.186  12.013  0.3048 -0.4549  0.7353
 3876TIP3    H133043   3.930   5.208  11.928  1.2104  0.1297  0.4824
 3876TIP3    H233044   4.054   5.226  12.012  1.0200 -1.9701  1.2415
 3877TIP3   OH233045   6.696   3.503  13.846 -0.1461 -0.0784  0.3858
 3877TIP3    H133046   6.704   3.519  13.752 -1.9934 -1.0115  0.0453
 3877TIP3    H233047   6.765   3.439  13.865  1.3164  1.3365  0.0149
 3878TIP3   OH233048   3.624   1.892  15.699 -0.5761 -0.4084 -0.2051
 3878TIP3    H133049   3.704   1.844  15.678 -0.7667 -0.4594 -0.8347
 3878TIP3    H233050   3.594   1.927  15.615 -0.4824  0.7501  0.2371
 3879TIP3   OH233051   6.260   2.314   4.897 -0.2393  0.0993 -0.2901
 3879TIP3    H133052   6.243   2.398   4.854 -1.3639  0.5077  0.9061
 3879TIP3    H233053   6.347   2.288   4.866 -1.3878 -0.1343 -3.5768
 3880TIP3   OH233054   6.087   2.047  10.284 -0.5980 -0.8962  0.4823
 3880TIP3    H133055   6.044   2.029  10.201  3.4564 -1.0676 -1.6991
 3880TIP3    H233056   6.066   1.971  10.339  0.8094 -3.2883 -2.1522
 3881TIP3   OH233057   4.356   5.712  16.527 -0.8368  0.0183  0.1765
 3881TIP3    H133058   4.328   5.763  16.451 -1.8262 -1.3659 -0.4018
 3881TIP3    H233059   4.337   5.768  16.602 -0.0722  1.3028 -0.5702
 3882TIP3   OH233060   5.468   0.718  11.762  0.1991  0.6921 -0.2563
 3882TIP3    H133061   5.415   0.769  11.823  0.4912  0.5445  0.1266
 3882TIP3    H233062   5.516   0.783  11.711  0.2704  0.8071 -0.0432
 3883TIP3   OH233063   1.773   4.463  15.455 -0.1599  0.1406 -0.1406
 3883TIP3    H133064   1.762   4.502  15.368  0.5445 -1.5380 -1.0132
 3883TIP3    H233065   1.693   4.412  15.468 -0.7738  1.3048  0.6991
 3884TIP3   OH233066   0.818   0.157   4.607 -0.6825 -0.1559 -0.7770
 3884TIP3    H133067   0.747   0.198   4.558  1.2588  3.8878 -0.4528
 3884TIP3    H233068   0.890   0.151   4.545  0.2353  0.3752  0.2261
 3885TIP3   OH233069   2.806   3.356   0.373  0.3795  0.1857  0.4538
 3885TIP3    H133070   2.842   3.272   0.346 -0.2295  0.1877 -0.3733
 3885TIP3    H233071   2.716   3.356   0.340  0.0814  0.7737  1.2648
 3886TIP3   OH233072   6.080   1.923   3.542 -0.4408  0.1334  0.1613
 3886TIP3    H133073   6.139   1.968   3.602  0.2634  0.2012 -0.5646
 3886TIP3    H233074   6.127   1.924   3.458 -2.1201  1.4969 -0.7791
 3887TIP3   OH233075   4.602   3.307  16.068  0.4277  0.7012  0.3704
 3887TIP3    H133076   4.519   3.341  16.034  1.4044  0.2962 -2.5721
 3887TIP3    H233077   4.650   3.385  16.095 -0.7503  0.9685  1.7130
 3888TIP3   OH233078   5.134   2.082  11.758  0.0397  0.3742 -0.3219
 3888TIP3    H133079   5.168   2.036  11.835  1.4620  1.0483 -0.5381
 3888TIP3    H233080   5.055   2.033  11.734  0.7048 -1.0559  0.3554
 3889TIP3   OH233081   3.833   0.118  10.834  0.0724 -0.0036  0.0107
 3889TIP3    H133082   3.919   0.075  10.832  0.2651  0.3023  1.3755
 3889TIP3    H233083   3.850   0.204  10.872 -0.9271 -0.1126  0.7094
 3890TIP3   OH233084   2.776   2.827   0.109  0.3543 -0.8157  0.2987
 3890TIP3    H133085   2.859   2.811   0.153  1.4607 -0.8290 -1.7674
 3890TIP3    H233086   2.781   2.777   0.028 -1.2507 -0.0017 -0.3302
 3891TIP3   OH233087   0.813   3.927  16.311  0.2598 -0.0330 -0.4615
 3891TIP3    H133088   0.821   4.015  16.348  0.5858 -0.0434 -0.5022
 3891TIP3    H233089   0.724   3.924  16.276  0.4274  0.4746 -0.9551
 3892TIP3   OH233090   0.518   1.211  16.045  0.0595  0.8439 -0.3230
 3892TIP3    H133091   0.515   1.187  16.138  1.1596 -0.9897 -0.7351
 3892TIP3    H233092   0.551   1.301  16.045 -1.0797  1.2817  1.1127
 3893TIP3   OH233093   2.613   2.868   2.578  0.0390  0.2569  0.0823
 3893TIP3    H133094   2.654   2.822   2.651 -1.9168 -2.1322 -0.2474
 3893TIP3    H233095   2.641   2.820   2.500 -0.4295  0.8371 -0.4472
 3894TIP3   OH233096   4.591   4.529   4.569 -0.2096 -0.1870  0.2176
 3894TIP3    H133097   4.516   4.552   4.514 -0.1773  0.0010  0.2489
 3894TIP3    H233098   4.553   4.505   4.653 -0.3229 -1.3884 -0.1672
 3895TIP3   OH233099   0.927   1.017   0.988 -0.4379  1.2759  0.2800
 3895TIP3    H133100   0.861   1.044   1.052 -1.7501  0.6802 -0.7935
 3895TIP3    H233101   0.932   1.091   0.927 -0.7883  0.9363 -0.1603
 3896TIP3   OH233102   1.148   6.028   3.558  0.4187  0.5970  0.0858
 3896TIP3    H133103   1.231   5.981   3.568  1.2514  1.9830 -0.0286
 3896TIP3    H233104   1.174   6.121   3.555 -1.0402  0.9864 -1.0941
 3897TIP3   OH233105   5.417   6.458   4.823 -0.0463 -0.2481 -0.4268
 3897TIP3    H133106   5.380   6.510   4.895 -1.1768  0.2728 -1.3744
 3897TIP3    H233107   5.510   6.483   4.821  0.1759 -0.8600  1.3627
 3898TIP3   OH233108   5.734   3.193  16.830 -0.5638  0.3695  0.3378
 3898TIP3    H133109   5.810   3.173  16.775 -0.5100  0.9825  0.1959
 3898TIP3    H233110   5.663   3.211  16.769 -0.7624  0.0477  0.4699
 3899TIP3   OH233111   2.297   2.929  15.896 -0.4469  0.2975 -0.0129
 3899TIP3    H133112   2.288   3.011  15.848 -0.7898 -0.2582 -0.9051
 3899TIP3    H233113   2.340   2.954  15.978  0.1019  1.2609 -0.5804
 3900TIP3   OH233114   0.239   3.206  17.163  0.4410  0.4785 -0.3986
 3900TIP3    H133115   0.308   3.255  17.209  3.0130 -1.0148 -2.5227
 3900TIP3    H233116   0.231   3.251  17.079  0.8587 -1.0615 -1.2722
 3901TIP3   OH233117   3.883   5.802  11.992 -0.2407  0.2189 -0.2606
 3901TIP3    H133118   3.832   5.824  12.070 -0.4407 -0.4072 -0.2076
 3901TIP3    H233119   3.949   5.871  11.986  2.1278 -1.7079  2.5732
 3902TIP3   OH233120   3.502   1.770  12.938  0.5373  0.2057 -0.3753
 3902TIP3    H133121   3.418   1.761  12.983 -0.0020  0.2209 -1.3503
 3902TIP3    H233122   3.480   1.761  12.845  2.0474 -3.0804 -0.4937
 3903TIP3   OH233123   6.663   6.002   3.466 -0.0293 -0.1989  0.3728
 3903TIP3    H133124   6.654   6.024   3.559 -2.8449  1.4140 -0.2221
 3903TIP3    H233125   6.709   6.077   3.428  0.6685 -0.6324  0.3420
 3904TIP3   OH233126   0.490   5.382  10.606 -0.0197  0.1942  0.2892
 3904TIP3    H133127   0.580   5.370  10.575  0.8822  2.6293  1.8017
 3904TIP3    H233128   0.469   5.300  10.651  1.5330 -0.2944  0.1486
 3905TIP3   OH233129   3.235   1.065   4.382 -0.5011 -0.6196  0.0698
 3905TIP3    H133130   3.150   1.064   4.338 -0.6239  0.4783  0.2675
 3905TIP3    H233131   3.243   1.154   4.416  1.2607 -0.3769 -0.9442
 3906TIP3   OH233132   3.380   4.588   1.365 -0.2938 -0.1549 -0.5246
 3906TIP3    H133133   3.426   4.629   1.292 -0.6236  1.9393  0.3875
 3906TIP3    H233134   3.316   4.530   1.324  3.1601 -3.2510 -1.8318
 3907TIP3   OH233135   3.979   4.319  12.885  0.7649 -0.1805  0.3841
 3907TIP3    H133136   4.030   4.306  12.965  1.4283  0.8195  0.1287
 3907TIP3    H233137   3.974   4.414  12.875 -1.1731 -0.2582  0.4079
 3908TIP3   OH233138   5.521   5.998  13.529 -0.3383  0.0375  0.4304
 3908TIP3    H133139   5.552   5.918  13.572  2.5609  0.1061 -1.3527
 3908TIP3    H233140   5.571   6.068  13.571 -0.2878  0.5163 -0.4211
 3909TIP3   OH233141   0.765   1.425  11.355  0.4532  0.2818 -0.3766
 3909TIP3    H133142   0.793   1.418  11.446  0.1800  2.1947 -0.1225
 3909TIP3    H233143   0.703   1.353  11.343  1.4584 -0.7574  0.5711
 3910TIP3   OH233144   4.151   4.907   4.145 -0.2316 -0.5529 -0.1879
 3910TIP3    H133145   4.209   4.945   4.079  0.1484 -0.3162  0.2816
 3910TIP3    H233146   4.063   4.922   4.109  0.0327 -2.2007 -1.5826
 3911TIP3   OH233147   0.253   5.519   1.780  0.2306  0.3134  0.1870
 3911TIP3    H133148   0.271   5.599   1.831  0.3589 -0.6154  1.6232
 3911TIP3    H233149   0.213   5.459   1.843 -0.8700 -0.3776 -1.1590
 3912TIP3   OH233150   4.897   5.472  14.652 -0.3141 -0.0265 -0.2456
 3912TIP3    H133151   4.897   5.451  14.745  1.3206  1.0397  0.0144
 3912TIP3    H233152   4.864   5.392  14.609  3.3163 -2.2803  0.8880
 3913TIP3   OH233153   6.333   3.398   4.540 -0.2352 -0.2298 -0.5720
 3913TIP3    H133154   6.394   3.358   4.478  2.6985  3.2436 -0.1351
 3913TIP3    H233155   6.373   3.384   4.626 -1.0670  0.3774 -0.0700
 3914TIP3   OH233156   1.210   0.120  15.244 -0.3158 -0.9088 -0.2604
 3914TIP3    H133157   1.286   0.062  15.253  0.3916  0.1032  0.3610
 3914TIP3    H233158   1.235   0.181  15.174 -0.6869 -0.7743 -0.2774
 3915TIP3   OH233159   2.959   3.070   6.412 -0.1205 -0.2155 -0.2598
 3915TIP3    H133160   2.994   2.987   6.446 -0.6032 -0.0138  0.7472
 3915TIP3    H233161   2.870   3.074   6.447 -0.7634 -0.1779 -1.8768
 3916TIP3   OH233162   4.933   6.630   2.308 -0.2982 -0.0011  0.0463
 3916TIP3    H133163   4.944   6.647   2.402 -1.5110 -0.4892  0.2850
 3916TIP3    H233164   4.924   6.717   2.269  3.8814  0.4566 -0.1503
 3917TIP3   OH233165   5.924   4.919   4.037  0.4637 -0.3568 -0.7085
 3917TIP3    H133166   5.852   4.879   4.085  1.2528 -0.7099  0.2019
 3917TIP3    H233167   5.906   4.899   3.946 -0.5227 -0.5443 -0.4791
 3918TIP3   OH233168   1.687   2.193  10.924  0.6156  0.6876 -0.7547
 3918TIP3    H133169   1.760   2.155  10.973  0.6726  0.7996 -0.7519
 3918TIP3    H233170   1.726   2.224  10.842  0.9362  2.3900  0.0076
 3919TIP3   OH233171   4.387   3.188   1.306  0.2665 -0.4552  0.7933
 3919TIP3    H133172   4.398   3.120   1.240  0.1860 -1.4606  1.8020
 3919TIP3    H233173   4.426   3.267   1.266 -1.2660 -0.6255 -1.1012
 3920TIP3   OH233174   5.188   6.198  16.118  0.3357 -0.0318  0.1026
 3920TIP3    H133175   5.109   6.193  16.172 -1.5842 -0.1298 -2.5889
 3920TIP3    H233176   5.233   6.115  16.134 -1.0981 -0.8017  0.2603
 3921TIP3   OH233177   4.825   1.040   0.049  0.5101 -0.0292  0.3569
 3921TIP3    H133178   4.909   1.027   0.005  0.3945 -0.4888  0.2709
 3921TIP3    H233179   4.767   0.975   0.009 -0.4367  1.5949 -1.0133
 3922TIP3   OH233180   2.867   2.391  12.244 -0.0941  0.6240  0.2575
 3922TIP3    H133181   2.865   2.312  12.190 -0.6155  0.3129  0.7285
 3922TIP3    H233182   2.787   2.386  12.296 -0.9679  2.2781 -0.8749
 3923TIP3   OH233183   3.162   2.658   1.910 -0.3740 -0.5481 -0.7261
 3923TIP3    H133184   3.193   2.599   1.978 -0.2973  1.4169  0.9751
 3923TIP3    H233185   3.233   2.721   1.898 -1.1513  0.2399 -1.2827
 3924TIP3   OH233186   5.129   2.152   4.787  0.3428  0.0010  0.2815
 3924TIP3    H133187   5.060   2.187   4.843 -0.8499  0.8540 -1.6558
 3924TIP3    H233188   5.091   2.072   4.750  0.1978  0.7149 -1.1402
 3925TIP3   OH233189   4.899   5.431  11.445 -0.3929  0.1085 -0.0330
 3925TIP3    H133190   4.876   5.342  11.421  0.9470 -0.5742  1.1411
 3925TIP3    H233191   4.928   5.425  11.536  1.9047  1.3283 -0.6354
 3926TIP3   OH233192   4.953   4.110  15.819 -0.3051 -0.7023 -0.5675
 3926TIP3    H133193   4.912   4.194  15.840  2.2469  0.5833 -0.4286
 3926TIP3    H233194   5.029   4.133  15.765  0.8779 -2.8409  0.0971
 3927TIP3   OH233195   1.297   6.623  15.315 -0.2139  0.7254  0.2367
 3927TIP3    H133196   1.381   6.644  15.357  0.9303 -0.6669 -1.2914
 3927TIP3    H233197   1.315   6.545  15.263 -2.7228 -0.1727  0.6401
 3928TIP3   OH233198   1.514   3.123  15.247  0.2944 -0.3083 -0.7588
 3928TIP3    H133199   1.504   3.056  15.179 -2.0081  0.6681 -1.4212
 3928TIP3    H233200   1.593   3.172  15.221  1.1772 -1.8422 -1.0361
 3929TIP3   OH233201   1.706   4.240   0.908 -0.0509  0.6623  0.8883
 3929TIP3    H133202   1.663   4.275   0.830  0.0816 -0.0044  0.5208
 3929TIP3    H233203   1.635   4.204   0.961  0.0466 -0.3898  0.3062
 3930TIP3   OH233204   3.723   0.721   2.239  0.7225 -0.1008  0.6721
 3930TIP3    H133205   3.639   0.759   2.211  1.2618 -0.0355 -0.8625
 3930TIP3    H233206   3.722   0.731   2.335 -0.1629  1.6747  0.5069
 3931TIP3   OH233207   0.910   6.007   4.618 -0.2161  0.3324  0.2093
 3931TIP3    H133208   0.939   5.929   4.665  1.1457  0.6514 -0.0884
 3931TIP3    H233209   0.915   5.982   4.526  2.0823  1.3735  0.0184
 3932TIP3   OH233210   5.245   0.483  14.934  0.5821 -0.1603  0.5465
 3932TIP3    H133211   5.236   0.575  14.911  0.7049  0.1646  1.7541
 3932TIP3    H233212   5.318   0.481  14.997  0.5180 -1.0619  0.6043
 3933TIP3   OH233213   2.163   1.834   5.385 -0.2368 -0.1847 -0.2808
 3933TIP3    H133214   2.169   1.880   5.469 -1.0863 -1.2221  0.3695
 3933TIP3    H233215   2.187   1.899   5.320  0.9579  0.4830  0.8179
 3934TIP3   OH233216   4.053   3.638   5.732  0.1253 -0.2629 -0.1079
 3934TIP3    H133217   4.096   3.571   5.679  0.7417  0.0734 -0.0437
 3934TIP3    H233218   4.062   3.719   5.682  1.1005  0.1435  0.6906
 3935TIP3   OH233219   2.805   3.132   0.212 -0.4885 -0.2637  0.2524
 3935TIP3    H133220   2.750   3.061   0.244 -0.6290  0.3308  1.3557
 3935TIP3    H233221   2.753   3.174   0.143 -0.9789 -0.3639  0.5604
 3936TIP3   OH233222   6.755   6.729  15.679  0.3245 -0.3160  0.1521
 3936TIP3    H133223   6.783   6.658  15.738 -0.0027 -1.2557 -0.8007
 3936TIP3    H233224   6.687   6.775  15.727  0.0210 -1.1105  0.4892
 3937TIP3   OH233225   4.130   0.321  16.255  0.9403  0.1726  0.5369
 3937TIP3    H133226   4.036   0.337  16.244  0.9861 -0.0381 -0.1885
 3937TIP3    H233227   4.142   0.313  16.350 -0.0035 -1.1406  0.5604
 3938TIP3   OH233228   4.371   5.795  14.071  0.4506 -0.4459  0.5656
 3938TIP3    H133229   4.462   5.804  14.097  0.2856 -0.0794  1.0293
 3938TIP3    H233230   4.344   5.711  14.107  0.5381 -0.4453  0.6337
 3939TIP3   OH233231   6.132   5.932   2.067 -0.0985  0.9783 -0.2213
 3939TIP3    H133232   6.187   5.912   1.992  1.9054  1.7050  1.0126
 3939TIP3    H233233   6.083   6.010   2.042  0.4224  1.1054 -0.8354
 3940TIP3   OH233234   5.455   4.441   5.259 -0.1843  0.5629  0.1508
 3940TIP3    H133235   5.493   4.488   5.333 -1.4344  0.9004  0.5874
 3940TIP3    H233236   5.457   4.503   5.187  1.1929  0.1783 -0.1652
 3941TIP3   OH233237   4.800   0.012  14.488 -0.4724  0.0843  0.0498
 3941TIP3    H133238   4.823  -0.002  14.396  1.0003  0.0604  0.4101
 3941TIP3    H233239   4.779   0.105  14.493  0.4389  0.2998 -0.1041
 3942TIP3   OH233240   6.224   5.476   0.145 -0.3897  0.4802  0.0004
 3942TIP3    H133241   6.251   5.452   0.234 -0.5799 -1.8462 -0.5307
 3942TIP3    H233242   6.164   5.407   0.119 -0.9885  1.5901 -1.6461
 3943TIP3   OH233243   3.810   3.143   0.019  0.1919 -0.9025  0.6770
 3943TIP3    H133244   3.847   3.067  -0.026  0.3814 -1.2629  1.4329
 3943TIP3    H233245   3.731   3.109   0.062  1.2656 -1.1036  2.5325
 3944TIP3   OH233246   6.122   1.481   3.013  0.3712  0.2249  0.4362
 3944TIP3    H133247   6.028   1.463   3.014  0.3267  0.4187  3.4582
 3944TIP3    H233248   6.145   1.483   2.920 -2.7116  0.7773 -0.3577
 3945TIP3   OH233249   5.199   2.930   2.261  0.3150 -0.3575  0.2861
 3945TIP3    H133250   5.234   3.017   2.282 -0.7063  0.1617 -0.1190
 3945TIP3    H233251   5.118   2.925   2.311  0.3413 -1.0632  0.2562
 3946TIP3   OH233252   3.522   5.969   1.432 -0.1239  0.2117  0.1507
 3946TIP3    H133253   3.540   6.061   1.411  0.2508  0.5978  2.0976
 3946TIP3    H233254   3.606   5.934   1.459 -0.5046 -0.3985  0.5361
 3947TIP3   OH233255   2.410   0.041   0.839 -0.2305 -0.0765 -0.5790
 3947TIP3    H133256   2.418  -0.044   0.797  0.4242  0.0405 -0.7013
 3947TIP3    H233257   2.321   0.044   0.873 -0.6603 -0.2888 -1.6940
 3948TIP3   OH233258   1.807   6.609  13.227 -0.5319  0.1430 -0.5409
 3948TIP3    H133259   1.863   6.627  13.303  0.5397 -0.3612 -1.2000
 3948TIP3    H233260   1.785   6.516  13.234 -1.8419  0.4833  0.0660
 3949TIP3   OH233261   3.253   1.522  13.026  0.1047 -0.1697 -0.1232
 3949TIP3    H133262   3.170   1.481  13.050 -0.7316  0.1085 -2.4425
 3949TIP3    H233263   3.289   1.553  13.109 -2.5900  0.6240  0.8099
 3950TIP3   OH233264   1.032   4.394   0.567 -0.2775 -0.2253  0.2902
 3950TIP3    H133265   1.049   4.423   0.657 -0.5232 -0.1479  0.3132
 3950TIP3    H233266   0.992   4.471   0.525  0.5184 -0.0170 -0.0938
 3951TIP3   OH233267   4.193   3.504   6.691  0.3496  0.1592  0.5484
 3951TIP3    H133268   4.268   3.554   6.723  0.5998  1.4031 -1.8592
 3951TIP3    H233269   4.122   3.568   6.686 -0.4999 -0.6923  1.4220
 3952TIP3   OH233270   4.307   2.090   3.928 -0.0705  0.0372  0.1756
 3952TIP3    H133271   4.263   2.173   3.948  1.3778  0.7440  0.4746
 3952TIP3    H233272   4.284   2.032   4.000 -2.4728 -0.3921 -0.8734
 3953TIP3   OH233273   3.480   2.980  11.962  0.4020 -0.1632 -0.4549
 3953TIP3    H133274   3.459   3.071  11.940  0.3890 -0.3118 -1.0652
 3953TIP3    H233275   3.486   2.979  12.057 -0.5771  0.2727 -0.3858
 3954TIP3   OH233276   1.885   2.757  13.392  0.3743  0.4255  0.4624
 3954TIP3    H133277   1.941   2.696  13.440 -0.5740  0.4723  1.6658
 3954TIP3    H233278   1.945   2.822  13.356  1.1031  0.4508  1.6963
 3955TIP3   OH233279   6.329   1.316  16.507  0.6483 -0.2740  0.0579
 3955TIP3    H133280   6.331   1.411  16.495 -0.2846  0.0567  2.2541
 3955TIP3    H233281   6.328   1.280  16.418 -2.1693  1.8621 -0.8587
 3956TIP3   OH233282   1.732   6.444  15.627 -0.3729  0.5499  0.1585
 3956TIP3    H133283   1.736   6.425  15.721  1.9988 -0.1304 -0.0321
 3956TIP3    H233284   1.653   6.400  15.597 -1.4687  1.2581  1.9354
 3957TIP3   OH233285   2.917   3.500   6.576  0.0341 -0.5862 -0.1171
 3957TIP3    H133286   2.987   3.459   6.628 -0.3938 -0.9390  0.1847
 3957TIP3    H233287   2.858   3.427   6.555 -0.6116 -0.1588  0.2239
 3958TIP3   OH233288   0.612   3.837   1.082  0.0587 -0.2422  0.5903
 3958TIP3    H133289   0.607   3.921   1.128 -0.2468 -0.5642  1.1566
 3958TIP3    H233290   0.641   3.775   1.149  0.7439 -0.5044  0.0596
 3959TIP3   OH233291   1.447   5.708  13.364  0.4206 -0.2166 -0.2145
 3959TIP3    H133292   1.355   5.690  13.385 -0.0340 -0.9609 -2.6230
 3959TIP3    H233293   1.452   5.698  13.269  2.9673  0.0365 -0.1449
 3960TIP3   OH233294   2.066   0.030  15.878  0.0600 -0.0871  0.0765
 3960TIP3    H133295   1.986   0.082  15.891  0.7741  0.8820  0.6381
 3960TIP3    H233296   2.034  -0.059  15.861 -1.1517  0.3672 -0.0958
 3961TIP3   OH233297   2.044   3.458   5.760 -0.6774  0.1126 -0.1671
 3961TIP3    H133298   2.104   3.532   5.766 -0.3506 -0.2933  2.0011
 3961TIP3    H233299   2.100   3.383   5.741 -0.8125  0.1720 -0.7876
 3962TIP3   OH233300   4.386   2.066   0.206  0.6205  0.0273  0.4511
 3962TIP3    H133301   4.323   2.034   0.142  0.8850 -1.1975  0.7929
 3962TIP3    H233302   4.366   2.018   0.286  1.4486  0.2423  0.7959
 3963TIP3   OH233303   4.224   6.665  15.969 -0.2582 -0.6545  0.5353
 3963TIP3    H133304   4.258   6.754  15.981  0.7166 -1.2169  2.0928
 3963TIP3    H233305   4.130   6.677  15.958 -0.0336  0.6325 -0.1430
 3964TIP3   OH233306   5.268   3.368   4.466  0.0054  0.0382  0.5542
 3964TIP3    H133307   5.235   3.435   4.526  1.1193  1.0857  0.0222
 3964TIP3    H233308   5.195   3.352   4.405 -0.8812 -0.5296  1.7491
 3965TIP3   OH233309   2.810   5.270   5.100  0.3441 -0.4184 -0.0172
 3965TIP3    H133310   2.904   5.288   5.095  0.6094 -2.1044 -1.4324
 3965TIP3    H233311   2.803   5.193   5.156 -0.2505 -0.0656  0.4022
 3966TIP3   OH233312   2.873   0.743   5.348  0.1816 -0.1963 -0.2153
 3966TIP3    H133313   2.930   0.773   5.418  0.9076 -2.5640  0.2774
 3966TIP3    H233314   2.785   0.765   5.378  0.6620  1.3098  0.1290
 3967TIP3   OH233315   3.432   5.837  14.486 -0.0680  0.0435 -0.1651
 3967TIP3    H133316   3.466   5.765  14.540 -1.1079  0.1222  0.6191
 3967TIP3    H233317   3.372   5.884  14.544 -1.7065 -0.2518 -1.5801
 3968TIP3   OH233318   2.038   4.152   3.932 -0.1385 -0.4356  0.2090
 3968TIP3    H133319   1.971   4.220   3.929 -0.3068 -0.5895  0.4345
 3968TIP3    H233320   2.097   4.172   3.859 -0.8461 -0.7303 -0.4487
 3969TIP3   OH233321   2.055   3.134  15.581  0.2102 -0.1875 -0.3414
 3969TIP3    H133322   2.083   3.223  15.605 -0.2022  0.3412 -1.7170
 3969TIP3    H233323   2.078   3.127  15.488 -1.7811 -0.7127 -0.8127
 3970TIP3   OH233324   4.371   0.265   0.839 -0.2665 -0.2261 -0.4949
 3970TIP3    H133325   4.361   0.214   0.919  0.0639  0.9532  0.3120
 3970TIP3    H233326   4.449   0.319   0.855 -0.9244  0.9053 -1.1233
 3971TIP3   OH233327   6.227   0.449   0.607  0.6044 -0.2622  0.2893
 3971TIP3    H133328   6.235   0.517   0.674  1.9314 -1.1742  1.0788
 3971TIP3    H233329   6.262   0.489   0.527  0.3258  0.3618  0.4814
 3972TIP3   OH233330   5.272   4.189  16.090  0.5472 -0.1970 -0.4898
 3972TIP3    H133331   5.336   4.228  16.150  0.4310 -0.0465 -0.4659
 3972TIP3    H233332   5.227   4.263  16.050  0.6241 -0.2981 -0.7640
 3973TIP3   OH233333   2.800   4.028   2.149  0.9392 -0.4072  0.1394
 3973TIP3    H133334   2.713   3.992   2.167  0.4597  0.8787  0.4639
 3973TIP3    H233335   2.849   3.955   2.113 -0.4139 -1.0366 -0.4669
 3974TIP3   OH233336   6.472   2.313  12.953  0.5093 -0.1088  0.3262
 3974TIP3    H133337   6.383   2.320  12.986 -0.2290  1.3558 -1.8953
 3974TIP3    H233338   6.527   2.348  13.023 -0.8587  1.2035  0.7577
 3975TIP3   OH233339   2.202   5.844  14.364 -0.2762 -0.3731  0.0076
 3975TIP3    H133340   2.221   5.752  14.383 -0.7367 -0.7245 -1.2297
 3975TIP3    H233341   2.228   5.856  14.273 -1.4770  0.3872 -0.2385
 3976TIP3   OH233342   6.385   0.940   1.717 -0.2077 -0.0437  0.3948
 3976TIP3    H133343   6.327   0.879   1.762 -0.2092  1.7626  2.9081
 3976TIP3    H233344   6.468   0.936   1.765 -0.1510  1.7657  0.5074
 3977TIP3   OH233345   3.379   5.188  17.031 -0.0347  0.7840 -0.3605
 3977TIP3    H133346   3.313   5.133  16.989 -0.8730  1.1000  0.5352
 3977TIP3    H233347   3.329   5.259  17.072  0.9914  1.9517 -1.0853
 3978TIP3   OH233348   1.709   0.936  11.230  0.3203  0.2521  0.6568
 3978TIP3    H133349   1.692   0.981  11.147 -0.0853 -0.3354  0.4215
 3978TIP3    H233350   1.804   0.926  11.232  0.3260  0.2321  0.2477
 3979TIP3   OH233351   0.483   2.104   5.224  0.2781  0.4114  0.2430
 3979TIP3    H133352   0.545   2.128   5.293 -0.3809 -0.3580  1.0951
 3979TIP3    H233353   0.533   2.047   5.166  0.1519 -0.8870  1.3791
 3980TIP3   OH233354   0.636   2.444  16.642  0.2037  0.4692 -0.0172
 3980TIP3    H133355   0.629   2.520  16.699 -2.1306  0.7662 -0.6503
 3980TIP3    H233356   0.687   2.474  16.566  2.5256  0.3187  1.4442
 3981TIP3   OH233357   5.106   2.046   1.257  0.0212 -0.4948  0.2054
 3981TIP3    H133358   5.166   2.020   1.326  0.5642 -0.1727 -0.1450
 3981TIP3    H233359   5.061   2.123   1.291  0.0529 -0.5293  0.3245
 3982TIP3   OH233360   0.813   4.238  13.402 -0.8469  0.0034 -0.4302
 3982TIP3    H133361   0.813   4.189  13.484 -2.2855 -1.5391 -1.3031
 3982TIP3    H233362   0.723   4.271  13.394 -0.7277  0.1115 -1.3861
 3983TIP3   OH233363   4.054   2.546  14.268 -0.1943 -0.5982  0.6954
 3983TIP3    H133364   4.089   2.615  14.324 -0.1971  0.1033 -0.1515
 3983TIP3    H233365   3.970   2.580  14.237  1.3053  0.5114 -2.3983
 3984TIP3   OH233366   4.061   5.469   6.131  0.0536 -0.1201 -0.1842
 3984TIP3    H133367   4.117   5.436   6.202  1.0759 -1.0927 -1.4250
 3984TIP3    H233368   3.977   5.426   6.145  1.0153 -2.3231 -1.0687
 3985TIP3   OH233369   0.667   0.272   1.708  0.0305 -0.5896  0.0448
 3985TIP3    H133370   0.683   0.181   1.735  1.1400  0.1445  1.9002
 3985TIP3    H233371   0.636   0.315   1.787  1.4494  1.1259 -0.3068
 3986TIP3   OH233372   5.415   5.202  10.779 -0.4268  0.2874 -0.0874
 3986TIP3    H133373   5.347   5.142  10.749 -0.8938  1.4523 -1.4732
 3986TIP3    H233374   5.485   5.193  10.714  0.2487 -0.0527  0.6847
 3987TIP3   OH233375   5.080   3.833  17.141  0.0177  0.5803 -0.4746
 3987TIP3    H133376   5.132   3.877  17.074  0.9558 -0.9200 -0.7489
 3987TIP3    H233377   5.025   3.903  17.178  0.9484  1.8239 -1.3917
 3988TIP3   OH233378   5.213   5.481  11.886  0.5339  0.2489 -0.4911
 3988TIP3    H133379   5.203   5.502  11.794  2.6211  0.7713 -0.6225
 3988TIP3    H233380   5.206   5.565  11.931  0.2286  0.0848 -0.2239
 3989TIP3   OH233381   6.007   2.078  13.891 -0.5168  0.1543 -0.4925
 3989TIP3    H133382   5.962   2.129  13.958  0.2145  1.3353 -0.8774
 3989TIP3    H233383   5.941   2.019  13.856 -1.5526  1.3271 -0.5196
 3990TIP3   OH233384   4.320   1.645  14.391  0.0428  0.3939  1.0271
 3990TIP3    H133385   4.327   1.585  14.316 -2.0066  0.8742  0.4278
 3990TIP3    H233386   4.332   1.588  14.468 -1.4486 -0.7353  0.4494
 3991TIP3   OH233387   0.876   0.976  14.790  0.0028  0.0505 -0.0771
 3991TIP3    H133388   0.866   0.884  14.764 -1.1479  0.1535 -0.0068
 3991TIP3    H233389   0.969   0.985  14.809  0.0175 -1.2705  0.5339
 3992TIP3   OH233390   6.702   6.172  11.601  0.2439  0.2288 -0.0917
 3992TIP3    H133391   6.707   6.267  11.608  0.2908  0.1799  0.5479
 3992TIP3    H233392   6.750   6.140  11.677 -1.6433 -0.3015  0.9067
 3993TIP3   OH233393   0.806   5.867   5.876  0.2335 -0.3582  0.2714
 3993TIP3    H133394   0.714   5.885   5.898 -0.0487 -0.8445 -0.4960
 3993TIP3    H233395   0.854   5.941   5.914 -0.2369 -1.1412  2.4344
 3994TIP3   OH233396   2.069   6.447   4.911 -0.1147 -0.3718  0.9615
 3994TIP3    H133397   2.019   6.366   4.904 -0.1051 -0.3737  0.9158
 3994TIP3    H233398   2.017   6.512   4.863  0.9390 -0.8515 -0.8565
 3995TIP3   OH233399   1.934   0.538  15.065  0.2151 -0.0383 -0.1352
 3995TIP3    H133400   1.879   0.606  15.105 -0.5023 -0.8411  0.2681
 3995TIP3    H233401   2.016   0.543  15.113 -0.2475 -0.2407  0.6861
 3996TIP3   OH233402   3.630   0.439   4.240  0.2187 -0.2273  0.9184
 3996TIP3    H133403   3.653   0.516   4.293  0.3050 -0.4230  1.1693
 3996TIP3    H233404   3.673   0.366   4.285  1.2873 -0.2362 -0.0983
 3997TIP3   OH233405   6.502   1.415  15.494  0.8652 -0.4103  0.4291
 3997TIP3    H133406   6.557   1.430  15.572  0.8244 -0.2403  0.4234
 3997TIP3    H233407   6.486   1.502  15.458  0.5957 -0.4600  0.4269
 3998TIP3   OH233408   2.004   2.116   1.668 -0.0876  0.2722  0.1935
 3998TIP3    H133409   2.005   2.031   1.711 -1.0907 -0.0870 -0.4865
 3998TIP3    H233410   2.096   2.134   1.648  0.0008 -1.2385 -0.8013
 3999TIP3   OH233411   6.335   4.246   5.039  0.2220  0.4520  0.4047
 3999TIP3    H133412   6.360   4.338   5.049 -1.1220  0.9766 -0.8570
 3999TIP3    H233413   6.397   4.212   4.975 -0.4884  1.0067 -0.5968
 4000TIP3   OH233414   5.934   4.105   5.979 -0.6259 -0.1663  0.0264
 4000TIP3    H133415   5.990   4.130   6.052 -1.6876 -2.2604  1.6268
 4000TIP3    H233416   5.862   4.057   6.020 -1.4156 -1.0882 -2.3696
 4001TIP3   OH233417   2.325   0.701   3.402  0.1523 -0.4251 -0.0673
 4001TIP3    H133418   2.366   0.751   3.472 -0.2605  0.9660 -0.8066
 4001TIP3    H233419   2.327   0.610   3.433  3.4484 -0.3538  0.0832
 4002TIP3   OH233420   0.488   2.781   2.062  0.6465  0.2151  0.1273
 4002TIP3    H133421   0.510   2.737   1.980  1.2480  1.1405 -0.2275
 4002TIP3    H233422   0.571   2.821   2.090 -0.0815  1.9506 -0.0993
 4003TIP3   OH233423   0.094   3.300  13.087 -0.0892  0.6812 -0.1935
 4003TIP3    H133424   0.181   3.322  13.121  0.1781 -1.1098  0.3562
 4003TIP3    H233425   0.033   3.345  13.146  0.4442  0.6409  0.3985
 4004TIP3   OH233426   5.355   1.050   3.529  0.1913  0.1207 -0.2871
 4004TIP3    H133427   5.271   1.070   3.486  0.1907 -0.5482 -0.6048
 4004TIP3    H233428   5.333   1.036   3.621 -0.0617 -0.1668 -0.3922
 4005TIP3   OH233429   2.422   4.167  11.266 -0.2515  0.0360  0.1393
 4005TIP3    H133430   2.389   4.104  11.330  1.4180 -1.0938 -0.0785
 4005TIP3    H233431   2.409   4.124  11.182  2.1271 -0.6398  0.0697
 4006TIP3   OH233432   6.498   3.461   3.477  0.2406  0.1183 -0.0137
 4006TIP3    H133433   6.529   3.551   3.467  0.8630  0.1454  1.8763
 4006TIP3    H233434   6.449   3.443   3.397  0.7082  1.8936 -0.7209
 4007TIP3   OH233435   5.798   6.536   1.892  0.9975 -0.8935  0.3140
 4007TIP3    H133436   5.736   6.516   1.962  0.8210  0.0112  0.4132
 4007TIP3    H233437   5.884   6.514   1.929  0.8209 -1.2938  0.4872
 4008TIP3   OH233438   5.447   2.812  12.226 -0.2880  0.1340  0.4569
 4008TIP3    H133439   5.507   2.756  12.275  0.1329  0.6720  0.5597
 4008TIP3    H233440   5.364   2.763  12.225  0.5190 -1.2594 -0.8765
 4009TIP3   OH233441   0.021   4.269   4.900  0.0628  0.4119  0.3393
 4009TIP3    H133442   0.056   4.343   4.850 -2.5110  1.3026 -0.2688
 4009TIP3    H233443   0.086   4.200   4.890 -0.1948  0.6596 -4.0411
 4010TIP3   OH233444   4.199   4.659  12.885 -0.8272  0.2677  0.2613
 4010TIP3    H133445   4.112   4.634  12.916 -1.6316  0.8271 -1.5238
 4010TIP3    H233446   4.232   4.581  12.840 -0.6280  0.2407  0.4519
 4011TIP3   OH233447   3.672   2.309   3.524  0.2477  0.0611  1.0592
 4011TIP3    H133448   3.645   2.390   3.566  1.3374  1.0457 -0.1044
 4011TIP3    H233449   3.763   2.296   3.552  1.5627  1.5962 -2.1487
 4012TIP3   OH233450   1.228   2.580  14.770  0.3586 -0.4804 -0.5200
 4012TIP3    H133451   1.182   2.589  14.687  0.9718  1.2083 -0.6992
 4012TIP3    H233452   1.188   2.505  14.812 -2.4789  0.8661 -0.7237
 4013TIP3   OH233453   4.166   1.134  16.359  0.2335 -0.1517 -0.3105
 4013TIP3    H133454   4.222   1.212  16.356 -0.4268  0.3903  1.0648
 4013TIP3    H233455   4.109   1.142  16.283 -0.3691  1.1292  0.2592
 4014TIP3   OH233456   1.842   3.685  13.075 -0.0345 -0.8603  0.4915
 4014TIP3    H133457   1.839   3.603  13.125  1.1948 -0.8779  0.5408
 4014TIP3    H233458   1.756   3.724  13.090 -0.5051 -1.9662  0.7611
 4015TIP3   OH233459   6.628   0.620  14.598 -0.3528  0.5503  0.2047
 4015TIP3    H133460   6.644   0.624  14.692  0.1993 -1.8000  0.2462
 4015TIP3    H233461   6.709   0.651  14.558  0.3686 -0.8831  0.5104
 4016TIP3   OH233462   0.476   0.916   4.473 -0.2847  0.2007 -0.2406
 4016TIP3    H133463   0.565   0.925   4.505  0.4096  0.0989 -2.0923
 4016TIP3    H233464   0.431   0.995   4.504  0.3964  0.2036  0.7751
 4017TIP3   OH233465   5.565   2.366  16.093  0.0808 -0.1252  0.2136
 4017TIP3    H133466   5.628   2.295  16.078 -0.4322 -0.1760 -1.9251
 4017TIP3    H233467   5.480   2.328  16.071 -0.2378  1.0392 -0.6164
 4018TIP3   OH233468   2.073   4.416   2.067 -0.0455  0.0534 -0.6105
 4018TIP3    H133469   2.125   4.362   2.126  0.1020  0.8722  0.0176
 4018TIP3    H233470   2.005   4.356   2.034  0.4243 -0.6435 -0.3265
 4019TIP3   OH233471   0.380   2.659  16.721 -0.2751  0.3786  0.3637
 4019TIP3    H133472   0.419   2.735  16.677  1.1051 -0.8189 -0.5409
 4019TIP3    H233473   0.383   2.681  16.814 -0.5890  1.7500  0.0541
 4020TIP3   OH233474   3.796   1.884  12.491  0.1407 -0.3613 -0.2632
 4020TIP3    H133475   3.760   1.857  12.406  1.7849  0.0389 -1.0972
 4020TIP3    H233476   3.760   1.971  12.505 -1.6680 -1.1712  0.3840
 4021TIP3   OH233477   1.716   6.176  13.591  0.1334  0.1627  0.0731
 4021TIP3    H133478   1.681   6.178  13.680  1.4434 -1.7501  0.6735
 4021TIP3    H233479   1.666   6.106  13.548  2.7299 -2.2169  0.7803
 4022TIP3   OH233480   2.171   3.521  16.618  0.2172  0.0480 -0.7346
 4022TIP3    H133481   2.125   3.526  16.534  1.2337 -1.7808 -1.4324
 4022TIP3    H233482   2.160   3.431  16.646  2.3660 -0.1111 -0.3396
 4023TIP3   OH233483   5.669   4.147   3.961 -0.2730 -0.4918  0.4562
 4023TIP3    H133484   5.719   4.068   3.938  0.4275 -0.0989  0.6270
 4023TIP3    H233485   5.697   4.213   3.899  1.1399  0.3874  1.9832
 4024TIP3   OH233486   6.407   5.466   3.255  0.1122 -0.5613 -0.4717
 4024TIP3    H133487   6.353   5.519   3.195 -0.2083  0.0617  0.3560
 4024TIP3    H233488   6.494   5.466   3.215 -0.0459  0.0454 -0.8295
 4025TIP3   OH233489   5.905   1.576   0.295 -0.3713 -0.0548 -0.0727
 4025TIP3    H133490   5.848   1.648   0.321  0.1025  0.0061  0.8248
 4025TIP3    H233491   5.968   1.616   0.236  1.9422  1.0316  2.9801
 4026TIP3   OH233492   6.150   0.487   2.661  0.3929  0.3828  0.3390
 4026TIP3    H133493   6.087   0.554   2.688  1.5197  1.7306 -0.3697
 4026TIP3    H233494   6.224   0.499   2.720  0.4344 -0.5165  0.4757
 4027TIP3   OH233495   0.698   2.257  16.111  0.8594 -0.4691  0.7261
 4027TIP3    H133496   0.763   2.195  16.145  1.2289  0.6760  2.1787
 4027TIP3    H233497   0.615   2.228  16.147  0.6770 -1.4027 -0.4017
 4028TIP3   OH233498   4.372   1.131  17.218 -0.2068 -0.7334 -0.3680
 4028TIP3    H133499   4.447   1.147  17.161  0.2892 -0.8783  0.2357
 4028TIP3    H233500   4.297   1.132  17.159  0.3124 -1.0161 -1.0491
 4029TIP3   OH233501   1.682   3.949   5.072 -0.7367  0.1346  0.1650
 4029TIP3    H133502   1.776   3.929   5.072 -0.4754  1.3065  0.5099
 4029TIP3    H233503   1.646   3.897   5.144 -0.0536  0.9535  1.1148
 4030TIP3   OH233504   1.111   2.627   5.742 -0.2179 -0.3516 -0.4617
 4030TIP3    H133505   1.075   2.640   5.655 -0.9236 -0.9413 -0.2704
 4030TIP3    H233506   1.052   2.675   5.800 -0.3401 -0.8059 -0.2065
 4031TIP3   OH233507   4.443   0.314  13.900 -0.1083 -0.1905 -0.1518
 4031TIP3    H133508   4.509   0.381  13.920 -0.7684  0.4238 -0.0013
 4031TIP3    H233509   4.490   0.231  13.908  0.9299  0.2885 -1.1780
 4032TIP3   OH233510   5.457   1.245   1.920 -0.3791 -0.0735 -0.0453
 4032TIP3    H133511   5.456   1.292   1.837 -1.1759  0.6447  0.3661
 4032TIP3    H233512   5.526   1.287   1.971  1.3260 -1.6672 -0.9905
 4033TIP3   OH233513   1.776   0.525   0.976 -0.1856 -0.4520 -0.1029
 4033TIP3    H133514   1.693   0.478   0.988 -0.0931 -0.5705  0.0755
 4033TIP3    H233515   1.752   0.605   0.930 -0.2745 -0.9376 -0.9245
 4034TIP3   OH233516   3.502   5.810   5.959  0.4041  0.2580  0.3752
 4034TIP3    H133517   3.595   5.833   5.948  0.1667  1.3352  0.6093
 4034TIP3    H233518   3.489   5.737   5.898  1.3815  0.1603  0.2680
 4035TIP3   OH233519   1.068   4.134   1.985  0.0728  0.0032 -0.0125
 4035TIP3    H133520   1.026   4.147   1.900 -0.2595  0.1060  0.1655
 4035TIP3    H233521   1.087   4.040   1.989 -0.9081 -0.1897  0.2600
 4036TIP3   OH233522   6.585   4.964  15.213  0.2673 -0.4648 -0.6176
 4036TIP3    H133523   6.552   5.048  15.246 -0.4932 -0.6748 -0.8332
 4036TIP3    H233524   6.529   4.898  15.254  1.3005 -0.9191  0.0812
 4037TIP3   OH233525   2.905   3.584  11.946  0.4472  0.1844 -0.3839
 4037TIP3    H133526   2.887   3.648  11.877  0.8126 -0.6032 -1.2258
 4037TIP3    H233527   2.992   3.549  11.925  1.2881  1.1065  1.4091
 4038TIP3   OH233528   4.585   0.112   2.441  0.2914 -0.1432  0.1214
 4038TIP3    H133529   4.597   0.111   2.346  0.6347 -1.1638  0.1686
 4038TIP3    H233530   4.622   0.196   2.469  0.2089  0.1508 -0.6440
 4039TIP3   OH233531   5.145   3.169   0.068 -0.5441 -0.2651 -0.1709
 4039TIP3    H133532   5.093   3.231   0.018  1.3733 -0.6841 -2.8046
 4039TIP3    H233533   5.218   3.221   0.102 -0.9736 -0.3137  0.8290
 4040TIP3   OH233534   2.354   0.844   5.068 -0.2299 -0.0337  0.0451
 4040TIP3    H133535   2.351   0.893   5.150  0.0064  1.5054 -0.8299
 4040TIP3    H233536   2.373   0.911   5.002  0.8497 -1.4345 -1.0970
 4041TIP3   OH233537   3.738   4.409   0.757  0.4430  0.0584 -0.1073
 4041TIP3    H133538   3.660   4.418   0.703 -0.0503  2.1046  0.9159
 4041TIP3    H233539   3.811   4.434   0.700 -0.0267  1.7552  0.0264
 4042TIP3   OH233540   4.951   6.730  14.735  0.8232  0.5637 -0.1670
 4042TIP3    H133541   4.925   6.698  14.821  0.8626  0.0399 -0.3479
 4042TIP3    H233542   4.868   6.742  14.688  0.8402  0.0764 -0.3261
 4043TIP3   OH233543   3.436   4.795  13.259  0.0860 -0.1243  0.4019
 4043TIP3    H133544   3.405   4.843  13.183  0.3672  2.6826  1.9776
 4043TIP3    H233545   3.356   4.770  13.306 -0.0438 -0.7319 -0.1410
 4044TIP3   OH233546   6.367   3.057  11.637 -0.1003  0.1256 -0.3616
 4044TIP3    H133547   6.302   3.126  11.642 -0.2543 -0.1252  1.3231
 4044TIP3    H233548   6.389   3.037  11.728  2.8445  0.6794 -0.9006
 4045TIP3   OH233549   2.246   4.611   2.894 -0.0029  0.4384  0.5304
 4045TIP3    H133550   2.321   4.585   2.947  0.6032  1.3005  0.1074
 4045TIP3    H233551   2.282   4.670   2.828 -0.8351 -0.1998 -0.5222
 4046TIP3   OH233552   2.160   0.915   6.069  0.1632 -0.0295 -0.0776
 4046TIP3    H133553   2.153   0.961   6.152  0.8333 -1.1157  0.5891
 4046TIP3    H233554   2.226   0.964   6.020  0.6885 -0.1258  0.5275
 4047TIP3   OH233555   3.972   4.290   5.967 -0.1545 -0.1320 -0.1312
 4047TIP3    H133556   3.942   4.374   6.002 -1.3925 -0.6758  0.1358
 4047TIP3    H233557   4.009   4.245   6.042 -0.6488 -0.3297  0.0012
 4048TIP3   OH233558   4.682   3.356  14.704  0.2784  0.0960 -0.2811
 4048TIP3    H133559   4.626   3.388  14.775  1.5939 -0.4834  1.0366
 4048TIP3    H233560   4.729   3.434  14.674 -1.6314  0.7029 -1.7947
 4049TIP3   OH233561   1.702   3.553  15.972 -0.1268 -0.3463 -0.8251
 4049TIP3    H133562   1.611   3.584  15.980 -0.4925 -1.6601  0.3998
 4049TIP3    H233563   1.694   3.466  15.932  0.6532 -0.1415 -1.4292
 4050TIP3   OH233564   2.099   4.319   2.499  0.2532 -0.4976  0.1194
 4050TIP3    H133565   2.047   4.273   2.565 -1.0185 -0.2382 -0.6973
 4050TIP3    H233566   2.190   4.303   2.526 -0.2137 -1.6047  1.1090
 4051TIP3   OH233567   3.095   0.782  10.846  0.3673 -0.4517 -0.5336
 4051TIP3    H133568   3.112   0.778  10.752  0.8702 -2.4226 -0.3694
 4051TIP3    H233569   3.132   0.701  10.880  1.4125  0.8577  1.5568
 4052TIP3   OH233570   1.986   6.085  15.186  0.4883  0.2796  0.0546
 4052TIP3    H133571   1.892   6.092  15.167  0.3055 -2.1316 -0.0962
 4052TIP3    H233572   1.991   6.021  15.257  2.2185 -2.0965 -2.1168
 4053TIP3   OH233573   5.612   2.085  13.916  0.1806 -0.3051 -0.0989
 4053TIP3    H133574   5.659   2.168  13.904  1.1066 -0.5691  1.5540
 4053TIP3    H233575   5.534   2.094  13.862  0.9163  1.1342 -0.9514
 4054TIP3   OH233576   0.383   2.966  12.548 -0.0882  0.6467  0.0982
 4054TIP3    H133577   0.437   3.019  12.606 -0.9913  0.8127  0.8020
 4054TIP3    H233578   0.303   2.949  12.598  0.0325 -1.0754 -0.2505
 4055TIP3   OH233579   1.960   1.289   0.553  0.0748  0.1696 -0.3497
 4055TIP3    H133580   2.036   1.339   0.523 -0.2703  0.0607 -1.4057
 4055TIP3    H233581   1.948   1.221   0.486 -1.1295  0.3585 -0.3300
 4056TIP3   OH233582   1.165   0.302  11.006 -0.2116  0.8801  0.2330
 4056TIP3    H133583   1.125   0.320  10.921 -0.8390  0.8874  0.5285
 4056TIP3    H233584   1.259   0.315  10.991 -0.1886 -0.3646 -0.7735
 4057TIP3   OH233585   2.495   0.085  12.345 -0.1229  0.2119 -0.7279
 4057TIP3    H133586   2.404   0.116  12.341 -0.3496 -0.3024  0.1635
 4057TIP3    H233587   2.508   0.062  12.437  1.2962  1.3988 -0.6259
 4058TIP3   OH233588   3.771   5.689   4.195  0.7934 -0.9080  0.3161
 4058TIP3    H133589   3.784   5.776   4.231  1.7319 -1.0513  0.3517
 4058TIP3    H233590   3.691   5.696   4.142  0.5435 -0.1839  0.7864
 4059TIP3   OH233591   0.745   6.050   5.054 -0.1634 -0.6101 -0.0446
 4059TIP3    H133592   0.654   6.027   5.036 -0.0022 -0.7089 -0.7464
 4059TIP3    H233593   0.743   6.089   5.142 -0.6782 -1.8094  0.4912
 4060TIP3   OH233594   0.693   4.283   1.499 -0.1260  0.2608 -0.1529
 4060TIP3    H133595   0.727   4.294   1.410  2.6818  1.0205  0.9505
 4060TIP3    H233596   0.677   4.372   1.530 -2.0032 -0.0405 -0.2005
 4061TIP3   OH233597   5.023   0.088   2.790 -1.3178  0.1358 -0.2206
 4061TIP3    H133598   5.092   0.082   2.856 -1.2491  1.5063 -0.1588
 4061TIP3    H233599   5.008  -0.003   2.763  2.2352 -0.0216 -1.9813
 4062TIP3   OH233600   0.648   3.429  14.521  0.8747 -0.1969 -0.4540
 4062TIP3    H133601   0.648   3.521  14.547  0.5203 -0.4449  0.4381
 4062TIP3    H233602   0.593   3.426  14.442  1.3725  0.4452 -0.8311
 4063TIP3   OH233603   2.569   5.312  15.095  0.4277 -0.6900  0.2230
 4063TIP3    H133604   2.609   5.241  15.045 -2.4629 -1.2990 -1.3283
 4063TIP3    H233605   2.568   5.387  15.035  1.4240  0.0257  1.0814
 4064TIP3   OH233606   1.045   6.508   2.147  0.2453 -0.6428  0.1161
 4064TIP3    H133607   1.022   6.445   2.079 -1.1511 -0.9553  0.8524
 4064TIP3    H233608   1.056   6.455   2.226  1.7731 -0.2716  0.1693
 4065TIP3   OH233609   4.783   1.827  13.620 -0.6469 -0.6018  0.1838
 4065TIP3    H133610   4.878   1.833  13.632 -0.6893 -0.5743  0.4975
 4065TIP3    H233611   4.766   1.734  13.607 -0.5617 -0.5923 -0.0003
 4066TIP3   OH233612   1.266   1.782  14.681 -0.1730 -0.2985 -0.2854
 4066TIP3    H133613   1.303   1.837  14.749 -0.2483 -1.2949  0.5722
 4066TIP3    H233614   1.226   1.708  14.728  2.4290 -2.5879 -1.5440
 4067TIP3   OH233615   0.448   0.693  13.839  0.2259 -0.1792  0.0961
 4067TIP3    H133616   0.497   0.767  13.800 -0.5646  0.2018 -0.1800
 4067TIP3    H233617   0.394   0.660  13.767 -1.5499  0.7780  0.9594
 4068TIP3   OH233618   6.054   5.952  14.739 -0.0815  0.4061 -0.1661
 4068TIP3    H133619   6.121   5.883  14.736 -0.9454 -0.4132 -1.0667
 4068TIP3    H233620   5.986   5.916  14.796  0.2494  1.2507  0.7700
 4069TIP3   OH233621   2.255   2.257  15.711  0.6631  0.4606 -0.0386
 4069TIP3    H133622   2.301   2.280  15.791 -0.8040  1.0304  0.6648
 4069TIP3    H233623   2.305   2.184  15.674  0.6351 -0.6641  2.0786
 4070TIP3   OH233624   3.872   2.315  12.085 -0.3288  0.3141  0.6372
 4070TIP3    H133625   3.782   2.344  12.096  0.0259  1.1370  1.5210
 4070TIP3    H233626   3.914   2.385  12.036 -0.0443  0.1909  0.7021
 4071TIP3   OH233627   0.477   1.238  17.103 -0.1537  0.3666 -0.8127
 4071TIP3    H133628   0.563   1.220  17.142 -0.1217 -0.1167 -1.1068
 4071TIP3    H233629   0.433   1.153  17.102 -0.8906  0.7339 -0.0564
 4072TIP3   OH233630   6.178   6.056  16.231  0.9006  0.3150  0.6032
 4072TIP3    H133631   6.192   5.962  16.229 -0.6333  0.0935 -0.6114
 4072TIP3    H233632   6.228   6.089  16.156  0.2392  0.2939  0.1521
 4073TIP3   OH233633   2.480   3.098  11.078  0.6226  0.3700 -0.4936
 4073TIP3    H133634   2.418   3.066  11.013  0.5790  0.4115 -0.4731
 4073TIP3    H233635   2.565   3.067  11.048  0.6863  0.9620 -0.9269
 4074TIP3   OH233636   0.365   1.119  13.378  0.0376  0.1916 -0.2204
 4074TIP3    H133637   0.425   1.100  13.305  1.1877 -1.2557  1.0785
 4074TIP3    H233638   0.419   1.168  13.440 -0.2158 -0.7904  0.7873
 4075TIP3   OH233639   0.849   5.036  11.985  0.1238 -0.0217  0.1867
 4075TIP3    H133640   0.854   5.008  11.894 -0.4958  1.5299 -0.3407
 4075TIP3    H233641   0.932   5.008  12.024 -0.1891 -1.9097 -0.4964
 4076TIP3   OH233642   1.790   5.677  13.617 -0.9409  0.7773 -0.1196
 4076TIP3    H133643   1.764   5.769  13.616 -0.5138  0.8893 -0.9407
 4076TIP3    H233644   1.798   5.655  13.710 -0.3838  1.7506  0.0653
 4077TIP3   OH233645   5.306   5.583   3.524  0.6193  0.1284  0.0582
 4077TIP3    H133646   5.243   5.532   3.574  0.7712 -0.6226 -0.5066
 4077TIP3    H233647   5.258   5.661   3.498  0.4839  0.4363  1.2015
 4078TIP3   OH233648   4.576   6.237   0.307 -0.4198 -0.9867  0.0294
 4078TIP3    H133649   4.619   6.152   0.320  1.6874  0.2175  1.2501
 4078TIP3    H233650   4.639   6.301   0.340 -2.2048  1.0314 -0.3570
 4079TIP3   OH233651   4.069   4.420   1.511 -0.7862  0.2804 -0.2827
 4079TIP3    H133652   4.051   4.442   1.602  0.0833  0.6445 -0.1950
 4079TIP3    H233653   4.163   4.403   1.508 -1.0568 -1.2981 -0.7900
 4080TIP3   OH233654   0.809   0.009  12.656  0.3536 -0.0968 -0.4412
 4080TIP3    H133655   0.744   0.077  12.641  0.1305 -0.1167  0.4070
 4080TIP3    H233656   0.883   0.054  12.696 -0.3593 -0.5595  1.4842
 4081TIP3   OH233657   0.108   5.501   3.270 -1.0922 -0.2592  0.9544
 4081TIP3    H133658   0.027   5.479   3.223 -0.3225 -0.2704 -0.4134
 4081TIP3    H233659   0.106   5.596   3.278 -0.4908 -0.0890 -0.5578
 4082TIP3   OH233660   5.512   2.471  14.446  0.1724  0.0502 -0.0344
 4082TIP3    H133661   5.485   2.410  14.515 -0.1907  0.3526  0.1012
 4082TIP3    H233662   5.584   2.520  14.485 -1.0991  1.3486  0.7592
 4083TIP3   OH233663   4.831   4.892   5.633 -0.9450 -0.4795 -0.0598
 4083TIP3    H133664   4.880   4.810   5.635 -0.6833 -0.2986  1.2810
 4083TIP3    H233665   4.869   4.945   5.703 -1.2954  0.6815 -0.7389
 4084TIP3   OH233666   5.587   0.263  16.394 -0.2195 -1.0233 -0.0009
 4084TIP3    H133667   5.679   0.291  16.392 -0.0719 -1.4446  0.7113
 4084TIP3    H233668   5.578   0.205  16.318  0.2248 -1.3369  0.1789
 4085TIP3   OH233669   4.347   2.015  12.864 -0.2550 -0.2169 -0.2229
 4085TIP3    H133670   4.308   1.949  12.920  0.5858 -1.9459 -1.6304
 4085TIP3    H233671   4.442   2.002  12.872 -0.0559  1.0892 -0.1972
 4086TIP3   OH233672   4.988   2.088   6.224 -0.2278  1.0737  0.0695
 4086TIP3    H133673   4.926   2.015   6.220 -1.0211  1.7650 -0.3544
 4086TIP3    H233674   5.074   2.046   6.230 -0.7180  0.1074  0.4485
 4087TIP3   OH233675   6.081   2.309   1.046 -0.1390  0.1965 -0.1883
 4087TIP3    H133676   6.113   2.373   1.110 -0.8650 -0.1311  0.5196
 4087TIP3    H233677   6.007   2.353   1.004 -0.8381 -0.2806  0.5209
 4088TIP3   OH233678   4.327   0.843   4.031  0.0966 -0.1904 -0.0261
 4088TIP3    H133679   4.403   0.901   4.024 -0.2528  0.0414 -2.1512
 4088TIP3    H233680   4.364   0.755   4.023  0.0792 -0.0492 -1.8519
 4089TIP3   OH233681   6.293   4.247   0.193  0.1296 -0.4216  0.1127
 4089TIP3    H133682   6.247   4.292   0.121 -0.2467 -0.9668  0.0090
 4089TIP3    H233683   6.344   4.316   0.236  0.3179 -0.0812 -0.6475
 4090TIP3   OH233684   0.155   4.385  10.928  0.5075 -0.5765 -0.2043
 4090TIP3    H133685   0.172   4.478  10.911 -1.1486 -0.3201 -0.4897
 4090TIP3    H233686   0.235   4.354  10.971  0.8976  1.0800  0.3059
 4091TIP3   OH233687   1.990   3.805  11.195 -0.3245 -0.4111 -0.2519
 4091TIP3    H133688   1.927   3.847  11.137 -1.7513 -0.0163  1.5489
 4091TIP3    H233689   1.943   3.794  11.277  2.9983  3.0028  2.2348
 4092TIP3   OH233690   2.387   4.952  12.385  0.5844  0.0673 -0.6752
 4092TIP3    H133691   2.415   4.933  12.296 -1.2745  1.1734 -1.5181
 4092TIP3    H233692   2.313   4.894  12.400 -1.0982  2.0592 -1.0094
 4093TIP3   OH233693   0.543   2.254  11.892  0.0115 -0.2504 -0.2370
 4093TIP3    H133694   0.602   2.327  11.907 -0.7289  0.1280  0.9063
 4093TIP3    H233695   0.549   2.202  11.972  0.1367 -1.1585 -0.8300
 4094TIP3   OH233696   3.859   3.081  15.844  0.4799  0.2824  0.2886
 4094TIP3    H133697   3.809   3.120  15.773 -0.1849 -0.3073  0.4370
 4094TIP3    H233698   3.950   3.083  15.813  0.1497 -0.3370 -0.7468
 4095TIP3   OH233699   4.193   4.101  11.172 -0.0195  0.3686 -0.2727
 4095TIP3    H133700   4.133   4.068  11.239 -0.3357 -1.5517 -1.4551
 4095TIP3    H233701   4.143   4.094  11.091  1.6720 -0.9945 -1.2276
 4096TIP3   OH233702   4.260   3.130  14.983  0.2589 -0.5615 -0.2235
 4096TIP3    H133703   4.233   3.208  15.029 -0.4877 -0.8503 -0.1711
 4096TIP3    H233704   4.261   3.155  14.890 -3.3838 -1.4361 -0.5667
 4097TIP3   OH233705   6.421   0.011   4.404 -0.1550 -0.0592  0.3920
 4097TIP3    H133706   6.465  -0.062   4.449  0.5662  0.2435  0.1878
 4097TIP3    H233707   6.364  -0.031   4.340 -1.0569 -0.4959  1.4517
 4098TIP3   OH233708   1.890   0.348  12.863  0.2160 -0.0221 -0.1848
 4098TIP3    H133709   1.969   0.386  12.901 -0.8465  0.3970  1.6521
 4098TIP3    H233710   1.880   0.264  12.908 -1.3610  0.7336  0.9084
 4099TIP3   OH233711   1.753   5.355  16.982 -0.6541  0.5191 -0.2495
 4099TIP3    H133712   1.711   5.400  16.909 -0.7763  0.4527 -0.2169
 4099TIP3    H233713   1.818   5.417  17.014  0.8325 -0.2340 -1.7329
 4100TIP3   OH233714   5.410   3.147   4.458 -0.0265 -0.0378  0.0476
 4100TIP3    H133715   5.374   3.235   4.469  0.7383  0.2890  0.0022
 4100TIP3    H233716   5.486   3.160   4.402  0.3182 -0.6735  0.3653
 4101TIP3   OH233717   4.640   0.648   4.368 -0.5724  0.4749 -0.6609
 4101TIP3    H133718   4.647   0.627   4.275 -1.4707  1.5280 -0.9849
 4101TIP3    H233719   4.545   0.654   4.384 -0.4171  0.4391  0.2903
 4102TIP3   OH233720   3.816   3.423  12.722  0.1379 -0.3302  0.2314
 4102TIP3    H133721   3.772   3.350  12.679 -0.0599 -1.0453  1.6328
 4102TIP3    H233722   3.779   3.501  12.682 -0.4904 -0.9799 -0.4542
 4103TIP3   OH233723   2.975   0.726  11.900  0.3523 -0.3104  0.3766
 4103TIP3    H133724   2.890   0.707  11.860 -0.4310  0.9046  1.4576
 4103TIP3    H233725   3.027   0.762  11.829  0.7299 -3.1074 -0.8630
 4104TIP3   OH233726   2.541   0.461  15.697 -0.0052  0.3523  0.7346
 4104TIP3    H133727   2.578   0.455  15.609 -0.4177 -1.2221  0.6554
 4104TIP3    H233728   2.611   0.499  15.750  1.1341 -0.9810  0.2181
 4105TIP3   OH233729   5.072   0.684  15.430  0.4214  0.8807  0.2692
 4105TIP3    H133730   5.081   0.704  15.337 -1.1297 -1.4744 -0.4150
 4105TIP3    H233731   5.026   0.760  15.466  1.5689  2.0877 -0.7362
 4106TIP3   OH233732   1.861   3.205   1.493 -0.3470  0.1051  0.2961
 4106TIP3    H133733   1.952   3.195   1.521 -0.0077 -2.1419 -1.4382
 4106TIP3    H233734   1.834   3.117   1.467 -2.6367  0.9604 -0.3953
 4107TIP3   OH233735   0.118   5.385  13.766  0.4249 -0.3762 -0.0498
 4107TIP3    H133736   0.112   5.477  13.792  0.1450 -0.5773  0.6139
 4107TIP3    H233737   0.161   5.387  13.680 -0.8220  0.4644 -0.6710
 4108TIP3   OH233738   0.759   3.552   3.334 -0.4506 -0.5875  0.4191
 4108TIP3    H133739   0.794   3.489   3.271 -1.8827  0.1162 -1.1118
 4108TIP3    H233740   0.828   3.561   3.399  1.3518 -0.8329 -1.3932
 4109TIP3   OH233741   1.521   1.816  16.266  0.1608 -0.0661  0.6150
 4109TIP3    H133742   1.606   1.859  16.259 -0.4536  1.2326  0.9509
 4109TIP3    H233743   1.475   1.865  16.334 -2.1331  1.4209 -1.8962
 4110TIP3   OH233744   6.517   1.845   1.854 -0.1004 -0.0201  0.3238
 4110TIP3    H133745   6.583   1.826   1.787 -1.5194  0.5580 -1.2827
 4110TIP3    H233746   6.544   1.929   1.891  0.4091 -0.1026  0.1526
 4111TIP3   OH233747   3.975   2.673   4.246 -0.3695  0.1690 -0.0241
 4111TIP3    H133748   3.953   2.720   4.166 -0.3108  0.2166 -0.0123
 4111TIP3    H233749   3.929   2.719   4.316  0.3488  0.7185  0.0965
 4112TIP3   OH233750   0.837   0.830  16.502  0.0585 -0.4929 -0.2167
 4112TIP3    H133751   0.748   0.804  16.479  0.4575 -0.2053 -2.1340
 4112TIP3    H233752   0.886   0.748  16.506  0.4554 -0.3910 -2.5037
 4113TIP3   OH233753   4.390   6.665   5.452 -0.3585 -0.0001 -0.5155
 4113TIP3    H133754   4.313   6.659   5.509  1.7656  1.3450  2.6490
 4113TIP3    H233755   4.418   6.757   5.459  1.9738 -0.6365 -1.0112
 4114TIP3   OH233756   2.591   6.248   5.754 -0.2097 -0.1539 -0.9974
 4114TIP3    H133757   2.532   6.240   5.679 -0.1269  0.1223 -1.0947
 4114TIP3    H233758   2.616   6.340   5.755  0.4193 -0.3188 -1.1144
 4115TIP3   OH233759   1.262   4.714  16.333  0.3293 -0.1132  0.0740
 4115TIP3    H133760   1.313   4.689  16.256  0.2257  0.1832 -0.0880
 4115TIP3    H233761   1.255   4.809  16.328  2.3579  0.1622  1.7010
 4116TIP3   OH233762   3.578   6.366   4.133  0.0715 -0.0528  0.0518
 4116TIP3    H133763   3.496   6.390   4.088 -0.1174  0.1656  0.5051
 4116TIP3    H233764   3.561   6.388   4.225  0.9354  0.7471  0.0197
 4117TIP3   OH233765   6.237   5.442  11.748  0.5984 -0.1802 -0.1407
 4117TIP3    H133766   6.215   5.374  11.685 -0.0398 -0.3584  0.2689
 4117TIP3    H233767   6.155   5.490  11.762  0.9121  0.3281 -0.0135
 4118TIP3   OH233768   4.166   3.495  16.075  0.4754  0.4935  0.4590
 4118TIP3    H133769   4.255   3.479  16.042  0.6822  0.8348  0.8522
 4118TIP3    H233770   4.118   3.528  15.999  0.5593 -0.1498  0.1243
 4119TIP3   OH233771   5.277   6.396   5.692  0.8746 -0.5963 -0.1440
 4119TIP3    H133772   5.289   6.408   5.598 -1.0416 -0.6318 -0.4078
 4119TIP3    H233773   5.190   6.357   5.700  1.7663 -2.2806  1.5276
 4120TIP3   OH233774   4.185   5.552   5.353  0.0895  0.3869  0.0306
 4120TIP3    H133775   4.159   5.568   5.444 -1.5507 -0.2380 -0.3216
 4120TIP3    H233776   4.238   5.472   5.357  0.8439  0.9137  0.5698
 4121TIP3   OH233777   4.070   4.328  15.117 -0.1255  0.0649 -0.0895
 4121TIP3    H133778   4.039   4.334  15.207  0.3993  0.0046  0.0919
 4121TIP3    H233779   4.112   4.242  15.111 -0.9587 -0.3160 -0.6365
 4122TIP3   OH233780   6.353   0.551  11.943  0.5046  0.7147  0.4224
 4122TIP3    H133781   6.429   0.553  12.001  2.0317  1.6157 -1.5331
 4122TIP3    H233782   6.374   0.614  11.873 -1.9037  0.7582 -0.3234
 4123TIP3   OH233783   4.144   2.876  16.014  0.1687 -0.0007 -0.0496
 4123TIP3    H133784   4.055   2.847  15.995  0.5437 -0.9384 -0.4219
 4123TIP3    H233785   4.158   2.854  16.106  0.7006 -1.7247 -0.5133
 4124TIP3   OH233786   2.041   2.271  16.317 -0.3148  0.1154 -0.1479
 4124TIP3    H133787   2.071   2.295  16.404 -0.8464 -2.2163  0.7216
 4124TIP3    H233788   1.947   2.255  16.328 -0.4613  0.2051 -1.2246
 4125TIP3   OH233789   4.654   5.368   2.510  0.4348 -0.0306 -0.3759
 4125TIP3    H133790   4.694   5.449   2.477  2.1105 -1.0042 -0.8004
 4125TIP3    H233791   4.593   5.342   2.441 -0.7331  1.3042  0.1317
 4126TIP3   OH233792   4.899   1.130   0.741 -0.2193  0.3220  0.4741
 4126TIP3    H133793   4.921   1.056   0.798 -0.8022  0.1614  0.5010
 4126TIP3    H233794   4.927   1.207   0.790 -2.8185  0.3318  2.0312
 4127TIP3   OH233795   1.561   3.718  12.723  0.5684 -0.7322  0.3591
 4127TIP3    H133796   1.622   3.653  12.689  0.2403 -0.2450 -1.2071
 4127TIP3    H233797   1.483   3.710  12.667 -0.2950 -0.4511  1.4974
 4128TIP3   OH233798   0.364   2.739  14.784  0.1255  0.4561  0.7425
 4128TIP3    H133799   0.322   2.753  14.869 -0.0361 -0.3475  0.8015
 4128TIP3    H233800   0.406   2.822  14.764  0.1477  0.6593  1.6083
 4129TIP3   OH233801   3.887   3.744  13.590 -0.0052 -0.0975  0.4672
 4129TIP3    H133802   3.929   3.674  13.639  0.0348  1.0119  2.0726
 4129TIP3    H233803   3.795   3.719  13.586 -0.1629  0.1675  1.8522
 4130TIP3   OH233804   4.000   0.763   1.171  0.2135 -0.0694  0.0626
 4130TIP3    H133805   3.917   0.800   1.200 -0.1356 -0.1782 -0.8098
 4130TIP3    H233806   4.066   0.813   1.220 -0.2699  1.3755 -0.7119
 4131TIP3   OH233807   4.578   1.464   5.054 -0.0658 -0.3918  0.1534
 4131TIP3    H133808   4.491   1.430   5.033 -0.2267  0.3405 -0.3732
 4131TIP3    H233809   4.602   1.518   4.978  1.0427 -0.9683  0.0956
 4132TIP3   OH233810   0.143   0.292  13.417  0.6578 -0.3882 -1.0115
 4132TIP3    H133811   0.129   0.198  13.426 -1.5034 -0.0915 -1.0754
 4132TIP3    H233812   0.199   0.300  13.340  1.2766 -1.6410 -0.7130
 4133TIP3   OH233813   3.288   2.495  12.784 -0.4031 -0.1012 -0.6432
 4133TIP3    H133814   3.235   2.416  12.799 -0.3115 -0.2456 -1.0786
 4133TIP3    H233815   3.290   2.505  12.689  2.0804 -1.2566 -0.7385
 4134TIP3   OH233816   2.405   3.381  14.735  0.6817 -0.3666  0.5061
 4134TIP3    H133817   2.423   3.360  14.827 -0.2627 -1.6016  0.4121
 4134TIP3    H233818   2.449   3.311  14.686  2.9681  1.4205 -0.0991
 4135TIP3   OH233819   5.825   3.215   5.264  0.1098  0.7259 -0.1349
 4135TIP3    H133820   5.912   3.254   5.265  0.5274  0.0585 -3.5740
 4135TIP3    H233821   5.765   3.289   5.270  0.9218  1.4320 -0.5997
 4136TIP3   OH233822   4.016   6.308  16.558 -0.1199 -0.2688  0.1148
 4136TIP3    H133823   4.107   6.315  16.528 -0.8704  1.6632 -1.8772
 4136TIP3    H233824   3.996   6.394  16.594 -1.0878 -0.7468  0.7366
 4137TIP3   OH233825   2.608   3.402  16.299 -0.8948 -0.3699 -0.0820
 4137TIP3    H133826   2.649   3.407  16.385 -0.3249  0.1361 -0.3891
 4137TIP3    H233827   2.679   3.417  16.237 -1.3215 -0.6348 -0.6442
 4138TIP3   OH233828   4.146   1.930   3.693 -0.2579 -0.3651  0.2246
 4138TIP3    H133829   4.118   1.929   3.785  2.1984  1.6096  1.0559
 4138TIP3    H233830   4.216   1.865   3.689  0.4602  0.4171  0.0368
 4139TIP3   OH233831   0.335   0.007  13.095 -0.6144  0.3048 -0.1586
 4139TIP3    H133832   0.327   0.091  13.140 -0.1333  0.2578  0.0257
 4139TIP3    H233833   0.272  -0.050  13.139 -0.6728  0.4668 -0.0311
 4140TIP3   OH233834   4.958   5.216   3.755  0.6580  0.5155 -0.3649
 4140TIP3    H133835   5.008   5.135   3.763  1.1240  0.8287 -0.0966
 4140TIP3    H233836   4.950   5.249   3.844 -1.0441 -0.1310 -0.2650
 4141TIP3   OH233837   3.448   1.653   1.557  0.0677  0.6724  0.7773
 4141TIP3    H133838   3.538   1.645   1.525 -0.4973  2.5814 -1.3719
 4141TIP3    H233839   3.396   1.598   1.498 -0.7242  2.8018 -0.5592
 4142TIP3   OH233840   4.736   3.024  13.961 -0.2342  0.0055 -1.1614
 4142TIP3    H133841   4.705   2.935  13.976 -2.5813  0.7613 -1.2911
 4142TIP3    H233842   4.678   3.059  13.893 -0.6990  2.2992  0.3448
 4143TIP3   OH233843   5.946   5.648  16.607 -0.0946  0.3197  0.4650
 4143TIP3    H133844   5.991   5.671  16.688 -1.1955 -0.6415  1.3700
 4143TIP3    H233845   5.983   5.707  16.541  0.8601  1.0607  1.6430
 4144TIP3   OH233846   0.154   0.874  11.598 -0.8401  0.1709 -0.8708
 4144TIP3    H133847   0.159   0.962  11.562 -1.4985  1.0962  1.2398
 4144TIP3    H233848   0.240   0.835  11.580 -0.0662  1.7314 -0.5898
 4145TIP3   OH233849   4.688   6.063  13.153 -0.3089 -0.3230  0.1694
 4145TIP3    H133850   4.693   6.045  13.059  0.4342 -1.5351  0.4313
 4145TIP3    H233851   4.720   6.153  13.162  0.5968 -0.5526 -0.6359
 4146TIP3   OH233852   2.901   2.678   3.038  0.0338  0.1956  0.6331
 4146TIP3    H133853   2.987   2.665   3.079  0.7018  0.0937 -0.7479
 4146TIP3    H233854   2.890   2.600   2.983  0.2604  1.4721 -1.2526
 4147TIP3   OH233855   4.040   4.598   2.862 -0.3399 -0.0792  0.3361
 4147TIP3    H133856   4.089   4.678   2.846  2.0192 -1.9028 -2.0364
 4147TIP3    H233857   4.106   4.536   2.895 -1.4809 -1.8713 -0.6479
 4148TIP3   OH233858   0.531   2.878   3.485  0.1139  0.0367  0.3301
 4148TIP3    H133859   0.547   2.949   3.423  1.4118  0.7994  1.5230
 4148TIP3    H233860   0.584   2.805   3.452 -2.9392 -1.1945 -2.1756
 4149TIP3   OH233861   5.105   2.084   1.945  0.0701  0.1606 -0.3029
 4149TIP3    H133862   5.050   2.149   1.902  0.3403  0.8811  0.4176
 4149TIP3    H233863   5.168   2.136   1.995 -0.3879 -0.6542  1.1485
 4150TIP3   OH233864   2.421   5.258   0.173 -0.4706 -0.1149 -0.1200
 4150TIP3    H133865   2.495   5.255   0.233 -0.3931  1.3216 -0.1284
 4150TIP3    H233866   2.445   5.325   0.109 -1.0114 -0.8914 -1.1437
 4151TIP3   OH233867   4.316   3.742   2.972  0.2619 -0.6273  0.5578
 4151TIP3    H133868   4.342   3.654   2.997  1.2862 -0.2489  0.8628
 4151TIP3    H233869   4.299   3.736   2.878  1.5584 -0.8876  0.3182
 4152TIP3   OH233870   1.702   5.405   5.660  0.5224  0.1876  0.2144
 4152TIP3    H133871   1.609   5.413   5.640  0.5122  0.6053  0.4004
 4152TIP3    H233872   1.744   5.390   5.576  0.7753  4.5283 -0.5854
 4153TIP3   OH233873   6.194   2.704  16.465 -0.2628  0.6241 -0.2178
 4153TIP3    H133874   6.208   2.628  16.408 -0.0422 -1.3450  2.3493
 4153TIP3    H233875   6.111   2.742  16.434  0.3725  0.2448 -2.4915
 4154TIP3   OH233876   4.223   6.069  10.937 -0.4299 -0.0398 -0.5098
 4154TIP3    H133877   4.273   6.056  10.856 -0.9222  1.5280 -1.0794
 4154TIP3    H233878   4.256   6.001  10.996  0.1587 -1.0106 -1.9115
 4155TIP3   OH233879   4.400   6.394  13.640  0.4764  0.2333  0.4264
 4155TIP3    H133880   4.366   6.465  13.696 -0.4141 -0.9564  1.4249
 4155TIP3    H233881   4.385   6.315  13.691 -0.2260 -0.8668 -1.4526
 4156TIP3   OH233882   5.664   6.594   5.920 -0.2847 -0.2512 -0.0483
 4156TIP3    H133883   5.578   6.624   5.950 -0.8896  0.1370 -2.1340
 4156TIP3    H233884   5.695   6.537   5.990 -2.1618 -0.2356  0.8092
 4157TIP3   OH233885   5.091   0.606  13.491 -0.2954 -0.3854 -0.3633
 4157TIP3    H133886   5.147   0.531  13.470 -0.7110 -0.8322  0.1017
 4157TIP3    H233887   5.030   0.572  13.556  0.2179  0.6594  0.6837
 4158TIP3   OH233888   5.740   4.483   3.526  0.1464 -0.0707  0.0280
 4158TIP3    H133889   5.783   4.455   3.446 -0.5581 -0.2505 -0.2969
 4158TIP3    H233890   5.654   4.515   3.497  0.5769  1.5420  0.4957
 4159TIP3   OH233891   6.602   4.869  16.426  0.6119  0.1086 -0.1849
 4159TIP3    H133892   6.590   4.796  16.365  1.8023  0.5213 -0.9372
 4159TIP3    H233893   6.626   4.943  16.370 -0.0544  0.9377  0.6232
 4160TIP3   OH233894   3.319   5.545  14.278  0.2660 -0.5792  0.7169
 4160TIP3    H133895   3.386   5.496  14.325  0.7968 -0.6417 -0.1007
 4160TIP3    H233896   3.273   5.479  14.226  0.5317 -0.3212  0.1483
 4161TIP3   OH233897   0.092   1.772   4.036  0.0788 -0.0347  0.1950
 4161TIP3    H133898   0.106   1.678   4.026  0.5835  0.1190 -0.5955
 4161TIP3    H233899   0.121   1.809   3.953 -1.6220  0.6779 -0.0955
 4162TIP3   OH233900   1.118   2.118  13.781  1.1277  0.4364  0.3372
 4162TIP3    H133901   1.185   2.055  13.807  1.0448 -0.8630 -2.3445
 4162TIP3    H233902   1.159   2.168  13.710 -0.7111 -0.4397 -1.3932
 4163TIP3   OH233903   0.544   5.980   1.797 -1.1018 -0.0142  0.6577
 4163TIP3    H133904   0.555   5.885   1.795 -0.4605  0.0794 -1.3712
 4163TIP3    H233905   0.451   5.993   1.815 -1.4041 -1.0539 -0.0800
 4164TIP3   OH233906   3.314   6.176  14.544  0.1460  0.3217  0.1170
 4164TIP3    H133907   3.338   6.259  14.586  0.3154 -0.0246  0.7063
 4164TIP3    H233908   3.223   6.162  14.569  0.8456 -0.9252  2.1091
 4165TIP3   OH233909   0.289   5.705  14.014 -0.1067 -0.0935 -0.1861
 4165TIP3    H133910   0.339   5.770  13.964  0.8207 -1.2461 -0.8034
 4165TIP3    H233911   0.206   5.698  13.966 -0.7921  1.6669  0.7142
 4166TIP3   OH233912   0.729   0.619   3.845 -0.3469  0.0487  0.2901
 4166TIP3    H133913   0.678   0.684   3.797 -0.4976  1.5741  2.4919
 4166TIP3    H233914   0.819   0.633   3.816 -0.6432 -0.1117 -0.7309
 4167TIP3   OH233915   2.907   5.124   3.146  0.0793 -0.3035  0.2982
 4167TIP3    H133916   2.958   5.199   3.176 -1.3531  1.2907 -1.0603
 4167TIP3    H233917   2.831   5.122   3.204 -1.5495  1.3984 -1.6507
 4168TIP3   OH233918   5.036   3.554   3.050 -0.9198 -0.6035 -0.1370
 4168TIP3    H133919   4.978   3.481   3.072  2.9731 -3.4625  1.1011
 4168TIP3    H233920   5.103   3.553   3.117  0.8047  2.3758 -1.7146
 4169TIP3   OH233921   3.923   1.265   1.786 -0.2044  0.1658  0.3583
 4169TIP3    H133922   3.871   1.345   1.775 -0.7906 -0.5308 -2.2814
 4169TIP3    H233923   3.994   1.291   1.844  0.6808  3.1400 -1.8899
 4170TIP3   OH233924   3.769   3.939   0.862  0.0639 -0.0789 -0.0500
 4170TIP3    H133925   3.800   3.890   0.785 -0.7297 -3.0002  1.4025
 4170TIP3    H233926   3.833   3.919   0.930 -0.9764 -0.1661  0.9251
 4171TIP3   OH233927   1.153   0.904   5.403 -0.2384  0.5204 -0.2830
 4171TIP3    H133928   1.063   0.916   5.373 -0.9006 -1.7451  0.6804
 4171TIP3    H233929   1.161   0.962   5.479 -1.1094  0.2571  0.0208
 4172TIP3   OH233930   1.405   4.827   5.517  0.0342 -0.8207  0.2944
 4172TIP3    H133931   1.470   4.892   5.544 -0.2129 -0.7162  0.6356
 4172TIP3    H233932   1.368   4.795   5.599 -2.9049  1.7175  0.0278
 4173TIP3   OH233933   3.472   0.564   4.040  0.1313 -0.0930 -0.0133
 4173TIP3    H133934   3.411   0.490   4.031 -0.1492  0.0835  0.4387
 4173TIP3    H233935   3.532   0.537   4.109 -0.7763  0.6463  1.0790
 4174TIP3   OH233936   5.938   5.311  15.233 -0.0018  0.1307 -0.3485
 4174TIP3    H133937   5.994   5.301  15.310  0.9993  0.7220 -0.9925
 4174TIP3    H233938   5.872   5.242  15.243  2.2360 -2.1635 -0.7690
 4175TIP3   OH233939   3.213   5.329  14.171  0.3194  0.1208 -0.7978
 4175TIP3    H133940   3.264   5.280  14.106  0.9716  0.1329 -0.2957
 4175TIP3    H233941   3.211   5.272  14.248  0.5429  0.6138 -0.4276
 4176TIP3   OH233942   0.996   4.933  14.212  0.1497  0.1399  1.2079
 4176TIP3    H133943   1.021   4.841  14.209 -1.3786 -0.2382 -1.8595
 4176TIP3    H233944   1.025   4.969  14.127 -3.1074  1.3770  0.5303
 4177TIP3   OH233945   3.932   2.545  11.326 -0.2422 -0.0423  0.1916
 4177TIP3    H133946   3.993   2.481  11.287  0.9693  2.6811 -2.5921
 4177TIP3    H233947   3.987   2.595  11.387 -0.5921 -0.0276  0.4931
 4178TIP3   OH233948   0.735   4.997  13.299 -0.3784  0.1105 -0.1403
 4178TIP3    H133949   0.777   5.039  13.374 -0.6603 -0.5071  0.3599
 4178TIP3    H233950   0.804   4.942  13.261  0.4320  2.1175 -1.6669
 4179TIP3   OH233951   4.321   5.205  13.325 -0.2409  0.2379 -0.3986
 4179TIP3    H133952   4.293   5.226  13.414  1.5891  1.9176 -0.1819
 4179TIP3    H233953   4.311   5.287  13.277 -1.7804 -0.8056 -1.9241
 4180TIP3   OH233954   1.366   4.460  12.059  0.1790 -0.2817  0.1099
 4180TIP3    H133955   1.351   4.504  12.142  0.5261  0.5667 -0.2701
 4180TIP3    H233956   1.432   4.393  12.079  2.1786  1.6023  0.0045
 4181TIP3   OH233957   1.516   1.059  17.130 -0.4303  0.6846  0.2811
 4181TIP3    H133958   1.555   0.985  17.176  1.1648  1.5802  0.3945
 4181TIP3    H233959   1.441   1.085  17.185  0.6217  0.8657  1.6556
 4182TIP3   OH233960   6.258   6.728   0.143 -0.0164  0.0944  0.7250
 4182TIP3    H133961   6.287   6.644   0.106  0.4818  0.1554  0.9677
 4182TIP3    H233962   6.339   6.769   0.174  0.0412  1.6027 -1.3214
 4183TIP3   OH233963   2.985   2.375  15.114  0.2211  0.0787  0.3799
 4183TIP3    H133964   2.898   2.412  15.103 -0.7167 -2.3268 -0.8257
 4183TIP3    H233965   3.040   2.424  15.053 -0.6981  0.4469 -0.1683
 4184TIP3   OH233966   6.473   3.832   5.553  0.3722 -0.3641 -0.1778
 4184TIP3    H133967   6.395   3.831   5.609  0.8879  1.6410  0.6045
 4184TIP3    H233968   6.537   3.882   5.602  1.5767 -0.4655 -1.6177
 4185TIP3   OH233969   3.619   3.122  12.861  0.1100  0.4974  0.0896
 4185TIP3    H133970   3.625   3.114  12.766  1.9981  2.6459 -0.0262
 4185TIP3    H233971   3.686   3.061  12.894  1.8832  2.2525 -0.1341
 4186TIP3   OH233972   2.252   1.487   2.423 -0.2934  0.2092 -0.3194
 4186TIP3    H133973   2.260   1.429   2.499  0.3613 -0.3214 -0.7974
 4186TIP3    H233974   2.210   1.566   2.458 -1.6235 -0.7326  0.2338
 4187TIP3   OH233975   4.502   5.185  13.931  1.1113  0.0665 -0.7540
 4187TIP3    H133976   4.537   5.257  13.983  1.7159  0.6653 -1.9739
 4187TIP3    H233977   4.408   5.199  13.931  1.0384 -0.3977  0.8547
 4188TIP3   OH233978   4.661   1.070   3.158  0.4619 -0.3344  0.1386
 4188TIP3    H133979   4.621   1.005   3.216  1.2798 -1.5978 -0.7093
 4188TIP3    H233980   4.651   1.034   3.070 -1.6126  2.0163 -0.6544
 4189TIP3   OH233981   1.330   6.630   2.909 -0.7294 -0.3148  0.2074
 4189TIP3    H133982   1.257   6.685   2.938 -0.6910  1.1154 -2.2963
 4189TIP3    H233983   1.373   6.603   2.990 -3.1388  0.0170  1.6647
 4190TIP3   OH233984   4.651   4.899   0.343  0.0057  0.0738 -0.5542
 4190TIP3    H133985   4.636   4.839   0.416  0.4410 -0.9235 -1.2814
 4190TIP3    H233986   4.616   4.983   0.374  0.3237 -0.3010  0.8559
 4191TIP3   OH233987   2.286   0.087  14.322  0.3680 -0.1598  0.0157
 4191TIP3    H133988   2.272   0.109  14.414 -1.1735 -1.0351 -0.0006
 4191TIP3    H233989   2.298   0.172  14.279 -1.4504  0.4152  0.6195
 4192TIP3   OH233990   5.510   4.192  14.229  0.4936  0.8262 -0.4019
 4192TIP3    H133991   5.561   4.167  14.152  0.2915  1.0041 -0.5940
 4192TIP3    H233992   5.575   4.216  14.295  0.6318  2.3331 -1.0698
 4193TIP3   OH233993   1.509   1.407  13.393 -0.1774  0.4037  0.3230
 4193TIP3    H133994   1.538   1.440  13.308  0.3728  1.6021  0.9683
 4193TIP3    H233995   1.414   1.395  13.382 -0.8731  4.5710  0.7657
 4194TIP3   OH233996   4.541   5.363  14.498  0.3254 -0.3586 -0.6141
 4194TIP3    H133997   4.538   5.391  14.590  0.1554 -1.1110 -0.3890
 4194TIP3    H233998   4.455   5.324  14.482  0.2942 -0.0750 -1.1427
 4195TIP3   OH233999   2.152   5.666  16.862  0.0519  0.3698  0.5847
 4195TIP3    H134000   2.242   5.657  16.892  0.2895  1.0798  0.0958
 4195TIP3    H234001   2.158   5.720  16.783 -0.5976 -1.2047 -0.5641
 4196TIP3   OH234002   2.571   6.592  17.089  0.4959 -0.3844  0.0835
 4196TIP3    H134003   2.554   6.685  17.072  1.1140  0.3439  3.1747
 4196TIP3    H234004   2.663   6.580  17.067  1.0302  0.3105  1.8819
 4197TIP3   OH234005   1.034   1.969   6.347 -0.4976 -0.4880 -0.0459
 4197TIP3    H134006   1.065   2.047   6.393  0.2318 -1.0995  0.4996
 4197TIP3    H234007   1.008   2.001   6.260 -2.2318  0.7522  0.8831
 4198TIP3   OH234008   1.248   5.148   5.424 -0.8819  0.1102 -0.9221
 4198TIP3    H134009   1.275   5.075   5.370  1.0569 -1.7624  2.4375
 4198TIP3    H234010   1.318   5.213   5.414  0.4921 -1.0676  0.8590
 4199TIP3   OH234011   1.795   0.112  14.634  0.1589  0.3778  0.6855
 4199TIP3    H134012   1.738   0.036  14.636 -0.0975  0.4632 -1.7374
 4199TIP3    H234013   1.881   0.079  14.661 -0.0281 -0.7091 -0.0137
 4200TIP3   OH234014   6.430   5.320  13.887  0.4618  0.0764  0.5296
 4200TIP3    H134015   6.416   5.245  13.829 -2.5168 -0.5027  1.9288
 4200TIP3    H234016   6.491   5.287  13.953 -0.2292 -0.9068  0.6950
 4201TIP3   OH234017   0.358   0.194  11.369  0.0784  0.3625  0.2035
 4201TIP3    H134018   0.342   0.288  11.378  0.6496  0.2979  2.0284
 4201TIP3    H234019   0.379   0.164  11.457  1.1311 -1.2540 -0.5591
 4202TIP3   OH234020   3.112   0.462   2.277 -0.3651 -0.3893  0.2999
 4202TIP3    H134021   3.163   0.534   2.313  1.6642  0.2614 -3.5444
 4202TIP3    H234022   3.138   0.385   2.328  1.2391  0.7088  1.1713
 4203TIP3   OH234023   2.269   5.341  11.101 -0.2497 -0.2329  0.2892
 4203TIP3    H134024   2.230   5.308  11.020 -1.6830  1.5346  0.2224
 4203TIP3    H234025   2.331   5.408  11.072 -0.6753  0.3158  0.6410
 4204TIP3   OH234026   0.266   5.774  12.765  0.3632  0.1360 -0.0998
 4204TIP3    H134027   0.310   5.737  12.689 -1.4852  0.0675 -1.1714
 4204TIP3    H234028   0.175   5.744  12.757 -0.4798  2.3924  0.6226
 4205TIP3   OH234029   4.488   1.846  15.866 -0.5104 -0.1002 -0.2233
 4205TIP3    H134030   4.417   1.782  15.861  0.2168 -0.7923 -2.1253
 4205TIP3    H234031   4.445   1.931  15.854 -1.2682 -0.3627  0.6209
 4206TIP3   OH234032   2.935   0.612   5.080 -0.7616  0.2457 -0.1433
 4206TIP3    H134033   2.986   0.620   5.161 -0.5562  0.6500 -0.3149
 4206TIP3    H234034   2.868   0.680   5.087 -0.8013  0.2201 -0.2711
 4207TIP3   OH234035   5.289   0.049  11.180  0.1271  0.1312 -0.0110
 4207TIP3    H134036   5.306  -0.009  11.106 -0.1056 -0.8574  0.6909
 4207TIP3    H234037   5.290   0.137  11.143  2.7906 -0.1488 -0.6779
 4208TIP3   OH234038   1.515   3.745   4.154 -0.8576  0.5763  0.1292
 4208TIP3    H134039   1.584   3.791   4.107  0.3989  0.6407  2.0203
 4208TIP3    H234040   1.466   3.699   4.085  1.7304 -0.3938 -1.1408
 4209TIP3   OH234041   3.878   4.081   4.494  0.1649  0.2857 -0.2386
 4209TIP3    H134042   3.932   4.046   4.423  0.3551 -0.1997  0.1430
 4209TIP3    H234043   3.906   4.173   4.502 -0.0403  0.4130 -0.9607
 4210TIP3   OH234044   4.929   3.841   3.653  0.3786  0.0789 -0.6855
 4210TIP3    H134045   4.919   3.926   3.612  0.5952  1.0324  1.1818
 4210TIP3    H234046   4.899   3.854   3.743  0.2584 -1.8545 -0.4116
 4211TIP3   OH234047   2.221   0.931   0.604 -0.0538 -0.2716  0.1163
 4211TIP3    H134048   2.222   1.007   0.545  0.2057 -1.5238 -1.5174
 4211TIP3    H234049   2.268   0.961   0.682  1.2754  0.8225 -1.0748
 4212TIP3   OH234050   6.628   0.552  16.682 -0.0041 -0.0889 -0.2133
 4212TIP3    H134051   6.650   0.538  16.590 -0.4339 -0.0130 -0.3298
 4212TIP3    H234052   6.557   0.490  16.699 -1.8855  1.8686 -0.7160
 4213TIP3   OH234053   4.193   5.907  14.249  0.6825 -0.0362 -0.1113
 4213TIP3    H134054   4.261   5.894  14.314  0.0900 -1.3217  0.2843
 4213TIP3    H234055   4.230   5.871  14.168  0.7160 -0.1411 -0.0500
 4214TIP3   OH234056   4.964   1.686  12.896 -0.2251 -0.5687  0.2881
 4214TIP3    H134057   4.954   1.763  12.952 -0.9940 -0.8167  0.5006
 4214TIP3    H234058   5.052   1.694  12.859  0.3222 -0.4688  1.6180
 4215TIP3   OH234059   0.357   3.386  11.462 -0.4341 -0.4806 -0.1276
 4215TIP3    H134060   0.345   3.397  11.368  0.9812 -0.0088 -0.2634
 4215TIP3    H234061   0.268   3.371  11.496 -1.0471  0.1446 -1.4202
 4216TIP3   OH234062   5.166   1.791   3.028 -0.0982 -0.1304 -0.3613
 4216TIP3    H134063   5.257   1.766   3.015  0.3566 -1.0590  3.9207
 4216TIP3    H234064   5.115   1.723   2.984  1.2587 -1.3041 -0.1388
 4217TIP3   OH234065   1.628   5.930  11.398  0.2561  0.4004  0.7338
 4217TIP3    H134066   1.720   5.906  11.406  0.0811  0.0254  1.8177
 4217TIP3    H234067   1.625   5.989  11.323  1.2803 -0.0487  0.3249
 4218TIP3   OH234068   1.947   5.871  15.351 -0.0036  0.0685 -0.1180
 4218TIP3    H134069   1.870   5.853  15.404 -0.3759 -0.4858 -0.8410
 4218TIP3    H234070   1.962   5.790  15.302  1.3266 -0.0075  0.3784
 4219TIP3   OH234071   6.349   4.090   5.272 -0.7526  0.5896  0.0086
 4219TIP3    H134072   6.327   4.131   5.188  0.0816  0.0589 -0.4786
 4219TIP3    H234073   6.414   4.148   5.310 -0.5081  0.3910 -0.1022
 4220TIP3   OH234074   4.674   0.713   1.660 -0.5154  0.7789 -0.7628
 4220TIP3    H134075   4.650   0.621   1.669 -1.5799  0.9867 -1.3243
 4220TIP3    H234076   4.758   0.712   1.615 -1.2849  0.1188 -2.2001
 4221TIP3   OH234077   2.576   6.257   5.228 -0.0788 -0.3694 -0.0007
 4221TIP3    H134078   2.518   6.210   5.168  0.9387  0.7865 -1.9778
 4221TIP3    H234079   2.572   6.348   5.198  0.3536  0.2471  1.7970
 4222TIP3   OH234080   2.789   4.830  12.096 -0.7207 -0.0632  0.0120
 4222TIP3    H134081   2.780   4.914  12.052  0.4073  0.8152  1.3986
 4222TIP3    H234082   2.852   4.847  12.167  0.3942 -2.3456 -0.3940
 4223TIP3   OH234083   3.765   1.958   2.768 -0.1180  0.6420  0.1087
 4223TIP3    H134084   3.858   1.971   2.747 -0.3624 -0.6966 -1.8381
 4223TIP3    H234085   3.765   1.932   2.860  1.7054 -2.1363 -0.6145
 4224TIP3   OH234086   4.028   2.124  15.848 -0.7659 -0.4760  0.5410
 4224TIP3    H134087   3.975   2.060  15.801  1.0638 -0.8885 -1.0291
 4224TIP3    H234088   4.064   2.075  15.922  1.1282 -1.4819 -0.9981
 4225TIP3   OH234089   5.786   4.950   1.992 -0.1746 -0.3973 -0.0945
 4225TIP3    H134090   5.781   4.858   1.969 -1.4360 -0.9099  2.0603
 4225TIP3    H234091   5.707   4.989   1.953 -0.4821 -0.5645  0.3534
 4226TIP3   OH234092   2.440   5.691  12.342 -0.4219 -0.3084 -0.6156
 4226TIP3    H134093   2.472   5.653  12.424 -2.3913  0.0777  0.3408
 4226TIP3    H234094   2.498   5.765  12.326  0.3726 -0.7633  0.0773
 4227TIP3   OH234095   1.103   4.758  13.463 -0.2904  0.1076  0.3585
 4227TIP3    H134096   1.173   4.792  13.518  0.1804  1.7343 -1.2038
 4227TIP3    H234097   1.083   4.672  13.500  1.5982  0.1869  1.6260
 4228TIP3   OH234098   4.781   0.938  14.578 -0.0830  0.8126 -0.6588
 4228TIP3    H134099   4.825   1.010  14.624 -0.2843  2.1874 -2.5988
 4228TIP3    H234100   4.780   0.867  14.642  2.1908  1.7682  0.4994
 4229TIP3   OH234101   2.491   0.400  15.221 -0.4713  0.1686  0.6215
 4229TIP3    H134102   2.400   0.373  15.211 -0.2376 -1.1230  1.8426
 4229TIP3    H234103   2.542   0.327  15.184  0.0513  1.0532 -0.4055
 4230TIP3   OH234104   4.298   0.194   0.570 -0.0498  0.0366  0.0993
 4230TIP3    H134105   4.294   0.234   0.657  0.3765 -0.9883  0.6040
 4230TIP3    H234106   4.229   0.237   0.520  1.0488  2.0956  0.3201
 4231TIP3   OH234107   5.499   0.494  11.566  0.2132 -0.3450  0.1313
 4231TIP3    H134108   5.492   0.557  11.638 -1.4662 -0.3045 -0.0506
 4231TIP3    H234109   5.448   0.534  11.495 -0.8926 -1.9526  0.0248
 4232TIP3   OH234110   6.530   3.950   1.539 -0.0241  0.2853 -0.1747
 4232TIP3    H134111   6.531   3.876   1.478 -0.4269 -1.5085  1.9574
 4232TIP3    H234112   6.604   4.004   1.511  0.1066 -0.7486 -1.9411
 4233TIP3   OH234113   5.388   5.682  11.299 -0.1320  0.5648 -0.8473
 4233TIP3    H134114   5.304   5.653  11.337 -0.2500 -1.2655 -2.4308
 4233TIP3    H234115   5.439   5.602  11.291  1.1876  1.4533 -1.3619
 4234TIP3   OH234116   0.060   6.272  12.610  0.2218  0.7199  0.3225
 4234TIP3    H134117  -0.022   6.322  12.601  0.8849  1.5864 -1.1212
 4234TIP3    H234118   0.032   6.181  12.613 -0.6905  0.9074 -1.8263
 4235TIP3   OH234119   0.755   2.859  16.123  0.4793 -0.5976  0.1850
 4235TIP3    H134120   0.803   2.778  16.109  0.7003 -0.5172  0.4746
 4235TIP3    H234121   0.788   2.919  16.056 -1.0773 -1.3448 -1.2973
 4236TIP3   OH234122   3.735   5.830  12.239  0.3784  0.0724  0.0644
 4236TIP3    H134123   3.694   5.803  12.321  2.2749 -0.6510  0.8083
 4236TIP3    H234124   3.758   5.922  12.253 -2.2363  0.9237 -0.8983
 4237TIP3   OH234125   1.833   4.165  12.302 -0.0594  0.0183 -0.4881
 4237TIP3    H134126   1.915   4.180  12.348 -0.1427  0.0824 -0.3607
 4237TIP3    H234127   1.823   4.240  12.244 -0.3621  0.3508 -0.0163
 4238TIP3   OH234128   6.585   4.765   0.286 -0.6612  0.2491 -0.3304
 4238TIP3    H134129   6.547   4.723   0.208  0.5854 -1.1160 -0.2261
 4238TIP3    H234130   6.626   4.844   0.252 -2.4123  1.0302 -0.6480
 4239TIP3   OH234131   4.774   3.432   0.644  0.4411 -0.1904  0.4981
 4239TIP3    H134132   4.802   3.344   0.669  0.0584 -0.1209  1.2062
 4239TIP3    H234133   4.788   3.437   0.550  0.0844 -1.1494  0.3894
 4240TIP3   OH234134   2.024   3.085  13.066 -0.5877 -0.5810  0.0526
 4240TIP3    H134135   2.098   3.060  13.010 -0.0410 -1.7049  1.2541
 4240TIP3    H234136   2.050   3.169  13.104 -0.8608  0.0751 -1.1929
 4241TIP3   OH234137   5.891   5.334   2.709 -0.0407 -0.3644 -0.1644
 4241TIP3    H134138   5.957   5.350   2.777 -0.8923  1.3966  0.2922
 4241TIP3    H234139   5.941   5.296   2.636  1.2662 -0.2395  0.6356
 4242TIP3   OH234140   1.227   2.482  15.748 -0.2783  0.1257  0.6275
 4242TIP3    H134141   1.205   2.389  15.754  1.7939 -0.3212  1.6391
 4242TIP3    H234142   1.202   2.519  15.832  0.8224  0.0553  0.9879
 4243TIP3   OH234143   3.442   1.020   0.279  0.8129  0.1079 -0.1097
 4243TIP3    H134144   3.389   1.064   0.211  0.3556  1.5363  1.1367
 4243TIP3    H234145   3.491   1.091   0.320  1.6731 -0.8601  0.5438
 4244TIP3   OH234146   2.091   3.108  16.013 -0.3598  0.2445  0.9096
 4244TIP3    H134147   2.168   3.059  15.984  0.6227  3.2516 -1.7674
 4244TIP3    H234148   2.030   3.040  16.043  2.4349 -2.3363  1.0167
 4245TIP3   OH234149   1.674   2.649   6.106 -0.5923 -0.5223  0.7386
 4245TIP3    H134150   1.610   2.669   6.174 -1.4457 -0.3922 -0.1020
 4245TIP3    H234151   1.657   2.712   6.037 -0.3288 -1.2486  0.0017
 4246TIP3   OH234152   2.639   0.163  13.527  0.6726  0.0203 -0.3727
 4246TIP3    H134153   2.578   0.166  13.601 -0.2219  1.2109 -1.1302
 4246TIP3    H234154   2.699   0.235  13.542  0.0514  0.7120 -1.1629
 4247TIP3   OH234155   4.008   2.185  12.280 -0.2756  0.5567  0.2183
 4247TIP3    H134156   3.952   2.233  12.218  2.1256  2.5380 -0.5046
 4247TIP3    H234157   4.005   2.237  12.360 -0.6612 -0.1632  0.6774
 4248TIP3   OH234158   3.091   3.024   3.774 -0.4970  0.3391  0.4062
 4248TIP3    H134159   3.179   3.059   3.787 -0.3382  0.0268  0.1754
 4248TIP3    H234160   3.105   2.935   3.742 -0.8954  0.5679 -0.4171
 4249TIP3   OH234161   1.095   1.165  12.742 -0.5285  0.6943  0.3292
 4249TIP3    H134162   1.145   1.236  12.781 -0.8515  0.2480  1.5780
 4249TIP3    H234163   1.073   1.197  12.654  0.4467  1.5897  0.3970
 4250TIP3   OH234164   5.851   5.224   4.604  0.2059  0.6681 -0.3074
 4250TIP3    H134165   5.879   5.182   4.686  0.2794  0.8875 -0.2190
 4250TIP3    H234166   5.756   5.217   4.605  0.0263  2.7129  0.9191
 4251TIP3   OH234167   2.281   5.320   3.146 -0.1698  0.5722  0.7222
 4251TIP3    H134168   2.278   5.243   3.203 -3.6182  0.2766  0.2705
 4251TIP3    H234169   2.224   5.297   3.072 -0.9871  3.3856  0.4269
 4252TIP3   OH234170   5.211   4.009   5.344 -0.2897 -0.2341  0.1569
 4252TIP3    H134171   5.295   3.967   5.362 -0.5251 -0.8812 -0.2314
 4252TIP3    H234172   5.200   4.072   5.415 -0.4388 -1.6077  1.3805
 4253TIP3   OH234173   2.285   0.028  16.940 -0.2234  0.2663 -0.5206
 4253TIP3    H134174   2.235   0.033  16.858 -1.0517  3.1693  0.0923
 4253TIP3    H234175   2.372   0.060  16.916  0.0622 -0.5991 -0.6459
 4254TIP3   OH234176   2.169   1.719   0.248  0.1355  0.1745  0.0548
 4254TIP3    H134177   2.222   1.763   0.182 -1.5276  1.5220 -0.4349
 4254TIP3    H234178   2.146   1.635   0.210  1.3262 -0.1265 -0.0074
 4255TIP3   OH234179   0.442   1.126  10.527  0.1072  0.7233 -0.0011
 4255TIP3    H134180   0.485   1.045  10.557 -1.7852 -0.3255 -0.0284
 4255TIP3    H234181   0.407   1.105  10.441 -1.5370  1.1298  0.5400
 4256TIP3   OH234182   0.258   0.202  14.879 -0.2997  0.1208 -0.2457
 4256TIP3    H134183   0.214   0.181  14.797  0.0030 -0.8271 -0.1664
 4256TIP3    H234184   0.322   0.132  14.891 -1.3903 -0.6196  1.5561
 4257TIP3   OH234185   0.894   1.564   3.260 -0.0873  0.6219  0.0830
 4257TIP3    H134186   0.984   1.539   3.281  0.0002  0.5415 -0.3822
 4257TIP3    H234187   0.856   1.485   3.222 -0.9252  0.0697  2.0126
 4258TIP3   OH234188   2.513   4.971   2.291 -0.1314  0.9399 -0.2598
 4258TIP3    H134189   2.475   4.961   2.378  1.1788  0.2743  0.2399
 4258TIP3    H234190   2.493   4.889   2.246  0.7404  0.5686  0.0202
 4259TIP3   OH234191   6.622   3.515   5.072 -0.3966 -0.2268 -0.4396
 4259TIP3    H134192   6.556   3.555   5.128 -2.4138 -2.1599 -1.3601
 4259TIP3    H234193   6.617   3.421   5.093  0.7217 -0.6244 -1.9006
 4260TIP3   OH234194   3.458   0.529   0.711 -0.4456  0.1560  0.2327
 4260TIP3    H134195   3.459   0.561   0.801  0.8428 -0.9389  0.6354
 4260TIP3    H234196   3.420   0.441   0.717  0.5196 -0.3010 -0.1366
 4261TIP3   OH234197   3.278   1.735  12.089 -0.5688  0.4942  0.0535
 4261TIP3    H134198   3.250   1.822  12.061 -1.0582  0.2757 -0.1464
 4261TIP3    H234199   3.314   1.695  12.010  0.2719  0.7566  0.2994
 4262TIP3   OH234200   2.167   3.493  17.195 -0.4608  0.2278 -0.5709
 4262TIP3    H134201   2.258   3.520  17.207 -1.3783  3.5647 -0.4446
 4262TIP3    H234202   2.143   3.452  17.278  1.3360 -2.1371 -1.1590
 4263TIP3   OH234203   3.576   0.089  12.716  0.6243 -0.1246  0.3444
 4263TIP3    H134204   3.624   0.162  12.756 -0.2710  0.0037  1.2015
 4263TIP3    H234205   3.528   0.129  12.643  0.0238  0.1771  0.8997
 4264TIP3   OH234206   2.830   1.170  13.225  0.1957  0.2648  0.2662
 4264TIP3    H134207   2.883   1.091  13.232  1.7822  1.2708 -0.1406
 4264TIP3    H234208   2.764   1.149  13.159 -1.1467 -1.6627  2.1555
 4265TIP3   OH234209   2.934   0.687   1.630 -0.0209  0.0331  0.4419
 4265TIP3    H134210   2.999   0.716   1.565 -0.9191 -1.7764 -1.3350
 4265TIP3    H234211   2.850   0.696   1.585 -0.6448 -1.4807  1.2666
 4266TIP3   OH234212   3.631   6.781   2.816  0.2295  0.0918  0.2323
 4266TIP3    H134213   3.599   6.713   2.756 -1.1157 -0.2217  1.2860
 4266TIP3    H234214   3.710   6.815   2.773  0.7974 -1.9728 -0.4327
 4267TIP3   OH234215   1.723   3.277  15.150 -0.8560 -0.0433 -0.0046
 4267TIP3    H134216   1.710   3.263  15.057 -1.4448 -0.3563  0.1220
 4267TIP3    H234217   1.807   3.323  15.156 -1.1313  0.5781 -0.7332
 4268TIP3   OH234218   5.864   2.634  15.566 -0.1684 -0.1469 -1.3147
 4268TIP3    H134219   5.932   2.690  15.605 -1.9486 -0.0586  1.7766
 4268TIP3    H234220   5.914   2.567  15.518  2.1494  0.1844  0.4909
 4269TIP3   OH234221   5.671   3.957  13.223 -0.1545  0.2097  0.1121
 4269TIP3    H134222   5.672   3.934  13.316 -0.8527 -0.1551  0.0322
 4269TIP3    H234223   5.763   3.968  13.200  0.0478 -0.1898  0.7214
 4270TIP3   OH234224   4.520   6.422   2.825 -0.2118  0.1871  0.0931
 4270TIP3    H134225   4.563   6.357   2.879 -1.2021 -1.5283 -1.1202
 4270TIP3    H234226   4.485   6.487   2.887 -0.4497 -1.1923  1.4198
 4271TIP3   OH234227   4.248   4.004   4.064  0.0868  0.3705 -0.0126
 4271TIP3    H134228   4.248   4.006   3.968 -0.8484 -0.0656 -0.0219
 4271TIP3    H234229   4.320   4.063   4.089  0.9080 -0.1912 -0.9910
 4272TIP3   OH234230   5.462   1.552   2.055  0.3077 -0.7455  0.1207
 4272TIP3    H134231   5.391   1.589   2.107 -0.4676 -2.2391  0.1439
 4272TIP3    H234232   5.520   1.511   2.119  0.4175 -0.7997 -0.0121
 4273TIP3   OH234233   4.520   2.555  15.295 -0.2055 -0.0339  0.3123
 4273TIP3    H134234   4.502   2.465  15.323 -1.1081  0.1225  0.2592
 4273TIP3    H234235   4.608   2.552  15.260 -0.9136 -1.3227 -1.4313
 4274TIP3   OH234236   4.732   5.670   1.338 -0.2822  0.4015  0.3222
 4274TIP3    H134237   4.687   5.673   1.254  0.0875  1.5764  0.1493
 4274TIP3    H234238   4.792   5.595   1.331 -2.1593 -1.1404  0.5501
 4275TIP3   OH234239   1.980   6.293   1.112 -0.0572  0.2265 -0.1600
 4275TIP3    H134240   2.034   6.323   1.039 -1.4707  1.8393 -0.5688
 4275TIP3    H234241   2.043   6.273   1.182  1.2563 -0.6493 -1.5571
 4276TIP3   OH234242   5.309   4.011  15.462 -0.2454  0.3564  0.1001
 4276TIP3    H134243   5.256   4.059  15.398  0.3452  0.4179 -0.3379
 4276TIP3    H234244   5.374   3.965  15.410 -0.4757 -0.4988  0.5673
 4277TIP3   OH234245   0.984   4.995  15.150 -0.1053  0.0161  0.1943
 4277TIP3    H134246   0.974   5.029  15.239  0.6593  0.2642  0.1925
 4277TIP3    H234247   0.895   4.985  15.117 -0.3917 -0.3072  1.0745
 4278TIP3   OH234248   4.396   5.840   3.603 -0.2860  0.0882  0.8790
 4278TIP3    H134249   4.326   5.794   3.556  0.2912  0.8037 -0.7409
 4278TIP3    H234250   4.467   5.776   3.608 -0.6239 -0.2460  1.4660
 4279TIP3   OH234251   2.432   4.761  15.714 -0.1832  0.1417 -0.1574
 4279TIP3    H134252   2.423   4.678  15.760  1.7419  0.3337  0.5999
 4279TIP3    H234253   2.378   4.822  15.764  0.3759 -0.0971  0.7563
 4280TIP3   OH234254   0.182   4.403   0.741  0.0850  0.2361  0.4655
 4280TIP3    H134255   0.159   4.332   0.681  0.9889 -0.3333  0.7877
 4280TIP3    H234256   0.268   4.379   0.774  0.5620  1.6715  0.2927
 4281TIP3   OH234257   3.369   6.095  13.087 -0.2807  0.1470  0.4195
 4281TIP3    H134258   3.446   6.137  13.125 -1.0223  0.8290  1.1700
 4281TIP3    H234259   3.296   6.150  13.113 -0.9985 -0.3411 -0.5326
 4282TIP3   OH234260   4.942   3.035   4.139  0.0286  0.3011  0.3699
 4282TIP3    H134261   5.017   3.023   4.197  0.5499  2.5555  0.2001
 4282TIP3    H234262   4.882   3.090   4.189 -0.1018  1.1418 -0.6996
 4283TIP3   OH234263   4.045   3.223   2.104 -0.5626  1.0062 -0.3808
 4283TIP3    H134264   4.037   3.305   2.056 -2.0037  0.4867 -1.0419
 4283TIP3    H234265   3.973   3.169   2.073 -0.6208  0.0927  1.2579
 4284TIP3   OH234266   2.229   1.242   3.829 -0.2781  0.2311 -0.0256
 4284TIP3    H134267   2.214   1.158   3.785  0.1458 -0.2450  0.7278
 4284TIP3    H234268   2.224   1.221   3.923  3.8849  0.2780  0.2766
 4285TIP3   OH234269   0.507   4.531  16.926  1.2192  0.1739 -0.0286
 4285TIP3    H134270   0.517   4.438  16.944 -1.2065 -0.0570  0.2239
 4285TIP3    H234271   0.468   4.535  16.839 -0.4949  0.8752  0.7517
 4286TIP3   OH234272   2.818   1.772   3.410  0.2067  0.0872  0.3231
 4286TIP3    H134273   2.909   1.797   3.391  1.0214 -1.1795  2.3426
 4286TIP3    H234274   2.826   1.708   3.481 -2.1876 -1.2108 -0.5531
 4287TIP3   OH234275   1.152   5.560  11.951  0.8171  0.2568  0.1182
 4287TIP3    H134276   1.122   5.651  11.958  1.1624  0.4029 -0.2618
 4287TIP3    H234277   1.248   5.567  11.942  0.9363 -0.1880  1.0478
 4288TIP3   OH234278   1.923   2.537  16.749 -0.0833  0.0894  0.2203
 4288TIP3    H134279   1.861   2.530  16.676 -1.8238  0.2937  1.6418
 4288TIP3    H234280   1.960   2.625  16.740  0.6169 -0.3300 -1.1105
 4289TIP3   OH234281   0.655   5.725  12.739 -0.4630  0.2099 -0.1080
 4289TIP3    H134282   0.719   5.791  12.712 -0.6110  0.4942  0.2411
 4289TIP3    H234283   0.619   5.692  12.657 -0.3027  0.4740 -0.2856
 4290TIP3   OH234284   3.202   0.326   2.048 -0.0988 -0.2618  0.0248
 4290TIP3    H134285   3.238   0.397   1.994  0.0396 -0.0442  0.4048
 4290TIP3    H234286   3.135   0.368   2.102 -0.4826 -0.5455 -0.2239
 4291TIP3   OH234287   0.324   3.295  15.509 -0.0464  0.1922  0.6361
 4291TIP3    H134288   0.289   3.208  15.528  2.2879 -1.1745 -1.1065
 4291TIP3    H234289   0.280   3.352  15.572 -2.8113 -1.9668  0.7810
 4292TIP3   OH234290   3.827   4.702   1.215  0.1406  0.2398  0.1297
 4292TIP3    H134291   3.910   4.734   1.180  0.7861  0.1126  1.5108
 4292TIP3    H234292   3.774   4.683   1.137  1.6889 -0.4540 -0.7740
 4293TIP3   OH234293   3.828   5.491   2.858 -0.3278 -0.2392  0.1897
 4293TIP3    H134294   3.800   5.582   2.860  0.3748 -0.0334  0.6198
 4293TIP3    H234295   3.746   5.441   2.860 -0.6571  0.3418  2.0282
 4294TIP3   OH234296   5.222   0.453  15.321 -1.2803 -0.1446 -0.1172
 4294TIP3    H134297   5.242   0.420  15.409  0.9665 -1.3548 -1.0489
 4294TIP3    H234298   5.159   0.523  15.336 -0.6808 -0.1046  2.5043
 4295TIP3   OH234299   1.034   1.663  10.916  0.7715 -0.3403 -0.0851
 4295TIP3    H134300   1.092   1.610  10.970 -1.6960 -2.3702  0.6607
 4295TIP3    H234301   0.963   1.690  10.975 -0.9569 -0.9527 -1.8081
 4296TIP3   OH234302   1.631   3.580   3.800  0.5500 -0.3905 -0.5790
 4296TIP3    H134303   1.643   3.664   3.844 -1.6828 -0.5096  0.3652
 4296TIP3    H234304   1.672   3.591   3.715  2.3163  0.8624  0.3985
 4297TIP3   OH234305   2.295   6.744   1.525  0.1775  0.1389 -0.3379
 4297TIP3    H134306   2.377   6.753   1.574  0.7594  0.8355 -1.4178
 4297TIP3    H234307   2.262   6.834   1.517  0.4575  0.1212 -1.8370
 4298TIP3   OH234308   2.278   2.869  12.675  0.6034  0.0510  0.0915
 4298TIP3    H134309   2.242   2.835  12.593 -0.8076  0.3471  0.5692
 4298TIP3    H234310   2.364   2.828  12.683  0.1996 -1.0021 -0.8774
 4299TIP3   OH234311   4.490   0.043   6.311  0.2412  0.5605 -0.3682
 4299TIP3    H134312   4.529  -0.024   6.254  0.9048  1.3840 -0.8976
 4299TIP3    H234313   4.397   0.041   6.289  0.2171 -0.3325 -0.2273
 4300TIP3   OH234314   0.791   4.727   4.655 -1.0945  0.1642 -0.1329
 4300TIP3    H134315   0.731   4.694   4.588 -1.9140  0.9511  0.1935
 4300TIP3    H234316   0.830   4.805   4.617 -0.5023 -0.1663 -0.2201
 4301TIP3   OH234317   5.236   6.510  12.297 -0.0119  0.0233  0.5753
 4301TIP3    H134318   5.324   6.506  12.332  0.4496 -3.0389 -0.7689
 4301TIP3    H234319   5.179   6.489  12.371  0.4463  0.8250  1.1608
 4302TIP3   OH234320   5.209   3.539  13.476 -0.1277 -0.0230 -0.0851
 4302TIP3    H134321   5.299   3.536  13.443  0.1877 -0.2307  0.7716
 4302TIP3    H234322   5.202   3.625  13.517 -0.5260  0.2438 -0.6967
 4303TIP3   OH234323   4.398   1.206  10.827 -0.3361  0.0994 -0.0510
 4303TIP3    H134324   4.493   1.216  10.832 -0.0918 -0.8321 -2.1887
 4303TIP3    H234325   4.385   1.112  10.814 -1.5561  0.2177  0.2410
 4304TIP3   OH234326   1.979   6.535  15.869  0.0006  0.3309 -0.5106
 4304TIP3    H134327   2.013   6.501  15.786  1.5716 -1.6117  0.8859
 4304TIP3    H234328   1.897   6.488  15.883 -0.3699  0.8068 -1.0334
 4305TIP3   OH234329   0.158   0.380  13.904  0.4331 -0.5806  0.1835
 4305TIP3    H134330   0.231   0.435  13.931  1.7440 -0.4034 -3.4434
 4305TIP3    H234331   0.103   0.372  13.982  1.6643  3.4920  1.5480
 4306TIP3   OH234332   4.519   4.670   2.680 -0.0525 -0.0861 -0.1317
 4306TIP3    H134333   4.608   4.650   2.654 -0.5797 -1.7936 -0.6569
 4306TIP3    H234334   4.495   4.747   2.628  1.1357  0.4699  0.1157
 4307TIP3   OH234335   2.014   2.703   2.544  0.1903 -0.1374  0.7906
 4307TIP3    H134336   1.934   2.737   2.504 -0.7676 -1.2176  1.7559
 4307TIP3    H234337   1.994   2.610   2.561  2.0166 -0.6850  0.0530
 4308TIP3   OH234338   2.815   6.156  12.929 -0.5444  0.3186  0.0585
 4308TIP3    H134339   2.871   6.232  12.911  0.1366  0.4478  2.5206
 4308TIP3    H234340   2.876   6.088  12.958 -1.4176 -0.3101  0.4370
 4309TIP3   OH234341   5.726   6.741  13.090  0.1105 -0.7992  0.1989
 4309TIP3    H134342   5.694   6.797  13.019 -1.8986 -0.3142  1.4408
 4309TIP3    H234343   5.787   6.796  13.139  1.3819 -1.0849 -1.0177
 4310TIP3   OH234344   0.300   1.863   4.255 -0.0920  0.3005 -0.5522
 4310TIP3    H134345   0.331   1.925   4.321 -1.0050  0.4602 -0.2684
 4310TIP3    H234346   0.283   1.917   4.178 -1.9045  0.5801  0.0237
 4311TIP3   OH234347   6.036   5.455   5.946  0.3358 -0.1818  0.3311
 4311TIP3    H134348   5.949   5.469   5.984  0.0922  0.0443 -0.3007
 4311TIP3    H234349   6.053   5.362   5.962 -0.0260 -0.2311  0.4477
 4312TIP3   OH234350   4.400   2.399  14.094  0.3292  0.2114  0.9397
 4312TIP3    H134351   4.319   2.406  14.044  1.2385 -0.6124 -0.6969
 4312TIP3    H234352   4.456   2.468  14.059  0.7462  0.0312  1.2443
 4313TIP3   OH234353   0.073   1.372  17.093 -0.3375 -0.1588 -0.3029
 4313TIP3    H134354   0.078   1.374  17.189 -0.5086 -2.0567 -0.2317
 4313TIP3    H234355   0.133   1.441  17.065  1.6487 -1.2285  1.1466
 4314TIP3   OH234356   5.963   1.086  14.285 -0.7356 -0.2488 -0.4688
 4314TIP3    H134357   5.979   1.071  14.192 -0.2637  0.4731 -0.5124
 4314TIP3    H234358   5.896   1.153  14.288 -0.7055 -0.2242 -0.2904
 4315TIP3   OH234359   4.955   3.181   0.649  0.1040 -0.8002  0.2363
 4315TIP3    H134360   4.911   3.119   0.591  1.4643  0.8510 -2.6676
 4315TIP3    H234361   5.044   3.147   0.657  0.6630  0.4022 -0.8230
 4316TIP3   OH234362   4.284   4.503   5.874 -0.1739  0.4637 -0.8535
 4316TIP3    H134363   4.207   4.536   5.921 -0.0850 -1.7425  0.9519
 4316TIP3    H234364   4.284   4.409   5.893  2.0628  0.1723 -2.1786
 4317TIP3   OH234365   2.801   6.455  15.840  0.4631  0.3827 -0.0198
 4317TIP3    H134366   2.745   6.384  15.871  0.3117  0.2082 -0.6915
 4317TIP3    H234367   2.741   6.517  15.799  0.8731 -0.3461 -1.7618
 4318TIP3   OH234368   3.984   6.574   3.357  0.2177 -0.2129  0.3930
 4318TIP3    H134369   3.904   6.537   3.320  0.2727 -0.0084  0.0728
 4318TIP3    H234370   3.969   6.668   3.358  1.0222 -0.0655 -0.9977
 4319TIP3   OH234371   3.944   6.702   1.304 -0.2329 -0.7951  0.2425
 4319TIP3    H134372   3.925   6.794   1.325 -1.1917 -1.1184  0.7979
 4319TIP3    H234373   3.897   6.685   1.223  1.4598 -0.2706 -0.8869
 4320TIP3   OH234374   0.246   5.370  12.263 -0.1026  0.0485  0.1059
 4320TIP3    H134375   0.325   5.414  12.292  1.2939 -0.8861 -2.1262
 4320TIP3    H234376   0.200   5.435  12.209  0.3972 -0.1933 -0.6221
 4321TIP3   OH234377   6.387   3.409  13.140  0.1016 -0.4475  0.1194
 4321TIP3    H134378   6.348   3.495  13.155  1.2201  0.4434 -1.9619
 4321TIP3    H234379   6.316   3.348  13.157 -1.4346  1.0184 -0.8244
 4322TIP3   OH234380   2.225   6.666   5.868  0.1112 -0.8186 -0.0100
 4322TIP3    H134381   2.251   6.638   5.781  0.0680  1.4962 -0.7957
 4322TIP3    H234382   2.130   6.678   5.862  0.2361  0.2236  0.1008
 4323TIP3   OH234383   0.016   3.251   5.324  0.0552 -0.1290 -0.3902
 4323TIP3    H134384   0.067   3.296   5.256  0.5178  0.3798  0.2967
 4323TIP3    H234385   0.008   3.161   5.292 -0.2352  0.2501 -1.4113
 4324TIP3   OH234386   5.165   2.424  14.498 -0.2140 -0.3339  0.0810
 4324TIP3    H134387   5.150   2.503  14.445 -2.4300 -0.0906  0.9787
 4324TIP3    H234388   5.197   2.359  14.436 -0.0711  0.7605 -1.0158
 4325TIP3   OH234389   2.373   3.517  16.195  0.2028 -0.5869 -0.1256
 4325TIP3    H134390   2.444   3.462  16.228  2.5594  1.4728 -1.6228
 4325TIP3    H234391   2.358   3.581  16.265  0.1006 -0.7798  0.0302
 4326TIP3   OH234392   3.430   1.936   3.776  0.2421  0.1249  0.0875
 4326TIP3    H134393   3.377   2.012   3.800  0.3023 -0.1083  0.9782
 4326TIP3    H234394   3.520   1.968   3.776  0.4327 -0.3902  2.2820
 4327TIP3   OH234395   0.541   0.336   1.953  0.4477  0.3601 -0.0408
 4327TIP3    H134396   0.490   0.256   1.937 -0.9186  1.1875  0.0684
 4327TIP3    H234397   0.586   0.319   2.035  0.4260 -0.4268 -0.1791
 4328TIP3   OH234398   1.010   5.105  14.730 -0.0611 -0.0018 -0.4272
 4328TIP3    H134399   1.037   5.042  14.663  1.4392 -2.0882  2.0187
 4328TIP3    H234400   0.936   5.064  14.774 -0.1555  0.7282  0.1118
 4329TIP3   OH234401   0.789   4.354   1.963  0.0699 -0.1106 -0.5861
 4329TIP3    H134402   0.853   4.362   2.034  0.7807  2.2088 -1.4707
 4329TIP3    H234403   0.716   4.410   1.990 -0.9797 -1.5930 -0.2835
 4330TIP3   OH234404   2.119   6.118  13.916  0.0693  0.3226  0.6360
 4330TIP3    H134405   2.144   6.206  13.946  1.0387 -0.2278  1.4686
 4330TIP3    H234406   2.197   6.083  13.874 -0.0977 -0.4082  0.9184
 4331TIP3   OH234407   0.766   0.507  12.740  0.0229 -0.2230  0.2191
 4331TIP3    H134408   0.694   0.558  12.703 -0.8349 -0.5495  1.3696
 4331TIP3    H234409   0.844   0.560  12.724 -0.1026 -1.0002 -3.2274
 4332TIP3   OH234410   4.034   2.317   5.782  0.5716 -0.0619  0.1152
 4332TIP3    H134411   3.980   2.259   5.836 -1.3085  1.1524 -0.3952
 4332TIP3    H234412   4.064   2.385   5.843 -2.7029  2.1081 -0.4987
 4333TIP3   OH234413   4.183   5.837  15.444  0.4323 -0.1863 -0.4415
 4333TIP3    H134414   4.149   5.917  15.482  0.6409 -0.4285  0.2739
 4333TIP3    H234415   4.254   5.865  15.386  1.0511  0.0786  0.4459
 4334TIP3   OH234416   4.052   5.491  11.067 -0.6632  0.3384  0.3958
 4334TIP3    H134417   4.065   5.425  10.998 -0.1486  2.5659 -1.6819
 4334TIP3    H234418   3.966   5.528  11.050 -1.0370  0.1150  1.6883
 4335TIP3   OH234419   1.248   5.319   0.826  0.6162  0.1784 -0.4233
 4335TIP3    H134420   1.195   5.292   0.751  0.3789 -0.8267  0.1053
 4335TIP3    H234421   1.196   5.388   0.868  0.1416 -0.1670 -0.4327
 4336TIP3   OH234422   4.168   4.536   0.783  0.3215  0.0124  0.2518
 4336TIP3    H134423   4.258   4.509   0.761 -0.1623 -0.7761 -0.8193
 4336TIP3    H234424   4.160   4.516   0.876  1.8483  1.8068  0.8118
 4337TIP3   OH234425   0.478   4.669   0.143 -0.4277 -0.5439  0.2569
 4337TIP3    H134426   0.449   4.747   0.095  1.3268 -0.1976 -0.2905
 4337TIP3    H234427   0.397   4.626   0.170 -1.5072 -1.3853 -3.9994
 4338TIP3   OH234428   3.583   4.172  10.522  0.3505 -0.0467  0.7940
 4338TIP3    H134429   3.624   4.168  10.435 -1.3263 -0.4466  0.0074
 4338TIP3    H234430   3.617   4.096  10.569  0.2824 -0.5452  0.0391
 4339TIP3   OH234431   4.970   2.367  16.611  0.6493  0.0835  0.1556
 4339TIP3    H134432   5.004   2.455  16.628  0.6589 -0.2103  1.7885
 4339TIP3    H234433   5.008   2.313  16.681  0.8378 -1.2695 -0.9755
 4340TIP3   OH234434   3.664   2.101   3.754  0.0378  0.1172  0.5638
 4340TIP3    H134435   3.748   2.145   3.750  0.6785 -1.0968  0.3527
 4340TIP3    H234436   3.684   2.009   3.734 -1.5199  0.0527 -0.7787
 4341TIP3   OH234437   4.270   4.544   0.461  0.2234 -0.3915 -0.3648
 4341TIP3    H134438   4.209   4.612   0.489  1.0136 -0.5005  1.7378
 4341TIP3    H234439   4.348   4.592   0.433 -1.2874 -0.1656 -4.5070
 4342TIP3   OH234440   0.420   2.883   4.402  0.8610 -0.0658 -0.4574
 4342TIP3    H134441   0.497   2.940   4.410  0.1102  0.9954 -0.6133
 4342TIP3    H234442   0.353   2.940   4.366 -0.1971 -0.8086  0.3302
 4343TIP3   OH234443   1.601   2.972   3.170 -0.3438 -0.7123  0.4184
 4343TIP3    H134444   1.618   3.061   3.204 -0.0012 -0.8100  0.5081
 4343TIP3    H234445   1.523   2.982   3.115  0.1000 -0.2179 -0.1315
 4344TIP3   OH234446   4.067   1.368   2.593 -0.9645  0.6790 -0.1750
 4344TIP3    H134447   4.158   1.362   2.564 -1.1798 -1.0030 -0.5478
 4344TIP3    H234448   4.070   1.352   2.687 -0.7898  1.4598 -0.0436
 4345TIP3   OH234449   1.518   5.115   6.069 -0.2820  0.3233  0.1791
 4345TIP3    H134450   1.530   5.028   6.031  0.2937  0.3553  0.2847
 4345TIP3    H234451   1.427   5.115   6.100 -1.5544  1.1749 -3.3764
 4346TIP3   OH234452   4.433   2.282   5.808 -0.1452 -0.1630  0.0547
 4346TIP3    H134453   4.360   2.342   5.817  0.2453  0.8369 -2.8455
 4346TIP3    H234454   4.464   2.295   5.718  1.1770 -3.2883 -0.0275
 4347TIP3   OH234455   0.347   3.458   3.652  0.6549  0.7119  0.2821
 4347TIP3    H134456   0.285   3.390   3.679 -0.3436  0.6420 -2.0177
 4347TIP3    H234457   0.431   3.429   3.686 -0.0101 -0.9052  0.6190
 4348TIP3   OH234458   4.258   5.024   2.194 -0.5083 -0.4556 -0.2787
 4348TIP3    H134459   4.290   5.019   2.284  1.5795 -1.7752 -1.0464
 4348TIP3    H234460   4.163   5.015   2.201 -0.4231  0.0903  1.8278
 4349TIP3   OH234461   3.595   5.592   4.889 -0.1790 -0.0424 -0.1955
 4349TIP3    H134462   3.630   5.536   4.820 -1.5944 -2.6610  1.1656
 4349TIP3    H234463   3.616   5.547   4.971 -0.7258  1.7563  0.9787
 4350TIP3   OH234464   1.468   2.252  14.157 -0.1328  0.1411 -0.2705
 4350TIP3    H134465   1.506   2.317  14.098  1.1133  0.4325  0.8074
 4350TIP3    H234466   1.536   2.185  14.165 -0.5114 -0.1718  0.3703
 4351TIP3   OH234467   3.029   0.964  15.546 -0.0189 -0.2381 -0.3658
 4351TIP3    H134468   3.009   0.878  15.583  0.8681 -0.1391  0.3871
 4351TIP3    H234469   2.963   1.022  15.583 -0.5792 -0.5845 -0.8225
 4352TIP3   OH234470   6.132   3.524   0.408  0.2583  0.3952  0.6106
 4352TIP3    H134471   6.203   3.495   0.351 -0.0013 -0.0061  0.4884
 4352TIP3    H234472   6.126   3.618   0.394  0.0167  0.2560 -0.2321
 4353TIP3   OH234473   2.948   4.070  11.235  0.0181  0.0323  0.0354
 4353TIP3    H134474   2.857   4.089  11.259  0.4405  0.6284  1.2183
 4353TIP3    H234475   2.997   4.085  11.316  1.2792  0.5173 -0.8162
 4354TIP3   OH234476   6.318   4.490   5.697 -0.1272 -0.2048 -0.1991
 4354TIP3    H134477   6.270   4.425   5.748  0.4243 -0.4960 -0.0481
 4354TIP3    H234478   6.373   4.438   5.638  0.0668  0.1225 -0.3112
 4355TIP3   OH234479   1.078   2.627   1.986 -0.4687 -0.2613  0.2350
 4355TIP3    H134480   1.021   2.700   2.007  0.0451 -0.0436  0.8797
 4355TIP3    H234481   1.110   2.595   2.071  0.3805 -0.3594 -0.1103
 4356TIP3   OH234482   5.286   2.097   4.230 -0.1021  0.1172  0.2790
 4356TIP3    H134483   5.376   2.116   4.256  0.5076  1.4517 -2.5468
 4356TIP3    H234484   5.252   2.040   4.299  2.5745  0.3978  1.9011
 4357TIP3   OH234485   6.335   2.166   1.389  0.0594  0.1600  0.0449
 4357TIP3    H134486   6.309   2.161   1.297  2.7146  1.3934 -0.8447
 4357TIP3    H234487   6.290   2.093   1.431 -0.4643 -0.9939 -2.4243
 4358TIP3   OH234488   6.426   1.593  16.506  0.0727  0.0336 -0.4845
 4358TIP3    H134489   6.480   1.569  16.430  3.3844  0.3290  1.6969
 4358TIP3    H234490   6.401   1.684  16.490 -1.6334 -0.7608 -2.5474
 4359TIP3   OH234491   1.713   0.510   2.426 -0.2524 -0.4766  0.0281
 4359TIP3    H134492   1.739   0.591   2.470  0.5378 -0.9402  0.4300
 4359TIP3    H234493   1.753   0.441   2.479 -0.6757 -1.1140 -0.4809
 4360TIP3   OH234494   4.100   0.490   0.101 -0.1830 -0.1550 -0.3467
 4360TIP3    H134495   4.126   0.571   0.144  1.1494 -0.9160  0.3247
 4360TIP3    H234496   4.052   0.442   0.168 -0.0198 -0.3876 -0.3958
 4361TIP3   OH234497   4.530   1.040   3.981 -0.0640  0.0774 -0.2339
 4361TIP3    H134498   4.512   1.034   3.887  1.6383 -0.9041 -0.5273
 4361TIP3    H234499   4.621   1.009   3.989 -0.6841 -1.2387  1.8909
 4362TIP3   OH234500   3.205   0.295   0.087 -0.5528 -0.1476  0.2488
 4362TIP3    H134501   3.154   0.353   0.030 -0.3355  0.3253  0.5421
 4362TIP3    H234502   3.265   0.353   0.133 -0.7197 -0.5349  0.9528
 4363TIP3   OH234503   2.285   6.745  13.129 -0.4316  0.3886 -0.0972
 4363TIP3    H134504   2.304   6.750  13.035 -1.7741  2.0349 -0.3181
 4363TIP3    H234505   2.213   6.682  13.136  0.1658 -0.2962 -0.0824
 4364TIP3   OH234506   6.070   5.742   0.540 -0.0723  0.1174  0.2965
 4364TIP3    H134507   6.005   5.680   0.508 -0.1587  0.0571  0.5846
 4364TIP3    H234508   6.129   5.690   0.594 -0.5243  0.3928  1.0784
 4365TIP3   OH234509   2.198   1.845  13.769  0.2766  0.5315  0.1246
 4365TIP3    H134510   2.118   1.818  13.722  0.6958 -1.0287  0.2667
 4365TIP3    H234511   2.204   1.939  13.754 -1.1721  0.5336 -0.5471
 4366TIP3   OH234512   0.532   5.321   2.938 -0.2465 -0.8271  0.0323
 4366TIP3    H134513   0.509   5.322   2.845 -0.7429 -1.2860  0.1475
 4366TIP3    H234514   0.628   5.312   2.939 -0.0834  0.7784 -0.4464
 4367TIP3   OH234515   0.989   0.669  12.709 -0.1161 -0.3775 -0.0316
 4367TIP3    H134516   0.986   0.742  12.647  0.0064  0.6489  1.1713
 4367TIP3    H234517   0.971   0.708  12.794 -0.2531 -1.7837  0.6012
 4368TIP3   OH234518   1.878   3.306   5.217  0.2752 -0.8645  0.0233
 4368TIP3    H134519   1.882   3.321   5.311  0.2444  1.0927 -0.2728
 4368TIP3    H234520   1.966   3.327   5.186 -0.1082 -0.1158 -0.5743
 4369TIP3   OH234521   5.815   6.270   3.237  0.3323 -0.1555  0.0791
 4369TIP3    H134522   5.896   6.286   3.285  0.3486 -0.3920  0.1272
 4369TIP3    H234523   5.747   6.308   3.293  0.8047  3.8243 -1.8407
 4370TIP3   OH234524   1.213   1.838  17.232  0.0704 -0.0310  0.3059
 4370TIP3    H134525   1.184   1.903  17.297  1.8672  0.2124  0.9017
 4370TIP3    H234526   1.251   1.768  17.285  0.8020 -0.2096 -0.4485
 4371TIP3   OH234527   5.810   3.159  16.229  0.1987 -0.1264  0.3180
 4371TIP3    H134528   5.774   3.082  16.186  1.0244 -0.6534  0.5654
 4371TIP3    H234529   5.901   3.137  16.247  0.3860  0.8238  0.5851
 4372TIP3   OH234530   0.134   2.395   6.596 -0.2678 -0.2260  0.1646
 4372TIP3    H134531   0.092   2.314   6.567 -1.6165  0.3732  0.4118
 4372TIP3    H234532   0.123   2.455   6.523  0.8482 -0.3016 -0.0684
 4373TIP3   OH234533   4.608   5.856  16.864  0.6037  0.6280  0.0054
 4373TIP3    H134534   4.524   5.835  16.905  0.7487 -0.2739 -0.1491
 4373TIP3    H234535   4.588   5.930  16.806  0.1614  1.1706  0.8270
 4374TIP3   OH234536   4.390   5.937   4.720 -0.2527 -0.2737  0.2530
 4374TIP3    H134537   4.436   5.867   4.766 -0.8745 -1.5407 -1.0274
 4374TIP3    H234538   4.298   5.913   4.727 -0.6946  1.8488  2.1397
 4375TIP3   OH234539   5.039   4.382  11.222 -0.5306 -0.4327 -0.3102
 4375TIP3    H134540   5.022   4.441  11.148  0.4625 -0.8973 -0.9162
 4375TIP3    H234541   5.084   4.307  11.183 -4.5150 -3.0683 -0.1062
 4376TIP3   OH234542   1.354   0.402  14.484 -0.5073  0.0510 -0.3084
 4376TIP3    H134543   1.275   0.429  14.436 -0.4325 -0.1584 -0.5527
 4376TIP3    H234544   1.382   0.322  14.440 -0.3004 -0.0127 -0.0622
 4377TIP3   OH234545   3.607   5.267  11.478 -0.6475 -0.2336  0.0336
 4377TIP3    H134546   3.534   5.227  11.525  0.1856 -0.9821  0.6952
 4377TIP3    H234547   3.644   5.330  11.539 -0.6991  0.0944 -0.2741
 4378TIP3   OH234548   3.057   2.706   4.849 -0.3008 -0.1050 -0.1879
 4378TIP3    H134549   3.120   2.725   4.919  1.4462 -1.0145 -1.4679
 4378TIP3    H234550   3.032   2.792   4.816 -1.1338  0.3327  1.5293
 4379TIP3   OH234551   5.246   3.844   1.337  0.4637 -0.0858  0.1514
 4379TIP3    H134552   5.270   3.933   1.360 -1.8274  0.5010  0.4188
 4379TIP3    H234553   5.325   3.793   1.352  1.0243  1.4364  2.6564
 4380TIP3   OH234554   6.725   2.500  11.297 -0.1040  0.5402 -0.6114
 4380TIP3    H134555   6.732   2.549  11.379 -0.0534  0.1894 -0.4081
 4380TIP3    H234556   6.682   2.561  11.236 -0.2376  0.7623 -0.2937
 4381TIP3   OH234557   6.656   0.218  16.408  0.3697  0.1686  0.2273
 4381TIP3    H134558   6.561   0.206  16.409 -0.0247  2.7612 -0.7141
 4381TIP3    H234559   6.678   0.223  16.315  0.9621  2.5678  0.4575
 4382TIP3   OH234560   3.252   3.548   2.754  0.8010 -0.1414 -0.2162
 4382TIP3    H134561   3.172   3.594   2.780  0.1374  0.0553 -2.4990
 4382TIP3    H234562   3.320   3.584   2.811 -0.7445 -0.4348  1.8859
 4383TIP3   OH234563   0.454   5.104   4.952  0.1148  0.9700  0.2954
 4383TIP3    H134564   0.530   5.046   4.946 -0.3316  0.4691 -0.7430
 4383TIP3    H234565   0.462   5.146   5.037  1.3812  0.6815  0.3216
 4384TIP3   OH234566   5.280   6.005   0.456 -0.2993 -0.0194 -0.6576
 4384TIP3    H134567   5.269   5.910   0.448 -2.9104  0.0735  1.4488
 4384TIP3    H234568   5.193   6.041   0.439  0.7990  2.0769 -2.0622
 4385TIP3   OH234569   6.480   5.708   3.769  0.0520  0.2982 -0.2934
 4385TIP3    H134570   6.575   5.703   3.768  0.1543  1.0773  1.6168
 4385TIP3    H234571   6.457   5.706   3.862 -1.7738  0.4339 -0.7115
 4386TIP3   OH234572   6.382   4.701   0.103  0.5312 -0.0546 -0.0019
 4386TIP3    H134573   6.338   4.670   0.024  0.8407  0.7126 -0.4798
 4386TIP3    H234574   6.327   4.772   0.136  0.6882 -0.0070  0.1634
 4387TIP3   OH234575   6.294   4.394  13.144  0.0012 -0.3844 -0.2784
 4387TIP3    H134576   6.235   4.435  13.208 -1.7565  0.2485 -2.2328
 4387TIP3    H234577   6.312   4.464  13.081  0.2299 -1.4818 -1.4458
 4388TIP3   OH234578   1.899   6.577   4.044  0.8090  0.1582 -0.0767
 4388TIP3    H134579   1.985   6.549   4.074  1.2702  0.6307 -0.9423
 4388TIP3    H234580   1.844   6.572   4.122  1.9684  1.3080  0.8358
 4389TIP3   OH234581   3.839   3.877   2.058 -0.1720 -0.1415  0.3756
 4389TIP3    H134582   3.928   3.856   2.086  0.4789  0.2660 -1.2899
 4389TIP3    H234583   3.845   3.968   2.027 -0.9238 -0.4476 -0.6992
 4390TIP3   OH234584   3.227   0.370   6.091  0.8478  0.0081 -0.6465
 4390TIP3    H134585   3.242   0.464   6.091  0.3831  0.0839  0.2618
 4390TIP3    H234586   3.146   0.359   6.041 -0.1864  0.2808  0.9217
 4391TIP3   OH234587   2.494   6.208   4.127  0.6424 -0.3215 -0.3122
 4391TIP3    H134588   2.500   6.120   4.090  0.4234 -0.6281  0.3866
 4391TIP3    H234589   2.404   6.215   4.158  0.3184  0.5636 -1.3887
 4392TIP3   OH234590   1.750   6.002  14.630  0.2389  0.1849 -0.3132
 4392TIP3    H134591   1.785   6.064  14.566  1.2538 -0.1748 -0.1173
 4392TIP3    H234592   1.731   5.923  14.579 -1.4785  0.8044 -0.6433
 4393TIP3   OH234593   3.776   2.645  12.948 -0.0865 -0.4749  0.7142
 4393TIP3    H134594   3.695   2.595  12.961 -0.2540  0.0210  1.6514
 4393TIP3    H234595   3.778   2.663  12.854 -0.7135 -1.0725  0.5767
 4394TIP3   OH234596   1.353   2.441   2.587 -0.0556 -0.2587  0.0735
 4394TIP3    H134597   1.312   2.362   2.552  0.8068 -1.1545  1.0757
 4394TIP3    H234598   1.446   2.420   2.591  0.1169  0.6433  0.8051
 4395TIP3   OH234599   0.647   4.922   3.070 -0.2597 -0.5387  0.1677
 4395TIP3    H134600   0.557   4.953   3.058  0.3044  0.5059 -1.5258
 4395TIP3    H234601   0.642   4.862   3.144 -2.6439 -1.7611 -0.9293
 4396TIP3   OH234602   1.776   4.820  12.206 -0.2908  0.2775 -0.0385
 4396TIP3    H134603   1.828   4.880  12.260  1.1169 -0.4618 -0.5606
 4396TIP3    H234604   1.693   4.867  12.192  0.3994  1.6647  0.4042
 4397TIP3   OH234605   1.863   4.011   0.402  0.4414  0.3857  0.1597
 4397TIP3    H134606   1.889   4.088   0.453  0.4775 -0.6435  1.7341
 4397TIP3    H234607   1.781   4.035   0.361  0.2094  1.1076  1.0385
 4398TIP3   OH234608   3.404   1.462  15.726  0.5365 -0.0871 -0.6922
 4398TIP3    H134609   3.402   1.375  15.686  0.6335  0.1628 -1.2521
 4398TIP3    H234610   3.312   1.482  15.743  0.3410  0.4478 -2.2314
 4399TIP3   OH234611   4.231   0.746   1.702 -0.6366 -0.2307 -0.1886
 4399TIP3    H134612   4.163   0.752   1.770 -1.0610 -1.2410 -0.5073
 4399TIP3    H234613   4.225   0.656   1.671  0.1701 -0.0288 -0.9402
 4400TIP3   OH234614   1.173   4.034   5.658 -0.3044 -0.2799 -0.1285
 4400TIP3    H134615   1.088   4.072   5.634 -0.0691 -0.0360 -0.5727
 4400TIP3    H234616   1.152   3.973   5.730 -0.7169  0.5138  0.4340
 4401TIP3   OH234617   0.871   0.986  17.038 -0.0195  0.2569 -0.2879
 4401TIP3    H134618   0.823   0.908  17.013  1.3335 -1.4268  2.2222
 4401TIP3    H234619   0.935   0.999  16.967 -2.1534  0.8452 -2.1644
 4402TIP3   OH234620   5.685   6.029   3.330 -0.2410 -0.2548  0.0685
 4402TIP3    H134621   5.753   6.096   3.322 -1.0804  0.6905  0.7332
 4402TIP3    H234622   5.733   5.950   3.356  0.7041  0.1788 -0.3119
 4403TIP3   OH234623   4.671   3.996   4.248  0.1796  0.0908 -0.0438
 4403TIP3    H134624   4.599   3.949   4.205  0.7301  0.5996 -1.5292
 4403TIP3    H234625   4.736   3.928   4.265 -0.4915 -0.3135  1.0213
 4404TIP3   OH234626   0.797   1.252   6.745  0.0959 -0.8666 -0.5184
 4404TIP3    H134627   0.719   1.208   6.713  0.4956 -2.0534  0.1039
 4404TIP3    H234628   0.842   1.282   6.666 -0.8355 -0.4413 -0.8857
 4405TIP3   OH234629   2.953   6.146   3.133  0.8061 -0.1488 -0.4873
 4405TIP3    H134630   2.953   6.057   3.098  1.6474  0.0175 -0.9327
 4405TIP3    H234631   2.861   6.165   3.153  0.1692  0.0738 -3.4442
 4406TIP3   OH234632   1.175   6.118   2.928  0.1309 -0.0867  0.0434
 4406TIP3    H134633   1.114   6.067   2.981 -0.5611  0.1563 -0.5242
 4406TIP3    H234634   1.194   6.195   2.981  0.0971 -0.2533  0.3000
 4407TIP3   OH234635   0.021   2.116  15.124  0.5402  0.3760 -0.3181
 4407TIP3    H134636   0.092   2.086  15.067  0.7336 -0.6640  0.4410
 4407TIP3    H234637   0.024   2.056  15.199  1.5242  2.9259  1.7203
 4408TIP3   OH234638   4.299   4.915   5.272 -0.2130 -0.7993  0.4192
 4408TIP3    H134639   4.334   4.958   5.351  2.2983  0.4761 -1.3262
 4408TIP3    H234640   4.305   4.822   5.291  2.6629 -0.5746  0.8476
 4409TIP3   OH234641   1.385   1.942   1.190 -0.1241  0.2131 -0.3868
 4409TIP3    H134642   1.444   1.873   1.160 -0.3847 -0.1312 -0.0941
 4409TIP3    H234643   1.335   1.967   1.112  0.3255  0.4276 -0.6105
 4410TIP3   OH234644   2.446   6.032   5.146 -0.3009 -0.3616 -0.3365
 4410TIP3    H134645   2.351   6.046   5.136 -0.3098 -0.0318  0.1900
 4410TIP3    H234646   2.453   5.965   5.214 -0.1524 -0.2785 -0.2701
 4411TIP3   OH234647   3.152   3.925  16.589  0.4133 -0.0758  0.2090
 4411TIP3    H134648   3.135   3.883  16.504 -1.2166 -0.3135  0.6331
 4411TIP3    H234649   3.067   3.927  16.632  0.8871  1.7565  1.0850
 4412TIP3   OH234650   1.674   6.228   3.778 -0.4037  0.3158 -0.3745
 4412TIP3    H134651   1.657   6.265   3.865 -0.2699  0.4792 -0.4178
 4412TIP3    H234652   1.600   6.256   3.725 -1.1514 -0.8644  0.0181
 4413TIP3   OH234653   1.128   2.937   5.977 -0.2983 -0.1290  0.3153
 4413TIP3    H134654   1.070   2.951   5.903  0.5349 -0.4279 -0.3978
 4413TIP3    H234655   1.119   3.017   6.030 -2.3048 -0.7028  0.8716
 4414TIP3   OH234656   1.111   4.096  15.487 -0.2850 -0.1889 -0.2805
 4414TIP3    H134657   1.041   4.126  15.545 -0.0557  0.0312 -0.1169
 4414TIP3    H234658   1.085   4.008  15.460 -2.2035  1.0605 -2.6991
 4415TIP3   OH234659   2.387   3.886   0.052  0.2560 -0.5974  0.2055
 4415TIP3    H134660   2.460   3.942   0.026 -1.5876  1.7631 -0.0635
 4415TIP3    H234661   2.329   3.886  -0.024 -0.1654 -2.1991  0.5182
 4416TIP3   OH234662   1.577   2.030  12.298  0.3875  0.0664  0.5402
 4416TIP3    H134663   1.662   2.035  12.342  0.8896  1.4130 -0.5183
 4416TIP3    H234664   1.516   2.069  12.360  0.3319 -1.8684  1.7447
 4417TIP3   OH234665   2.469   0.244  10.393 -0.0759 -0.3497  0.4431
 4417TIP3    H134666   2.552   0.290  10.374 -0.0887 -0.6974 -0.4820
 4417TIP3    H234667   2.485   0.200  10.477 -0.6642  2.7673  2.2897
 4418TIP3   OH234668   4.284   5.062   4.825  0.1984 -0.3451  0.1711
 4418TIP3    H134669   4.320   5.091   4.909  1.2293  2.4060 -1.1445
 4418TIP3    H234670   4.194   5.095   4.825 -0.5422 -2.3112  1.1073
 4419TIP3   OH234671   6.105   6.000   0.450 -0.2218 -0.0608 -0.1760
 4419TIP3    H134672   6.032   6.009   0.389  1.4457 -0.2008 -2.2395
 4419TIP3    H234673   6.097   5.912   0.485 -0.9741 -0.1108 -0.4676
 4420TIP3   OH234674   5.806   5.179  12.103 -0.5587  0.0418  0.0378
 4420TIP3    H134675   5.812   5.102  12.160  0.8356  1.2286  1.5567
 4420TIP3    H234676   5.790   5.143  12.016  1.8216 -2.0955  0.4052
 4421TIP3   OH234677   2.873   0.554   0.941  0.3538 -0.7733  0.0402
 4421TIP3    H134678   2.863   0.471   0.894 -0.3196 -0.3650 -0.5542
 4421TIP3    H234679   2.917   0.530   1.022  1.0095 -1.5792 -0.5369
 4422TIP3   OH234680   4.602   4.374   4.833  0.3761 -0.2066  0.5435
 4422TIP3    H134681   4.623   4.336   4.919  2.0946 -0.8714 -0.1355
 4422TIP3    H234682   4.685   4.371   4.785 -0.8457 -1.0063 -1.5926
 4423TIP3   OH234683   2.312   5.586  15.769 -0.5315 -0.4235 -0.3346
 4423TIP3    H134684   2.260   5.608  15.847 -0.8828 -0.8869 -0.4356
 4423TIP3    H234685   2.387   5.537  15.803 -1.4022 -1.8312 -0.4131
 4424TIP3   OH234686   3.415   4.416  11.766  0.6030  0.1954  0.2345
 4424TIP3    H134687   3.498   4.417  11.812 -0.4016 -1.9031  2.1732
 4424TIP3    H234688   3.363   4.349  11.811 -1.4095  0.0519 -2.2042
 4425TIP3   OH234689   3.252   0.615   5.237 -0.0098  0.3785  0.5957
 4425TIP3    H134690   3.257   0.584   5.146  0.3122  1.5575  0.2104
 4425TIP3    H234691   3.318   0.562   5.283 -0.4484 -0.4994  0.2303
 4426TIP3   OH234692   5.234   2.538   2.106  0.6735  0.0763  0.0951
 4426TIP3    H134693   5.324   2.565   2.087  0.4107  0.3862 -0.7586
 4426TIP3    H234694   5.180   2.611   2.074  0.1065 -0.2208  0.3617
 4427TIP3   OH234695   5.707   4.595  17.214 -0.0835  0.3015  0.5871
 4427TIP3    H134696   5.683   4.634  17.298 -2.7110 -1.9278  0.9072
 4427TIP3    H234697   5.666   4.509  17.214  0.9636 -0.2644 -2.4640
 4428TIP3   OH234698   2.700   5.655   5.349 -0.2855  0.4787  0.2196
 4428TIP3    H134699   2.782   5.705   5.350 -0.7422  1.2426  0.3632
 4428TIP3    H234700   2.728   5.564   5.350  0.6297  0.6715 -3.1865
 4429TIP3   OH234701   0.040   0.884   0.745  0.0892  0.4849 -0.0324
 4429TIP3    H134702   0.001   0.962   0.706 -1.2219 -0.3434 -0.4187
 4429TIP3    H234703   0.034   0.817   0.677 -1.1018 -0.6293  1.1416
 4430TIP3   OH234704   0.246   0.892   3.399 -0.0920  0.0421 -0.6113
 4430TIP3    H134705   0.192   0.829   3.446  0.0622  0.2256 -0.1901
 4430TIP3    H234706   0.299   0.838   3.340 -0.5755 -0.1545 -0.8730
 4431TIP3   OH234707   0.875   2.738   5.851 -0.4223 -0.0574  0.4575
 4431TIP3    H134708   0.795   2.765   5.807 -1.6604 -2.9574  0.7913
 4431TIP3    H234709   0.856   2.749   5.944  0.1412  0.7501  0.4766
 4432TIP3   OH234710   2.341   3.959  16.919 -0.2157  0.3761 -0.5604
 4432TIP3    H134711   2.370   4.020  16.986  0.2157  1.1794 -1.4562
 4432TIP3    H234712   2.254   3.931  16.947  0.5109 -0.3518  1.0131
 4433TIP3   OH234713   0.695   6.530   5.519 -0.3463 -0.8487 -0.1391
 4433TIP3    H134714   0.638   6.559   5.448  0.6012 -0.6014 -0.8035
 4433TIP3    H234715   0.678   6.593   5.590  0.8669  0.7197 -1.1879
 4434TIP3   OH234716   4.928   6.231   4.581  0.8536  0.3466 -0.2003
 4434TIP3    H134717   4.911   6.161   4.644  1.7623 -0.8999 -1.3231
 4434TIP3    H234718   5.023   6.240   4.579  0.7794  1.1452 -0.5846
 4435TIP3   OH234719   6.619   1.622   6.383 -0.3739 -0.1988 -0.0790
 4435TIP3    H134720   6.635   1.680   6.457  0.6170 -0.1842 -0.2969
 4435TIP3    H234721   6.697   1.631   6.328 -0.5979 -1.0681 -0.5528
 4436TIP3   OH234722   1.295   1.492  16.808  0.6786 -0.5191  0.1358
 4436TIP3    H134723   1.269   1.581  16.784 -1.3998 -0.3742  2.6735
 4436TIP3    H234724   1.338   1.458  16.730  0.6907  2.3913 -1.1935
 4437TIP3   OH234725   3.018   2.140  15.614  0.3336 -0.1588 -0.0220
 4437TIP3    H134726   3.065   2.082  15.555  0.1299  0.2184 -0.5573
 4437TIP3    H234727   3.012   2.223  15.566 -1.2150 -0.3148 -0.1166
 4438TIP3   OH234728   1.488   1.420  13.978  0.7358  0.0652  0.0070
 4438TIP3    H134729   1.516   1.399  14.067  1.3159 -1.9309 -0.6159
 4438TIP3    H234730   1.478   1.335  13.935 -0.4962  0.9591 -1.5581
 4439TIP3   OH234731   0.438   1.655  12.057 -0.2698 -0.5123 -0.6311
 4439TIP3    H134732   0.384   1.650  11.978 -0.4746 -0.5157 -0.4887
 4439TIP3    H234733   0.385   1.703  12.120 -0.3702 -1.0779 -0.2780
 4440TIP3   OH234734   1.756   4.849   1.704 -0.0661 -0.9455  0.0137
 4440TIP3    H134735   1.673   4.802   1.714  0.8260 -3.1062 -2.2450
 4440TIP3    H234736   1.763   4.866   1.610  1.2989  0.6401  0.3805
 4441TIP3   OH234737   5.603   1.829   2.369 -0.3977  0.6281 -0.1827
 4441TIP3    H134738   5.526   1.838   2.314 -0.9745 -1.4359  0.2382
 4441TIP3    H234739   5.583   1.879   2.448 -0.1658  2.3659 -1.1953
 4442TIP3   OH234740   1.158   3.615   1.329  0.3054  0.6698  0.0202
 4442TIP3    H134741   1.140   3.656   1.413 -0.0495 -0.1322  0.3472
 4442TIP3    H234742   1.217   3.542   1.350 -1.4482 -0.8310 -0.1158
 4443TIP3   OH234743   3.071   5.748   5.470  0.0338  0.2559  0.1199
 4443TIP3    H134744   2.985   5.790   5.482  0.3422  0.9328 -0.0179
 4443TIP3    H234745   3.134   5.816   5.492  0.5627  0.4755 -1.9808
 4444TIP3   OH234746   4.631   1.244   0.122 -0.1627 -0.3576  0.1454
 4444TIP3    H134747   4.690   1.171   0.101 -0.1389 -0.4736  0.6056
 4444TIP3    H234748   4.596   1.272   0.038  1.8465  0.7995 -0.3533
 4445TIP3   OH234749   1.736   6.187   5.353  0.3754 -0.2884  0.3955
 4445TIP3    H134750   1.750   6.119   5.419  1.6650 -0.5053 -0.0858
 4445TIP3    H234751   1.702   6.139   5.277 -1.0322 -0.0506  0.8612
 4446TIP3   OH234752   0.698   4.686   1.213  0.2585  0.3931  0.2785
 4446TIP3    H134753   0.660   4.768   1.183  1.0449 -0.1043 -2.2544
 4446TIP3    H234754   0.709   4.697   1.308 -2.5591  1.9671  0.4726
 4447TIP3   OH234755   4.390   2.575   5.924 -0.0589  0.3776  0.1890
 4447TIP3    H134756   4.308   2.529   5.944  0.0582 -0.3712 -0.9699
 4447TIP3    H234757   4.384   2.657   5.973 -1.3135  0.1356  0.4642
 4448TIP3   OH234758   2.564   4.605  13.916 -0.1038  0.0003 -0.6703
 4448TIP3    H134759   2.484   4.612  13.865  1.3122  1.3542 -2.7899
 4448TIP3    H234760   2.624   4.667  13.875  1.2500  0.8062  2.3658
 4449TIP3   OH234761   3.898   4.122   2.636  0.7516 -0.9286  0.5894
 4449TIP3    H134762   3.843   4.082   2.704  1.3421 -2.2660  0.3099
 4449TIP3    H234763   3.861   4.208   2.622  0.3354 -0.8140  2.2911
 4450TIP3   OH234764   5.046   2.133   4.102 -0.3838  0.0003  0.6205
 4450TIP3    H134765   4.961   2.159   4.137 -0.1250  1.5084  0.1424
 4450TIP3    H234766   5.109   2.153   4.171 -0.3719 -0.8196  0.8519
 4451TIP3   OH234767   0.183   6.011   3.394 -0.4315 -0.6310  0.1256
 4451TIP3    H134768   0.209   5.925   3.426  1.4453 -0.1932 -0.1767
 4451TIP3    H234769   0.158   6.060   3.472 -1.4239 -1.4096  0.3049
 4452TIP3   OH234770   0.069   2.256   5.669  0.1038  0.0971  0.2047
 4452TIP3    H134771   0.139   2.214   5.618 -0.1351  0.3987 -0.3791
 4452TIP3    H234772   0.090   2.237   5.760  2.0920  1.9411  0.1667
 4453TIP3   OH234773   2.727   5.890   4.916  0.4739  0.1332  0.3752
 4453TIP3    H134774   2.755   5.832   4.987  0.8462 -4.2024 -3.0896
 4453TIP3    H234775   2.649   5.847   4.880  1.1969  1.3666 -2.7961
 4454TIP3   OH234776   4.785   3.702  12.041  0.2909 -0.1969 -0.2058
 4454TIP3    H134777   4.764   3.743  12.125 -0.7123 -2.4527  0.6899
 4454TIP3    H234778   4.880   3.690  12.044  0.5535  1.7392 -0.3550
 4455TIP3   OH234779   2.714   5.585  10.857 -0.0639  0.3029  0.6037
 4455TIP3    H134780   2.719   5.645  10.783 -2.5527 -0.9946 -0.6746
 4455TIP3    H234781   2.791   5.529  10.848 -1.6415 -1.4774 -2.5110
 4456TIP3   OH234782   1.228   1.228   4.053  0.4937  0.0882 -0.1186
 4456TIP3    H134783   1.306   1.223   4.109  0.7168  0.0137 -0.4382
 4456TIP3    H234784   1.157   1.199   4.110  0.6252  0.6200  0.3208
 4457TIP3   OH234785   2.615   3.721  16.791  0.7042  0.0970 -0.7984
 4457TIP3    H134786   2.695   3.669  16.778  1.5978  1.3747 -0.5661
 4457TIP3    H234787   2.629   3.766  16.874  0.6769  1.9553 -1.7627
 4458TIP3   OH234788   0.177   6.310   4.928  0.4072  0.2424 -0.0415
 4458TIP3    H134789   0.118   6.385   4.939 -0.2804 -0.3916  0.6100
 4458TIP3    H234790   0.129   6.249   4.873  0.3649 -0.3709  0.6697
 4459TIP3   OH234791   4.801   4.677  11.937  0.0443  0.4606  0.1849
 4459TIP3    H134792   4.705   4.679  11.928  0.0145 -0.6939  0.2306
 4459TIP3    H234793   4.820   4.751  11.995 -1.1366 -1.1942  2.8008
 4460TIP3   OH234794   3.059   0.763  17.239 -0.0813  0.5649 -0.1111
 4460TIP3    H134795   3.132   0.707  17.213  0.9465  2.3210 -1.1126
 4460TIP3    H234796   2.981   0.707  17.230  1.1627 -1.5014  1.5699
 4461TIP3   OH234797   6.403   3.463  15.960  0.0111  0.2122  0.4220
 4461TIP3    H134798   6.484   3.430  15.998  1.4241  0.8691 -1.8758
 4461TIP3    H234799   6.387   3.405  15.885 -0.3626  1.5146 -0.5117
 4462TIP3   OH234800   2.548   0.210  15.828  0.3126  0.2316  0.1931
 4462TIP3    H134801   2.533   0.293  15.782  0.0248  0.4540  0.6840
 4462TIP3    H234802   2.461   0.182  15.854  0.4908  0.1766  0.7252
 4463TIP3   OH234803   3.727   1.261  12.347 -0.0811  0.0573 -0.3399
 4463TIP3    H134804   3.645   1.267  12.299  0.4735 -2.4054 -1.6250
 4463TIP3    H234805   3.709   1.201  12.419  1.2628 -2.5656 -2.1288
 4464TIP3   OH234806   2.270   5.881   3.934 -0.0148 -0.5963 -0.0674
 4464TIP3    H134807   2.357   5.893   3.973 -0.2612  1.3648 -0.0504
 4464TIP3    H234808   2.215   5.946   3.977 -0.5306  0.9496 -2.9106
 4465TIP3   OH234809   5.274   4.597  15.803  0.0868  0.6854 -0.2524
 4465TIP3    H134810   5.362   4.611  15.768  0.5311  0.0840  0.5980
 4465TIP3    H234811   5.272   4.652  15.882  0.2689 -0.5180  0.6080
 4466TIP3   OH234812   1.150   5.526   6.401  0.1804 -0.3701 -0.2686
 4466TIP3    H134813   1.197   5.444   6.385 -0.1195 -0.6755  0.3973
 4466TIP3    H234814   1.101   5.510   6.482  1.4743  1.0412  0.8336
 4467TIP3   OH234815   1.213   0.190   4.982  0.6743  0.3148  0.3160
 4467TIP3    H134816   1.274   0.239   5.037  1.5842 -3.2647  2.7082
 4467TIP3    H234817   1.131   0.189   5.031 -0.6781  3.0156 -1.7523
 4468TIP3   OH234818   0.434   4.330   3.946 -0.4293  0.2619  0.4192
 4468TIP3    H134819   0.406   4.289   4.028 -0.0779  0.1508  0.4827
 4468TIP3    H234820   0.512   4.380   3.970 -0.4972  0.4699  0.2118
 4469TIP3   OH234821   0.349   2.324   6.743  0.3009 -0.3032 -0.0633
 4469TIP3    H134822   0.350   2.228   6.746 -0.1087 -0.2520  2.1065
 4469TIP3    H234823   0.268   2.346   6.696 -0.1703 -1.0136  0.4050
 4470TIP3   OH234824   2.190   6.244  12.781  0.1042  0.4460 -0.5826
 4470TIP3    H134825   2.243   6.167  12.764  0.7329  0.7944 -0.2342
 4470TIP3    H234826   2.167   6.237  12.874 -1.9396 -0.6089 -1.1370
 4471TIP3   OH234827   4.878   0.805   2.304  0.1261 -0.0027 -0.5374
 4471TIP3    H134828   4.882   0.900   2.316 -0.3162 -0.2371  1.5462
 4471TIP3    H234829   4.964   0.781   2.271  0.8729  0.8715  0.7513
 4472TIP3   OH234830   1.024   3.107  15.328 -0.0263 -0.1613 -0.1874
 4472TIP3    H134831   0.963   3.064  15.268 -1.3035 -0.7337  1.4844
 4472TIP3    H234832   0.988   3.196  15.339 -0.6599 -0.5341  0.8859
 4473TIP3   OH234833   5.526   3.893  13.941 -0.6110  0.0589  0.0503
 4473TIP3    H134834   5.532   3.980  13.901  0.2787 -1.2095 -2.6687
 4473TIP3    H234835   5.615   3.872  13.966 -0.7052 -0.3874  0.0094
 4474TIP3   OH234836   5.858   2.739   0.718  0.5789  0.0788 -0.1939
 4474TIP3    H134837   5.931   2.801   0.718  0.6400  0.0634 -2.9278
 4474TIP3    H234838   5.899   2.654   0.707  0.3858 -0.3750  2.2012
 4475TIP3   OH234839   5.484   1.769  16.919 -0.1989  0.1258 -0.0213
 4475TIP3    H134840   5.531   1.736  16.842 -0.6659 -0.1630 -0.1912
 4475TIP3    H234841   5.538   1.744  16.993 -0.9294 -1.7265 -0.0858
 4476TIP3   OH234842   3.080   3.855  10.752  0.0628 -0.4460  0.0046
 4476TIP3    H134843   2.996   3.888  10.722  0.4725 -0.3222 -1.0387
 4476TIP3    H234844   3.099   3.781  10.694  0.0058 -1.3758  1.1448
 4477TIP3   OH234845   0.105   0.785   5.051 -0.1354  0.2695 -0.1836
 4477TIP3    H134846   0.035   0.721   5.063  1.8554 -1.8373  0.5448
 4477TIP3    H234847   0.061   0.870   5.059 -2.6716 -0.9901 -0.2215
 4478TIP3   OH234848   0.857   5.829   0.239  0.3135 -0.5068 -0.9233
 4478TIP3    H134849   0.899   5.893   0.297 -0.6457  1.0045 -1.8507
 4478TIP3    H234850   0.904   5.837   0.157  0.7350 -1.6149 -0.7978
 4479TIP3   OH234851   5.648   5.754  11.942 -0.5061 -0.0294  0.0610
 4479TIP3    H134852   5.626   5.784  11.854  0.8127 -1.4374 -0.7691
 4479TIP3    H234853   5.631   5.660  11.941 -0.3987 -0.0724  1.2761
 4480TIP3   OH234854   1.350   1.025  14.219 -0.4538 -0.0874  0.1156
 4480TIP3    H134855   1.256   1.022  14.237 -0.3443  0.1652  0.7626
 4480TIP3    H234856   1.381   0.937  14.243 -0.3362  0.1960  1.0228
 4481TIP3   OH234857   2.561   2.674   1.972  0.5317 -0.8094 -0.1604
 4481TIP3    H134858   2.553   2.767   1.993  0.5986 -0.7076 -0.5872
 4481TIP3    H234859   2.523   2.666   1.885  1.8008 -0.9378 -0.7160
 4482TIP3   OH234860   3.818   4.850  14.469 -0.0790  0.4980 -0.0463
 4482TIP3    H134861   3.912   4.868  14.470 -0.4660  2.6581 -0.5325
 4482TIP3    H234862   3.810   4.764  14.512  1.9921  0.7747  0.9798
 4483TIP3   OH234863   6.158   4.977  15.334  0.2986  0.0139 -0.0995
 4483TIP3    H134864   6.248   4.954  15.356  0.1752  0.1835  0.5825
 4483TIP3    H234865   6.112   4.976  15.418 -0.3463 -0.1316 -0.4540
 4484TIP3   OH234866   6.246   4.284  16.024 -0.0885 -0.1714  0.2055
 4484TIP3    H134867   6.165   4.235  16.009 -0.3401  0.0675  0.7535
 4484TIP3    H234868   6.217   4.371  16.052  0.3591 -0.3315  1.1894
 4485TIP3   OH234869   6.215   3.036  12.182  0.0702 -0.6779  0.4802
 4485TIP3    H134870   6.179   3.091  12.112  0.9296  0.5992  1.0194
 4485TIP3    H234871   6.138   2.995  12.222 -0.6762  0.9754  0.7564
 4486TIP3   OH234872   4.172   3.910   6.621  0.3352  0.1392  0.7281
 4486TIP3    H134873   4.102   3.845   6.629  0.4992 -0.2163 -0.5989
 4486TIP3    H234874   4.248   3.861   6.591  0.9859  0.6356  1.5319
 4487TIP3   OH234875   0.822   5.246   4.651 -0.0116 -0.6299 -0.2517
 4487TIP3    H134876   0.796   5.268   4.562 -0.2972 -1.5276 -0.3951
 4487TIP3    H234877   0.786   5.317   4.705  0.9950  0.4227 -0.9547
 4488TIP3   OH234878   4.306   2.153   4.995 -0.1081 -0.1724 -0.2459
 4488TIP3    H134879   4.253   2.109   5.062  1.8642  1.0390  2.1641
 4488TIP3    H234880   4.344   2.082   4.944 -2.2202 -1.0967 -0.6042
 4489TIP3   OH234881   4.929   4.662  14.635  0.3467 -0.6967  0.2539
 4489TIP3    H134882   4.851   4.657  14.581  1.4687  1.8815 -1.6930
 4489TIP3    H234883   4.919   4.743  14.685  1.7526 -0.3622  0.0123
 4490TIP3   OH234884   5.219   6.107  14.110  0.0057  0.0419 -0.0456
 4490TIP3    H134885   5.212   6.186  14.163 -1.0142 -0.5356  0.6867
 4490TIP3    H234886   5.207   6.034  14.171  0.7428 -0.6863 -0.7402
 4491TIP3   OH234887   5.918   0.391   1.264  0.4641  0.3129  0.7585
 4491TIP3    H134888   5.911   0.317   1.204 -1.3452 -0.0486  1.3676
 4491TIP3    H234889   6.004   0.381   1.305  0.2251 -1.4870  0.8716
 4492TIP3   OH234890   1.888   3.877  15.302 -0.5727 -0.5636 -0.0080
 4492TIP3    H134891   1.885   3.917  15.215 -0.9508 -1.1202 -0.2557
 4492TIP3    H234892   1.846   3.941  15.360  0.1568  0.0398 -0.1375
 4493TIP3   OH234893   5.451   6.637   5.688 -0.2064  0.3714  0.1142
 4493TIP3    H134894   5.536   6.609   5.723  0.2446  0.0921 -1.1456
 4493TIP3    H234895   5.390   6.568   5.715  0.2915 -0.2466 -0.3193
 4494TIP3   OH234896   5.421   3.369  14.638  0.2426  0.6797  0.1202
 4494TIP3    H134897   5.471   3.407  14.710 -1.4216  0.6704  1.3215
 4494TIP3    H234898   5.462   3.404  14.559  1.6367  1.2828  1.0837
 4495TIP3   OH234899   2.097   6.386   0.348  0.2005  0.1143 -0.6217
 4495TIP3    H134900   2.106   6.348   0.260 -1.4581 -2.3017  0.1982
 4495TIP3    H234901   2.136   6.320   0.406  0.1466  1.1182  0.5691
 4496TIP3   OH234902   3.230   4.172  11.808 -0.2831  0.4244  0.5932
 4496TIP3    H134903   3.236   4.078  11.790 -2.7967  0.5383 -1.0299
 4496TIP3    H234904   3.267   4.182  11.896 -1.3711 -2.2807  1.3980
 4497TIP3   OH234905   3.610   4.002  17.238  0.2285 -0.2519 -0.5459
 4497TIP3    H134906   3.649   3.968  17.157  0.9482 -1.2726  0.2212
 4497TIP3    H234907   3.525   4.036  17.211 -0.0999 -1.8068 -1.4901
 4498TIP3   OH234908   6.050   1.915   5.794  0.7629  0.7079  0.2181
 4498TIP3    H134909   6.017   1.968   5.866  0.8989  1.3694 -0.2042
 4498TIP3    H234910   6.144   1.908   5.810  0.6651  0.1337  0.5682
 4499TIP3   OH234911   1.784   5.979   3.932 -0.4908 -0.2884  0.5080
 4499TIP3    H134912   1.775   6.041   3.859  0.0362  1.6276  2.0302
 4499TIP3    H234913   1.856   5.922   3.905  0.6749  1.3045  0.1084
 4500TIP3   OH234914   5.573   6.622  11.473 -0.0329  0.2616 -0.0889
 4500TIP3    H134915   5.588   6.554  11.407  0.9180  0.2870  0.1013
 4500TIP3    H234916   5.501   6.588  11.527  1.1038 -1.0479  0.6236
 4501TIP3   OH234917   0.685   2.622  16.833  0.0198  0.5330 -0.3006
 4501TIP3    H134918   0.703   2.628  16.927  1.0630 -0.4459 -0.4189
 4501TIP3    H234919   0.694   2.711  16.801 -1.3957  1.0539  0.7074
 4502TIP3   OH234920   5.904   3.566  15.890 -0.2754  0.4239 -0.0797
 4502TIP3    H134921   5.808   3.568  15.885 -0.2557 -0.8794 -1.4603
 4502TIP3    H234922   5.928   3.485  15.845  1.4394  0.3312  0.9819
 4503TIP3   OH234923   1.851   5.215  16.066  1.1123  0.1852 -0.3929
 4503TIP3    H134924   1.764   5.175  16.067  0.7940  0.8727 -0.1119
 4503TIP3    H234925   1.881   5.204  15.976  1.0878 -0.7935 -0.2947
 4504TIP3   OH234926   6.297   5.809  16.641  0.0632  0.5330 -0.4131
 4504TIP3    H134927   6.343   5.736  16.682  0.4244  0.6847 -0.5527
 4504TIP3    H234928   6.298   5.878  16.708 -0.2914  0.4080 -0.2737
 4505TIP3   OH234929   5.025   1.397   1.699 -0.1292 -0.3404  0.1764
 4505TIP3    H134930   4.945   1.366   1.656  0.2413  0.4356 -1.1219
 4505TIP3    H234931   5.059   1.321   1.745 -0.6979 -1.1404 -0.7010
 4506TIP3   OH234932   6.715   0.741  16.875  0.5161 -0.7568 -0.2701
 4506TIP3    H134933   6.748   0.822  16.838 -1.4415 -0.0841 -0.5591
 4506TIP3    H234934   6.692   0.687  16.799  0.1321 -0.8786 -0.0667
 4507TIP3   OH234935   2.126   2.158   3.648 -0.1389 -0.2733  0.0240
 4507TIP3    H134936   2.172   2.100   3.587  0.6631  0.4913 -0.1017
 4507TIP3    H234937   2.191   2.223   3.673 -0.4231 -0.6067  1.7474
 4508TIP3   OH234938   1.340   5.393  11.629 -0.0888  0.4939 -0.3141
 4508TIP3    H134939   1.289   5.370  11.707  0.0355  1.9292  0.2086
 4508TIP3    H234940   1.389   5.314  11.608 -1.3151 -0.3942  0.1326
 4509TIP3   OH234941   5.050   6.103   1.703 -0.2024  0.1667  0.9165
 4509TIP3    H134942   5.010   6.022   1.670 -1.5551  1.4877 -0.7565
 4509TIP3    H234943   5.127   6.116   1.646 -0.7362  0.7544  0.3256
 4510TIP3   OH234944   0.438   1.463   4.841  0.0450 -0.2579 -0.0598
 4510TIP3    H134945   0.344   1.462   4.821 -0.0243  1.5533  0.0621
 4510TIP3    H234946   0.469   1.376   4.819 -1.5017 -0.5853 -0.9610
 4511TIP3   OH234947   4.539   6.452   2.359 -0.2823 -0.1411  0.7753
 4511TIP3    H134948   4.511   6.520   2.297  2.6467  0.5108  0.0991
 4511TIP3    H234949   4.569   6.380   2.303  0.4647 -0.3597  1.4544
 4512TIP3   OH234950   1.147   3.774  11.295 -0.2247  0.2931  0.8349
 4512TIP3    H134951   1.080   3.798  11.230  1.2086 -0.7583 -1.0875
 4512TIP3    H234952   1.163   3.854  11.344 -2.4520  0.7156  0.9397
 4513TIP3   OH234953   0.661   4.613  11.830 -0.2324  0.0401  0.4468
 4513TIP3    H134954   0.700   4.572  11.752  1.8948 -0.4719  1.7376
 4513TIP3    H234955   0.606   4.545  11.868 -0.7370  0.0686 -0.2177
 4514TIP3   OH234956   1.899   2.850   3.866  0.5551  0.4229  0.6531
 4514TIP3    H134957   1.940   2.841   3.780 -1.0508  0.4899 -0.1510
 4514TIP3    H234958   1.913   2.942   3.890 -0.6255  0.8930 -0.4113
 4515TIP3   OH234959   2.438   6.734   4.696  0.0005  0.6113 -0.5942
 4515TIP3    H134960   2.494   6.751   4.773  0.1358 -1.9668 -0.0855
 4515TIP3    H234961   2.484   6.776   4.624  2.2342 -0.7868 -0.0338
 4516TIP3   OH234962   1.228   3.988   2.218  0.3629  0.4231  0.3195
 4516TIP3    H134963   1.139   4.021   2.229  0.4953  0.7123  0.5574
 4516TIP3    H234964   1.223   3.926   2.146  0.1495  1.1254 -0.2763
 4517TIP3   OH234965   3.057   2.341  15.383  0.5596 -0.3113  0.2691
 4517TIP3    H134966   3.142   2.298  15.388  0.0901 -1.1938  0.6707
 4517TIP3    H234967   3.035   2.340  15.290  2.0488  2.0065 -0.1524
 4518TIP3   OH234968   5.096   0.819   3.570  0.5949 -0.0928 -0.5453
 4518TIP3    H134969   5.147   0.842   3.648 -0.7565 -0.3893  0.4408
 4518TIP3    H234970   5.086   0.724   3.575  0.2205 -0.0736 -0.9198
 4519TIP3   OH234971   5.284   5.856  14.420 -0.3501 -0.1528 -0.2252
 4519TIP3    H134972   5.203   5.853  14.368 -0.2011  1.4388 -0.5614
 4519TIP3    H234973   5.332   5.931  14.386  0.5764 -0.1641  1.0215
 4520TIP3   OH234974   5.017   5.849  14.950 -0.3554  0.0012  0.4278
 4520TIP3    H134975   5.040   5.842  14.857 -0.1191 -1.1558  0.5754
 4520TIP3    H234976   5.037   5.940  14.972  1.8554 -0.3374 -0.0456
 4521TIP3   OH234977   6.068   6.320  16.392  0.1343 -0.1771 -0.0612
 4521TIP3    H134978   5.991   6.333  16.336 -0.4276 -2.2150  0.1642
 4521TIP3    H234979   6.065   6.226  16.414  1.3263  0.2169  1.9337
 4522TIP3   OH234980   2.206   6.064  12.503 -0.2342 -0.3003  0.7267
 4522TIP3    H134981   2.190   5.971  12.494  0.2281 -0.3704  0.6156
 4522TIP3    H234982   2.274   6.071  12.570  0.8215 -0.1324 -0.3448
 4523TIP3   OH234983   0.932   6.591   6.706  0.2552 -0.1216  0.0123
 4523TIP3    H134984   0.854   6.636   6.672  0.4438  0.5592  0.4696
 4523TIP3    H234985   0.935   6.615   6.799 -0.9844 -3.0218  0.8285
 4524TIP3   OH234986   3.122   4.542   5.229 -0.0924 -0.0425  0.0179
 4524TIP3    H134987   3.114   4.456   5.187 -0.0886 -0.2618  0.4609
 4524TIP3    H234988   3.050   4.594   5.192  1.8449  0.8050 -2.7335
 4525TIP3   OH234989   3.519   0.525  15.374 -0.2003  0.1796  0.4947
 4525TIP3    H134990   3.458   0.596  15.352 -1.4820 -0.7318  1.0752
 4525TIP3    H234991   3.565   0.558  15.451  1.2560  1.5702 -0.9263
 4526TIP3   OH234992   1.740   2.396   0.482  0.4565 -0.3531  1.2389
 4526TIP3    H134993   1.713   2.397   0.574  5.3474 -1.0610  2.8607
 4526TIP3    H234994   1.778   2.482   0.467 -0.5608 -0.1431 -0.2235
 4527TIP3   OH234995   1.473   5.165   2.187  0.4188 -0.1366  0.2775
 4527TIP3    H134996   1.501   5.132   2.102 -0.1654 -4.6429  1.6915
 4527TIP3    H234997   1.553   5.169   2.239  0.4978  0.7928  0.0893
 4528TIP3   OH234998   0.517   1.525  13.713 -0.2827 -0.1885 -0.0830
 4528TIP3    H134999   0.546   1.509  13.803 -0.1727 -2.8059 -0.5401
 4528TIP3    H235000   0.552   1.612  13.692  1.7725 -0.5589  1.5594
 4529TIP3   OH235001   1.705   2.380   4.672 -0.7208  0.0226 -0.1694
 4529TIP3    H135002   1.725   2.320   4.600  1.6979 -1.6718  1.8459
 4529TIP3    H235003   1.662   2.325   4.738  1.2158  0.5394  1.5592
 4530TIP3   OH235004   3.645   1.071  13.714 -0.2909 -0.2429  0.1993
 4530TIP3    H135005   3.673   1.071  13.623 -0.5609  2.4209  0.0589
 4530TIP3    H235006   3.629   0.979  13.735  0.6044 -0.9716 -2.1643
 4531TIP3   OH235007   2.913   0.019   5.121  0.3735 -0.3094  0.4336
 4531TIP3    H135008   2.908  -0.059   5.177 -1.3715 -0.5511 -0.0221
 4531TIP3    H235009   2.822   0.050   5.115  0.7031  0.3715 -1.3357
 4532TIP3   OH235010   2.574   2.392  13.284  0.1983 -0.5644 -0.0593
 4532TIP3    H135011   2.557   2.379  13.191  1.0472 -0.7818 -0.1862
 4532TIP3    H235012   2.642   2.328  13.305  0.7611  0.2019  0.4702
 4533TIP3   OH235013   6.112   4.458   5.205  0.0690 -0.3913  0.0574
 4533TIP3    H135014   6.144   4.419   5.287 -1.0490 -0.9732  0.2343
 4533TIP3    H235015   6.094   4.383   5.149 -3.4185 -0.2613  0.8922
 4534TIP3   OH235016   5.451   5.719   0.522 -0.2613 -0.2908  0.4814
 4534TIP3    H135017   5.413   5.707   0.435 -0.4172 -0.3150  0.5544
 4534TIP3    H235018   5.380   5.700   0.583  0.2138 -1.6131  0.6409
 4535TIP3   OH235019   2.388   4.576   4.209 -0.2032 -0.3086  0.5651
 4535TIP3    H135020   2.363   4.506   4.150  0.3028  0.6237 -0.7772
 4535TIP3    H235021   2.305   4.608   4.245 -0.6265  0.0145 -0.6806
 4536TIP3   OH235022   0.562   6.028  12.546 -0.5942 -0.3305 -0.0694
 4536TIP3    H135023   0.520   5.942  12.539 -0.2797 -0.4603 -0.3613
 4536TIP3    H235024   0.536   6.060  12.633 -0.7586 -0.6960  0.0183
 4537TIP3   OH235025   0.062   2.534   6.384  0.4980 -0.4788  0.2327
 4537TIP3    H135026  -0.012   2.592   6.366 -1.0167 -2.9192 -1.7689
 4537TIP3    H235027   0.117   2.540   6.306  0.8724 -0.9289  0.4577
 4538TIP3   OH235028   3.026   0.779   0.908  0.0312 -0.1984 -0.2634
 4538TIP3    H135029   2.979   0.696   0.912 -0.6377  0.1807 -0.0955
 4538TIP3    H235030   3.034   0.797   0.814 -0.9019  0.1461 -0.2795
 4539TIP3   OH235031   4.251   1.116  15.176 -0.6737 -0.3287  0.0130
 4539TIP3    H135032   4.244   1.072  15.092  0.4997  0.6083 -0.5903
 4539TIP3    H235033   4.161   1.140  15.198 -0.8506  0.4701 -1.5448
 4540TIP3   OH235034   0.157   4.890  16.939 -0.6711  0.5578  0.4639
 4540TIP3    H135035   0.087   4.956  16.935 -1.4887 -0.3129  0.0190
 4540TIP3    H235036   0.131   4.834  17.012 -0.6991 -0.0554 -0.0166
 4541TIP3   OH235037   1.855   3.136   5.773 -0.1375  0.0634  0.5596
 4541TIP3    H135038   1.798   3.064   5.746 -0.9460 -0.2802  2.9960
 4541TIP3    H235039   1.926   3.137   5.709 -1.2945 -1.4601 -0.7773
 4542TIP3   OH235040   0.633   3.388   3.635  0.1804 -0.1539  0.3332
 4542TIP3    H135041   0.680   3.352   3.710 -0.4673 -0.3597  0.6415
 4542TIP3    H235042   0.694   3.378   3.561  0.6136 -0.4267  0.7275
 4543TIP3   OH235043   3.065   0.670  15.309  0.3054  0.2150 -0.0577
 4543TIP3    H135044   3.008   0.681  15.386  0.5566 -1.0807  0.3334
 4543TIP3    H235045   3.031   0.591  15.266  0.1380  0.9508 -1.3194
 4544TIP3   OH235046   6.352   2.129  13.853 -0.2557  0.3994  0.1841
 4544TIP3    H135047   6.437   2.087  13.842 -1.0208 -0.9122 -0.9243
 4544TIP3    H235048   6.311   2.083  13.926 -0.1909  0.7435  0.4400
 4545TIP3   OH235049   2.399   0.382   1.910 -0.1018  0.2449 -0.1398
 4545TIP3    H135050   2.454   0.306   1.930 -3.1409 -2.6085 -2.0151
 4545TIP3    H235051   2.443   0.424   1.836  1.4191  0.1382  0.6698
 4546TIP3   OH235052   3.845   1.769  14.583 -0.3969  0.3045  0.7429
 4546TIP3    H135053   3.857   1.709  14.657  0.1580 -0.7960 -0.2110
 4546TIP3    H235054   3.868   1.716  14.507  0.9814  2.0276 -0.0594
 4547TIP3   OH235055   4.457   4.649  15.694 -0.2914 -0.0414  0.0263
 4547TIP3    H135056   4.363   4.655  15.683 -0.3691 -1.4820 -0.1516
 4547TIP3    H235057   4.469   4.633  15.788 -0.2945 -1.2496 -0.1770
 4548TIP3   OH235058   1.337   1.730   0.783  0.1114 -0.2001  0.0751
 4548TIP3    H135059   1.273   1.664   0.758  0.2035 -0.4633  0.5200
 4548TIP3    H235060   1.390   1.744   0.705  0.1752 -0.7483  0.0196
 4549TIP3   OH235061   6.584   1.178  12.628 -0.0886  0.1515  0.1919
 4549TIP3    H135062   6.636   1.100  12.645 -1.7028 -0.6437  1.7087
 4549TIP3    H235063   6.611   1.241  12.696  0.6713  0.6652 -0.5681
 4550TIP3   OH235064   4.349   1.750  16.804  0.6891 -0.1167  0.1596
 4550TIP3    H135065   4.377   1.677  16.859  0.0807 -0.2958  0.2388
 4550TIP3    H235066   4.427   1.773  16.753  0.4622 -1.9189 -1.0676
 4551TIP3   OH235067   5.333   5.953  15.649 -0.1264 -0.0228 -0.0917
 4551TIP3    H135068   5.376   5.973  15.732 -0.5954  1.1158 -0.1170
 4551TIP3    H235069   5.246   5.990  15.657 -0.0872  0.3313 -1.1881
 4552TIP3   OH235070   5.667   6.316  11.908  0.6898 -0.6698  0.1909
 4552TIP3    H135071   5.706   6.388  11.958 -2.1238  0.3487  1.0068
 4552TIP3    H235072   5.656   6.246  11.972  1.9040 -1.2495 -0.2261
 4553TIP3   OH235073   2.804   6.400  13.096  0.0112  0.5206  0.0623
 4553TIP3    H135074   2.719   6.403  13.053 -0.4004 -0.0557  0.8278
 4553TIP3    H235075   2.796   6.332  13.163  0.6619  1.3417  1.0109
 4554TIP3   OH235076   0.165   0.094   0.707  0.7119 -0.3649 -0.3086
 4554TIP3    H135077   0.239   0.043   0.674  0.0443 -1.7293  0.2510
 4554TIP3    H235078   0.157   0.068   0.799  1.0555  1.5936  0.2829
 4555TIP3   OH235079   2.889   4.109   4.880 -0.7198  0.1078 -0.1692
 4555TIP3    H135080   2.946   4.087   4.954  1.4776  0.9072 -1.5677
 4555TIP3    H235081   2.820   4.042   4.881  3.0380 -4.0516 -1.4318
 4556TIP3   OH235082   4.604   0.090   5.399  0.1024 -0.7162  0.3491
 4556TIP3    H135083   4.588   0.036   5.322 -2.0808  1.0163 -0.4676
 4556TIP3    H235084   4.692   0.126   5.385 -0.5534  0.1710 -1.7406
 4557TIP3   OH235085   6.752   0.359  14.093 -0.3640 -0.1140 -0.3010
 4557TIP3    H135086   6.664   0.377  14.061 -1.0746 -1.3883  0.9026
 4557TIP3    H235087   6.763   0.417  14.168 -0.9222 -1.3573  0.7504
 4558TIP3   OH235088   0.431   3.709  16.004 -0.2957  0.6448  0.0580
 4558TIP3    H135089   0.376   3.654  16.060  0.9979  0.8632  1.5560
 4558TIP3    H235090   0.452   3.652  15.929 -1.0196 -0.0576  0.3778
 4559TIP3   OH235091   6.292   5.675   0.376  0.5319 -0.3083  0.1312
 4559TIP3    H135092   6.213   5.717   0.409 -1.1426 -1.8903 -1.7189
 4559TIP3    H235093   6.307   5.715   0.290 -0.0133 -2.0722 -0.8255
 4560TIP3   OH235094   4.850   4.472  14.853 -0.1010  0.0110  0.5217
 4560TIP3    H135095   4.894   4.541  14.804  1.0983 -1.6733 -0.8353
 4560TIP3    H235096   4.758   4.498  14.853 -0.3004 -0.3227 -3.3983
 4561TIP3   OH235097   0.812   3.822  14.350  0.0141 -0.2130  0.9785
 4561TIP3    H135098   0.851   3.792  14.268 -1.1552 -0.1605  0.4084
 4561TIP3    H235099   0.819   3.746  14.408 -0.1647 -0.6057  0.4906
 4562TIP3   OH235100   2.033   0.202  16.199 -0.0503  0.3307 -0.2711
 4562TIP3    H135101   1.980   0.150  16.138 -1.0358 -0.4887  1.2591
 4562TIP3    H235102   1.969   0.253  16.249  0.8321  2.1697 -0.9385
 4563TIP3   OH235103   4.435   1.942   2.975  0.4813 -0.0523  0.9390
 4563TIP3    H135104   4.386   1.937   2.893 -0.1556 -0.4475  1.3446
 4563TIP3    H235105   4.423   1.857   3.016  0.3609  0.3205  1.6914
 4564TIP3   OH235106   3.334   1.170   3.142 -0.1723  0.1443  0.4954
 4564TIP3    H135107   3.245   1.146   3.168 -0.0905 -0.9671 -0.2012
 4564TIP3    H235108   3.389   1.142   3.215 -0.2993 -0.0028  0.5340
 4565TIP3   OH235109   2.415   2.848   1.529  0.0086  0.7269  0.1169
 4565TIP3    H135110   2.422   2.878   1.438  0.4803  0.3585  0.0294
 4565TIP3    H235111   2.499   2.804   1.546 -0.1344  0.6692  0.6845
 4566TIP3   OH235112   1.889   6.268  10.672  0.4890 -0.0643  0.4416
 4566TIP3    H135113   1.961   6.213  10.704  1.0003  0.3427 -0.0096
 4566TIP3    H235114   1.919   6.299  10.586 -0.6283 -0.6904 -0.1990
 4567TIP3   OH235115   2.892   3.010   6.679 -0.1106  0.4252  0.1450
 4567TIP3    H135116   2.983   3.006   6.709 -0.3061 -0.8534  0.5860
 4567TIP3    H235117   2.892   3.080   6.614  1.0658  0.8345  0.5642
 4568TIP3   OH235118   5.845   0.504   0.705  0.6277  0.0080 -0.7083
 4568TIP3    H135119   5.863   0.585   0.658 -0.3015 -0.3746 -1.7411
 4568TIP3    H235120   5.831   0.439   0.636  0.4370 -0.8201  0.1038
 4569TIP3   OH235121   1.075   1.096   4.227 -0.0836  0.1784 -0.0188
 4569TIP3    H135122   1.108   1.024   4.282  0.4461 -0.6254 -1.3643
 4569TIP3    H235123   0.982   1.078   4.217  0.6163 -2.2395 -3.0918
 4570TIP3   OH235124   4.385   6.548   5.931  0.6284 -0.3443  0.2726
 4570TIP3    H135125   4.293   6.528   5.948  0.6056 -0.9905 -0.5658
 4570TIP3    H235126   4.424   6.463   5.912  1.1241  0.0982 -0.6858
 4571TIP3   OH235127   2.697   2.169  15.387  0.0045 -0.8201 -0.0685
 4571TIP3    H135128   2.687   2.185  15.293  4.1127  0.0409 -0.4681
 4571TIP3    H235129   2.760   2.098  15.392 -0.3117 -0.9737  2.0664
 4572TIP3   OH235130   3.220   3.030   6.235 -0.4336 -0.2282  0.1452
 4572TIP3    H135131   3.149   3.070   6.284 -0.3332 -0.4917  0.5042
 4572TIP3    H235132   3.299   3.076   6.263 -0.2978 -0.7827  0.6735
 4573TIP3   OH235133   4.800   2.813  12.978 -0.1141  0.0423  0.0150
 4573TIP3    H135134   4.879   2.861  13.001 -0.2878  0.4918 -0.3213
 4573TIP3    H235135   4.747   2.815  13.057  0.5161 -0.8779  0.4660
 4574TIP3   OH235136   0.387   6.294   5.069  0.1394 -0.3109  0.0178
 4574TIP3    H135137   0.374   6.230   5.140 -0.1975 -0.8109 -0.4891
 4574TIP3    H235138   0.305   6.293   5.020  0.0154  0.7585  0.1903
 4575TIP3   OH235139   4.613   0.737  11.474  0.3913  0.0095 -0.4634
 4575TIP3    H135140   4.543   0.790  11.512  1.1977  0.1627  0.8399
 4575TIP3    H235141   4.570   0.686  11.405 -1.0403 -0.0238  0.4276
 4576TIP3   OH235142   0.825   4.960   3.681 -0.1133 -0.5965 -0.0216
 4576TIP3    H135143   0.734   4.935   3.695 -0.2839  0.6889  1.3099
 4576TIP3    H235144   0.874   4.878   3.689 -1.0030 -1.0499  0.8754
 4577TIP3   OH235145   2.993   2.849  10.936 -0.3337 -0.1811  0.5108
 4577TIP3    H135146   2.986   2.813  10.848 -0.2180 -2.3265  1.3432
 4577TIP3    H235147   3.084   2.877  10.944 -0.5940  0.9520 -0.3776
 4578TIP3   OH235148   1.348   0.106  16.216  0.7327 -0.5033  0.1254
 4578TIP3    H135149   1.340   0.169  16.144  0.9176  0.0635  0.5914
 4578TIP3    H235150   1.388   0.029  16.177  1.6810  0.1336 -0.1865
 4579TIP3   OH235151   1.525   6.215  12.915 -0.0348 -0.0845 -0.4964
 4579TIP3    H135152   1.549   6.132  12.954 -0.4969  0.2722  0.5707
 4579TIP3    H235153   1.607   6.252  12.882  0.7349  0.6169  2.1018
 4580TIP3   OH235154   3.955   4.089  11.025 -0.6404  0.0147  0.3950
 4580TIP3    H135155   3.866   4.123  11.016 -0.9628 -1.3823 -2.5732
 4580TIP3    H235156   3.969   4.038  10.945  2.3819 -0.8434  1.3891
 4581TIP3   OH235157   6.230   3.324   5.673  0.9400  0.6574  0.1361
 4581TIP3    H135158   6.226   3.396   5.736 -0.4591  0.0896  0.7435
 4581TIP3    H235159   6.287   3.260   5.714 -0.3950  0.0589  1.1120
 4582TIP3   OH235160   1.848   4.645   2.855  0.4095  0.6810 -0.4638
 4582TIP3    H135161   1.942   4.641   2.839  0.4713  1.8087 -0.4254
 4582TIP3    H235162   1.816   4.711   2.793 -0.4408 -0.0776 -0.8495
 4583TIP3   OH235163   3.821   2.280   0.990  0.2727 -0.4123  0.1639
 4583TIP3    H135164   3.905   2.262   1.032 -0.6671  0.3846  2.4931
 4583TIP3    H235165   3.803   2.202   0.938  2.0013 -0.9906  0.4049
 4584TIP3   OH235166   6.261   0.057  10.864  0.0586  0.5860 -0.0734
 4584TIP3    H135167   6.168   0.074  10.849 -0.1842 -0.4592  0.1846
 4584TIP3    H235168   6.287   0.000  10.791  0.4228  0.6533  0.0032
 4585TIP3   OH235169   6.707   2.407   0.825  0.0057  0.0660 -0.0118
 4585TIP3    H135170   6.670   2.321   0.804 -0.9502  0.1574  1.2463
 4585TIP3    H235171   6.786   2.388   0.875 -0.2514 -0.0734  0.3393
 4586TIP3   OH235172   1.474   1.821   4.039 -0.3013 -0.1545 -0.3747
 4586TIP3    H135173   1.445   1.745   3.989 -0.8473 -0.7791  0.8644
 4586TIP3    H235174   1.405   1.886   4.027  0.3100  0.2736 -1.6831
 4587TIP3   OH235175   1.324   6.301  13.093 -0.0156 -0.4442 -0.2769
 4587TIP3    H135176   1.242   6.322  13.048 -0.8395  3.5119  2.8066
 4587TIP3    H235177   1.389   6.293  13.023 -2.8255 -2.9827 -2.7261
 4588TIP3   OH235178   3.125   6.702  12.128 -0.0166  0.0037 -0.5186
 4588TIP3    H135179   3.154   6.770  12.190 -0.2428 -1.4002  1.1737
 4588TIP3    H235180   3.031   6.695  12.144 -0.0643 -0.4002 -0.9917
 4589TIP3   OH235181   3.072   2.483   3.481 -0.2048  0.0640  0.4231
 4589TIP3    H135182   3.053   2.445   3.395 -0.7296  0.7269  0.2436
 4589TIP3    H235183   3.059   2.410   3.542  0.3959 -0.4724 -0.0713
 4590TIP3   OH235184   2.939   0.746   4.615 -0.3201  0.9839  0.0082
 4590TIP3    H135185   2.884   0.669   4.606 -0.3078  1.0908 -1.0721
 4590TIP3    H235186   2.989   0.750   4.533  2.6434 -0.1433  1.6867
 4591TIP3   OH235187   5.829   5.416  16.682  0.1258  0.0854 -0.4745
 4591TIP3    H135188   5.872   5.496  16.650  2.7210 -1.7191 -1.7397
 4591TIP3    H235189   5.786   5.380  16.605 -0.8776  0.1598  0.0511
 4592TIP3   OH235190   2.276   6.307   4.247 -0.1524  0.3968  0.3013
 4592TIP3    H135191   2.330   6.288   4.324  0.0893  2.7475  0.7330
 4592TIP3    H235192   2.187   6.291   4.277  0.0455 -0.2027  0.5920
 4593TIP3   OH235193   0.888   2.907   3.725 -0.7490  0.0168 -0.1043
 4593TIP3    H135194   0.807   2.951   3.701 -0.3995  0.5658 -0.2947
 4593TIP3    H235195   0.956   2.972   3.709 -0.1744 -0.7501 -0.8417
 4594TIP3   OH235196   3.248   4.434  13.507 -0.0434 -0.0263  0.4623
 4594TIP3    H135197   3.172   4.379  13.528 -0.4653  0.6276  0.6895
 4594TIP3    H235198   3.314   4.409  13.571 -0.1810 -0.3749  0.4675
 4595TIP3   OH235199   0.101   2.594  14.140  0.0255 -0.1041  0.2660
 4595TIP3    H135200   0.063   2.561  14.221  0.3068  0.8731  0.8019
 4595TIP3    H235201   0.039   2.567  14.072 -0.3811 -0.6380  0.8396
 4596TIP3   OH235202   6.523   0.964   0.418 -0.7981 -0.4147 -0.1378
 4596TIP3    H135203   6.516   1.029   0.348  2.1390  0.2734  0.1524
 4596TIP3    H235204   6.530   0.880   0.372  1.8043  0.0969 -0.7300
 4597TIP3   OH235205   3.947   1.742   5.220 -0.1539 -0.0021  0.1432
 4597TIP3    H135206   4.040   1.750   5.244  0.1342  2.3087 -1.5101
 4597TIP3    H235207   3.939   1.653   5.186  1.7185  0.1038 -0.6749
 4598TIP3   OH235208   5.892   0.779   4.035 -0.4401  0.0001 -0.7294
 4598TIP3    H135209   5.956   0.815   3.974 -1.8237 -0.2731 -2.3626
 4598TIP3    H235210   5.809   0.817   4.009 -0.7416  1.7075  2.4563
 4599TIP3   OH235211   2.771   6.363   4.696 -0.4442  0.1742 -0.2752
 4599TIP3    H135212   2.850   6.377   4.747 -0.3965  0.9248 -0.5493
 4599TIP3    H235213   2.764   6.440   4.640 -1.8096  0.5175  0.3356
 4600TIP3   OH235214   0.908   5.776   2.563 -0.1065 -0.2755  0.0247
 4600TIP3    H135215   0.890   5.853   2.510 -0.7437 -0.2791  0.2379
 4600TIP3    H235216   1.001   5.783   2.584 -0.1472  0.3951 -0.0104
 4601TIP3   OH235217   0.744   0.624  11.731 -0.0346 -0.5486  0.1065
 4601TIP3    H135218   0.739   0.588  11.819  0.0509  0.4987  0.5471
 4601TIP3    H235219   0.794   0.559  11.681  2.0710  0.0294  1.4249
 4602TIP3   OH235220   1.460   1.218   4.220 -0.0331  0.0533  0.2168
 4602TIP3    H135221   1.469   1.160   4.296 -0.1932  0.1747  0.3320
 4602TIP3    H235222   1.508   1.297   4.245  2.3773 -1.0077 -0.9878
 4603TIP3   OH235223   1.632   6.069  11.678 -0.2867  0.1529  0.6379
 4603TIP3    H135224   1.641   6.081  11.584 -0.8047 -0.8288  0.4637
 4603TIP3    H235225   1.558   6.125  11.702  0.1842  0.8176  0.5516
 4604TIP3   OH235226   1.562   5.765  12.874  0.1612 -0.2273 -0.3341
 4604TIP3    H135227   1.516   5.816  12.807  1.5456  1.9407  0.3226
 4604TIP3    H235228   1.609   5.698  12.825 -2.0891 -1.2422 -1.1714
 4605TIP3   OH235229   1.189   6.118   4.183 -0.2441 -0.0857  0.2695
 4605TIP3    H135230   1.185   6.060   4.259 -2.0537  2.4754  2.2243
 4605TIP3    H235231   1.108   6.101   4.135  0.9409 -1.7679 -1.1980
 4606TIP3   OH235232   5.794   0.194   4.550 -0.2548  0.2811  0.5277
 4606TIP3    H135233   5.870   0.201   4.493  0.4178 -0.8093  1.2713
 4606TIP3    H235234   5.723   0.235   4.501  0.3499 -0.4890 -1.0139
 4607TIP3   OH235235   5.793   2.419  13.652 -0.1368  0.2160 -0.2802
 4607TIP3    H135236   5.740   2.399  13.729  0.6004 -0.0636  0.1679
 4607TIP3    H235237   5.882   2.395  13.678  0.0616 -0.2540 -1.3624
 4608TIP3   OH235238   4.868   1.076   2.231  0.2862  0.0983 -0.3963
 4608TIP3    H135239   4.799   1.140   2.210  0.1263  0.8006  2.0586
 4608TIP3    H235240   4.949   1.121   2.209  0.1622  1.1455  1.1418
 4609TIP3   OH235241   3.474   2.847   5.183 -0.0353 -0.5931  0.0405
 4609TIP3    H135242   3.531   2.854   5.106 -1.7516  0.2258 -1.1704
 4609TIP3    H235243   3.503   2.917   5.241  0.8707 -0.8282 -0.1221
 4610TIP3   OH235244   2.715   2.955   6.896  0.2856 -0.2970  0.3082
 4610TIP3    H135245   2.780   2.995   6.839 -0.3496  1.1803  0.6011
 4610TIP3    H235246   2.659   3.028   6.924 -1.3119 -1.4808  0.2928
 4611TIP3   OH235247   5.716   0.999   0.768 -0.8168 -0.3999 -0.1531
 4611TIP3    H135248   5.661   0.975   0.694 -1.1149  1.2118 -0.4730
 4611TIP3    H235249   5.799   1.025   0.729 -0.6640 -0.4311  0.1520
 4612TIP3   OH235250   4.775   1.693   1.368  0.1635 -0.4156 -0.4368
 4612TIP3    H135251   4.811   1.780   1.382 -4.4621  1.7468 -1.0078
 4612TIP3    H235252   4.746   1.665   1.455  1.7555 -1.4943 -0.2301
 4613TIP3   OH235253   5.269   1.315   3.020  0.8499 -0.1881  0.2882
 4613TIP3    H135254   5.356   1.312   3.059  2.1298  0.4709 -2.4398
 4613TIP3    H235255   5.229   1.393   3.058  0.7017 -1.5097  2.9758
 4614TIP3   OH235256   0.253   0.122   4.666 -0.2607  0.3600 -0.0724
 4614TIP3    H135257   0.304   0.059   4.716 -3.4161 -1.8291  0.5078
 4614TIP3    H235258   0.292   0.120   4.579  0.6775 -1.2560  0.3613
 4615TIP3   OH235259   6.728   0.803   2.287 -0.0108 -0.6341  0.1815
 4615TIP3    H135260   6.687   0.866   2.228  0.3131  1.5042  2.1471
 4615TIP3    H235261   6.685   0.819   2.371  1.4146 -1.7276  1.1362
 4616TIP3   OH235262   5.687   1.732  11.529  0.0521 -1.0307  0.1723
 4616TIP3    H135263   5.741   1.789  11.584  0.7253  0.6147 -2.1074
 4616TIP3    H235264   5.719   1.644  11.546  2.2817 -0.2467  0.1518
 4617TIP3   OH235265   3.430   3.215   0.142  0.2974  0.3022  0.2437
 4617TIP3    H135266   3.392   3.136   0.182 -1.4509  1.6150  1.2606
 4617TIP3    H235267   3.439   3.193   0.050  2.2361 -1.9793  0.9215
 4618TIP3   OH235268   0.559   0.801   5.633  0.3023 -0.0404  0.4392
 4618TIP3    H135269   0.493   0.813   5.565 -0.2464  1.0342  1.1514
 4618TIP3    H235270   0.554   0.707   5.655  0.8530 -0.5080 -1.3535
 4619TIP3   OH235271   4.146   0.577   0.374  0.4238  0.0086 -0.5629
 4619TIP3    H135272   4.233   0.580   0.414  0.2961 -0.0026 -0.2809
 4619TIP3    H235273   4.136   0.662   0.331  0.7807 -0.1892 -1.0348
 4620TIP3   OH235274   2.333   2.603   5.347  0.3725 -0.8770  0.6326
 4620TIP3    H135275   2.291   2.619   5.263 -1.3187  0.0327  1.6261
 4620TIP3    H235276   2.419   2.567   5.325  0.5451  0.7853 -1.4922
 4621TIP3   OH235277   1.341   5.497   1.098  0.7928  0.5852  0.0225
 4621TIP3    H135278   1.397   5.529   1.027  0.7406 -0.4681 -0.5066
 4621TIP3    H235279   1.383   5.529   1.178  1.8134  0.3330 -0.3977
 4622TIP3   OH235280   1.784   3.424  10.735  0.0248  0.4371 -0.0272
 4622TIP3    H135281   1.727   3.465  10.671  1.3230  2.3461  0.0210
 4622TIP3    H235282   1.779   3.480  10.812  0.7026 -0.2712  0.5424
 4623TIP3   OH235283   3.985   4.067   3.284  0.3441 -1.0254 -0.0486
 4623TIP3    H135284   4.048   4.012   3.237  0.0052 -0.0737 -1.6499
 4623TIP3    H235285   3.919   4.089   3.218 -2.2620 -2.8625  1.8326
 4624TIP3   OH235286   4.195   2.367  13.330 -0.3700  0.2309  0.4086
 4624TIP3    H135287   4.253   2.443  13.323 -2.8977  2.1917 -0.0500
 4624TIP3    H235288   4.223   2.309  13.259 -0.3955  2.1281 -1.1799
 4625TIP3   OH235289   2.316   3.082  13.396  0.4522 -0.6385  0.8840
 4625TIP3    H135290   2.297   3.156  13.455  1.3776  1.5932 -1.5031
 4625TIP3    H235291   2.412   3.085  13.387  0.4887 -2.1599  0.7617
 4626TIP3   OH235292   3.409   3.962   2.973 -0.1640 -0.5149 -0.3391
 4626TIP3    H135293   3.328   4.007   2.994 -0.7326 -1.9237  0.5444
 4626TIP3    H235294   3.456   4.023   2.915 -1.4783  0.6352 -0.2224
 4627TIP3   OH235295   1.480   6.494   2.715  0.1568 -0.2761 -0.0767
 4627TIP3    H135296   1.417   6.522   2.782 -1.3054 -0.3428 -1.4139
 4627TIP3    H235297   1.515   6.411   2.749  1.3090  0.9226  1.8101
 4628TIP3   OH235298   1.758   2.540  15.294 -0.2826 -0.2100 -0.0951
 4628TIP3    H135299   1.783   2.615  15.347 -0.7699 -0.8713  1.0809
 4628TIP3    H235300   1.824   2.473  15.313 -0.0087 -0.1909 -0.9283
 4629TIP3   OH235301   4.557   3.156   0.489  0.3674  0.6246 -0.1313
 4629TIP3    H135302   4.486   3.094   0.503  1.7539 -0.9003  0.3776
 4629TIP3    H235303   4.515   3.235   0.457 -1.5510 -0.2274  0.2500
 4630TIP3   OH235304   2.245   3.322   1.302 -0.0141 -0.2154  0.1600
 4630TIP3    H135305   2.170   3.302   1.359  0.4733  1.4173  1.4294
 4630TIP3    H235306   2.208   3.325   1.214 -0.9647 -1.8906  0.4771
 4631TIP3   OH235307   0.765   2.306   2.229 -0.2067  0.2985  0.1374
 4631TIP3    H135308   0.718   2.223   2.232 -0.6729  0.4183 -2.5420
 4631TIP3    H235309   0.856   2.283   2.248 -0.6213 -0.5691  1.0795
 4632TIP3   OH235310   3.578   1.198   6.307  0.4836  0.0644 -0.2086
 4632TIP3    H135311   3.624   1.157   6.380  3.6234  3.4498 -0.1106
 4632TIP3    H235312   3.518   1.259   6.349  0.6454  0.3559 -0.4000
 4633TIP3   OH235313   3.924   4.266  16.691  0.3720 -0.2361  0.0714
 4633TIP3    H135314   3.846   4.244  16.742  0.3576 -1.5013 -0.4817
 4633TIP3    H235315   3.997   4.226  16.739  0.4900 -0.4314 -0.2658
 4634TIP3   OH235316   3.880   3.575   2.328 -0.2778  0.5489  0.1336
 4634TIP3    H135317   3.950   3.574   2.263  0.6134  2.1460  1.0216
 4634TIP3    H235318   3.904   3.647   2.387 -2.7499  1.2450  0.3383
 4635TIP3   OH235319   2.260   5.841  11.623 -0.5233 -0.2467  0.7290
 4635TIP3    H135320   2.180   5.882  11.589 -1.2274  0.7458  3.4400
 4635TIP3    H235321   2.327   5.862  11.558 -2.3978 -0.9586 -1.5096
 4636TIP3   OH235322   4.104   2.310   6.140 -0.1036 -0.1269  0.7305
 4636TIP3    H135323   4.186   2.336   6.181  1.7234 -3.3930 -0.7149
 4636TIP3    H235324   4.059   2.259   6.208 -0.6569  1.0590  1.2754
 4637TIP3   OH235325   1.399   3.754  13.448  0.3243  0.0168 -0.0213
 4637TIP3    H135326   1.308   3.775  13.466  0.7769  0.8355  1.3396
 4637TIP3    H235327   1.395   3.671  13.400 -1.1022 -0.1905  0.4215
 4638TIP3   OH235328   4.861   4.427  14.367  0.3704 -0.0699 -0.5710
 4638TIP3    H135329   4.808   4.500  14.401  0.8349 -0.6771  1.5380
 4638TIP3    H235330   4.810   4.393  14.293 -1.6556  0.0910  0.6902
 4639TIP3   OH235331   0.702   3.260   4.493  0.2441  0.0373 -0.5295
 4639TIP3    H135332   0.726   3.351   4.509 -0.3465  0.3819 -1.5508
 4639TIP3    H235333   0.748   3.210   4.561 -0.1268  1.1809  0.5610
 4640TIP3   OH235334   5.593   5.425  14.338 -0.4238 -0.2514  0.2700
 4640TIP3    H135335   5.556   5.429  14.249 -0.5843  0.9742  0.3848
 4640TIP3    H235336   5.527   5.466  14.393 -0.1016 -0.5561  0.8823
 4641TIP3   OH235337   3.824   1.997   1.442 -0.6423  0.0299  0.1074
 4641TIP3    H135338   3.746   1.963   1.398 -1.7162  2.3304  0.1392
 4641TIP3    H235339   3.897   1.959   1.394 -1.7968 -0.2770 -1.4620
 4642TIP3   OH235340   1.905   3.389   6.227 -0.3035  0.1090 -0.3550
 4642TIP3    H135341   1.971   3.428   6.170  0.1260  0.1425  0.1584
 4642TIP3    H235342   1.892   3.301   6.192  0.8063 -0.2733  0.1823
 4643TIP3   OH235343   2.072   6.083  10.800  0.4051  0.2638  0.5004
 4643TIP3    H135344   2.161   6.111  10.821  0.3026  0.1501  1.0871
 4643TIP3    H235345   2.078   5.988  10.790  0.9120  0.5171 -2.2560
 4644TIP3   OH235346   2.744   0.043  15.907  0.1642 -0.3615 -0.0781
 4644TIP3    H135347   2.670   0.083  15.860  0.1661 -0.5077 -0.2069
 4644TIP3    H235348   2.732   0.069  15.998  0.4973  0.4404 -0.2557
 4645TIP3   OH235349   0.683   1.981  12.305  0.3946  0.1801 -0.2444
 4645TIP3    H135350   0.615   2.010  12.365 -0.4912 -0.2421 -1.0452
 4645TIP3    H235351   0.708   1.894  12.338  2.2777  1.3032  1.4905
 4646TIP3   OH235352   3.001   4.862   3.150 -0.4994  0.1858 -0.0376
 4646TIP3    H135353   3.055   4.835   3.075  1.9589  0.5701  1.5206
 4646TIP3    H235354   2.987   4.956   3.136 -0.1555  0.2317 -0.0804
 4647TIP3   OH235355   4.516   1.334   4.298 -0.3312 -0.9435  0.2720
 4647TIP3    H135356   4.511   1.426   4.275  0.3219 -0.4560  2.0107
 4647TIP3    H235357   4.450   1.292   4.243 -2.4830  0.9435  1.3432
 4648TIP3   OH235358   5.953   0.449   5.023  0.2524  0.0272  0.1264
 4648TIP3    H135359   5.892   0.385   5.059 -2.1128 -0.6165 -4.6630
 4648TIP3    H235360   6.027   0.396   4.992  0.9766  0.2736  1.4127
 4649TIP3   OH235361   5.587   3.583  12.918 -0.1233 -0.0534  0.4503
 4649TIP3    H135362   5.627   3.571  12.831 -2.0992  0.7951 -0.6100
 4649TIP3    H235363   5.512   3.525  12.918 -0.9120  0.9537  1.0722
 4650TIP3   OH235364   0.954   3.586   3.514 -0.3078 -0.0588 -0.2428
 4650TIP3    H135365   0.931   3.607   3.605  0.1565 -0.7899  0.0433
 4650TIP3    H235366   1.032   3.532   3.520 -1.9570 -2.6107 -0.9112
 4651TIP3   OH235367   5.017   2.524   4.054 -0.4123  0.9190 -0.2277
 4651TIP3    H135368   5.088   2.520   4.117 -0.2099 -1.5017 -0.5799
 4651TIP3    H235369   5.061   2.531   3.969 -0.5003 -2.1422 -0.5774
 4652TIP3   OH235370   6.172   4.559  13.358 -0.5356 -0.0103  0.1512
 4652TIP3    H135371   6.257   4.595  13.334 -0.1482 -1.3303 -0.4777
 4652TIP3    H235372   6.153   4.598  13.443 -0.3374  2.0314 -0.7080
 4653TIP3   OH235373   1.387   1.834  15.684 -0.2614 -0.1444  0.1613
 4653TIP3    H135374   1.380   1.829  15.779  1.2708  0.8595  0.3457
 4653TIP3    H235375   1.347   1.753  15.653 -0.6586 -0.5375  1.6595
 4654TIP3   OH235376   0.136   3.378  16.885 -0.1890  0.2106  0.4340
 4654TIP3    H135377   0.166   3.380  16.794 -0.4121 -1.4869  0.3116
 4654TIP3    H235378   0.193   3.441  16.930 -0.6145  1.6781 -1.0210
 4655TIP3   OH235379   0.554   4.460   1.176 -0.1178  0.1897  0.1985
 4655TIP3    H135380   0.612   4.534   1.196  0.3392 -0.0601 -0.1723
 4655TIP3    H235381   0.578   4.393   1.239 -1.0626  0.6237  1.0325
 4656TIP3   OH235382   5.108   2.635   0.686 -0.1370  0.7826  0.3415
 4656TIP3    H135383   5.173   2.624   0.616 -1.4691 -1.0234 -0.6631
 4656TIP3    H235384   5.070   2.721   0.670  2.5041  2.1725  1.3861
 4657TIP3   OH235385   4.759   2.338  16.428 -0.2741  0.1367 -0.7020
 4657TIP3    H135386   4.804   2.297  16.354  2.0641  1.1539  0.1208
 4657TIP3    H235387   4.826   2.345  16.496 -1.5368  2.1495  0.3759
 4658TIP3   OH235388   0.128   3.551  15.821 -0.3560  0.3913  0.1022
 4658TIP3    H135389   0.159   3.478  15.875 -0.0636 -0.5962 -1.3543
 4658TIP3    H235390   0.183   3.547  15.743 -0.0697  2.4428  0.1884
 4659TIP3   OH235391   1.948   4.245  13.989 -0.2349 -0.4694  0.6137
 4659TIP3    H135392   2.022   4.297  14.017 -1.1472  0.9860  0.3892
 4659TIP3    H235393   1.926   4.190  14.064  0.2633  0.0250  1.1160
 4660TIP3   OH235394   1.560   4.700  11.593  0.5278  0.0024  0.1939
 4660TIP3    H135395   1.475   4.739  11.612  0.3809  0.3930 -1.2567
 4660TIP3    H235396   1.539   4.610  11.567  0.6001 -0.0181  0.2041
 4661TIP3   OH235397   1.139   3.631   3.120 -0.1267 -0.2614 -0.4667
 4661TIP3    H135398   1.232   3.625   3.142 -0.2258 -0.4165 -0.0852
 4661TIP3    H235399   1.106   3.543   3.133 -0.5527  0.0289  0.4302
 4662TIP3   OH235400   6.100   0.627  15.404 -0.0790  0.0511  0.7077
 4662TIP3    H135401   6.179   0.677  15.382 -0.0066 -1.1140 -1.7677
 4662TIP3    H235402   6.034   0.660  15.344 -0.4185 -1.7834  0.0724
 4663TIP3   OH235403   6.252   3.588  17.162 -0.2553 -0.5919  0.0740
 4663TIP3    H135404   6.160   3.608  17.148 -0.1362 -0.1133 -0.0520
 4663TIP3    H235405   6.290   3.585  17.074 -0.4208 -2.1434  0.0518
 4664TIP3   OH235406   3.860   6.267  12.507  0.5238 -0.2151 -0.2986
 4664TIP3    H135407   3.951   6.292  12.488  0.4011 -0.5469 -1.3554
 4664TIP3    H235408   3.814   6.350  12.517  0.9568 -0.0448  0.3436
 4665TIP3   OH235409   4.976   1.118   5.478  0.0116  0.1495  0.1159
 4665TIP3    H135410   4.961   1.162   5.562 -0.7312  0.1314 -0.0096
 4665TIP3    H235411   4.981   1.025   5.499 -0.1552  0.1468  0.1436
 4666TIP3   OH235412   6.342   5.333  10.835 -0.7111 -0.2533  0.0775
 4666TIP3    H135413   6.269   5.326  10.774 -0.9150 -0.8806  0.3814
 4666TIP3    H235414   6.334   5.255  10.891 -0.5514  0.3369  0.9264
 4667TIP3   OH235415   5.444   3.681  14.132  0.0157 -0.4856 -0.2634
 4667TIP3    H135416   5.494   3.750  14.089  0.5102 -0.2475  0.6816
 4667TIP3    H235417   5.445   3.705  14.225 -0.9883 -1.0210 -0.1042
 4668TIP3   OH235418   5.649   4.924   1.227  0.2481 -0.0695  0.1460
 4668TIP3    H135419   5.563   4.930   1.269  0.4287  2.1444  0.2195
 4668TIP3    H235420   5.672   5.014   1.205  2.6267 -0.6137  0.2668
 4669TIP3   OH235421   4.044   1.306   0.107 -0.5396 -0.3261  0.2368
 4669TIP3    H135422   4.002   1.352   0.034  0.3923  1.0792  0.5528
 4669TIP3    H235423   4.007   1.347   0.185  1.5864  1.1501  0.5234
 4670TIP3   OH235424   6.618   0.097   3.564 -0.2441  0.4598  0.2866
 4670TIP3    H135425   6.563   0.175   3.555 -1.4414 -0.4241 -0.3267
 4670TIP3    H235426   6.689   0.110   3.501  0.4342  1.7511  1.2948
 4671TIP3   OH235427   5.467   2.829  13.810 -0.4411 -0.4671  0.0225
 4671TIP3    H135428   5.485   2.824  13.716 -0.8215 -0.7084 -0.0402
 4671TIP3    H235429   5.380   2.789  13.819 -0.0153 -1.2737  0.5920
 4672TIP3   OH235430   3.875   1.889  15.908  0.2652  0.2872  0.0864
 4672TIP3    H135431   3.789   1.905  15.947  0.5227  1.5059  0.1677
 4672TIP3    H235432   3.919   1.831  15.970 -0.0049  0.7395  0.7030
 4673TIP3   OH235433   1.312   0.086  13.368  0.1954 -0.2280 -0.2451
 4673TIP3    H135434   1.329   0.170  13.409 -0.7810  0.1668 -0.6392
 4673TIP3    H235435   1.398   0.056  13.337  0.5953  0.4473  0.2194
 4674TIP3   OH235436   5.687   5.044   5.299  0.3857 -0.1623  0.5256
 4674TIP3    H135437   5.609   5.072   5.250 -0.7142 -1.9579  1.1939
 4674TIP3    H235438   5.715   5.123   5.345 -0.2350  0.8484 -0.7735
 4675TIP3   OH235439   5.979   4.274  16.578  0.9118  0.6534 -0.3247
 4675TIP3    H135440   6.060   4.279  16.527  0.8355 -1.0997 -0.6439
 4675TIP3    H235441   5.936   4.194  16.547 -1.2518  1.8905 -0.6236
 4676TIP3   OH235442   5.455   5.267  11.412 -0.3346  0.0592  0.6939
 4676TIP3    H135443   5.544   5.268  11.445 -0.7193 -0.5289  1.8016
 4676TIP3    H235444   5.446   5.182  11.369 -0.0609  0.5269 -0.3105
 4677TIP3   OH235445   4.677   5.827   6.090 -0.5224  0.8083  0.4686
 4677TIP3    H135446   4.761   5.780   6.094 -1.3330 -0.9479 -1.6273
 4677TIP3    H235447   4.700   5.915   6.061  0.4516 -0.2214 -2.0112
 4678TIP3   OH235448   3.124   4.187  16.339  0.3562  0.1150 -0.1644
 4678TIP3    H135449   3.193   4.253  16.347 -0.0812  0.7228 -1.2367
 4678TIP3    H235450   3.098   4.192  16.247 -2.3274  1.1409  0.6036
 4679TIP3   OH235451   4.165   5.513  12.828  0.2733 -0.2009  0.1564
 4679TIP3    H135452   4.102   5.505  12.756 -0.7255 -1.2661  1.1331
 4679TIP3    H235453   4.117   5.560  12.897  0.6293 -0.7736  0.7974
 4680TIP3   OH235454   2.554   1.706   0.656 -0.4962  0.4126  0.2388
 4680TIP3    H135455   2.609   1.658   0.594  0.6133  2.2841 -0.2514
 4680TIP3    H235456   2.472   1.657   0.658  0.6475 -1.5719 -0.1553
 4681TIP3   OH235457   0.442   4.599   4.670 -0.1805 -0.6161  0.2934
 4681TIP3    H135458   0.412   4.510   4.690 -1.1668 -0.4230 -0.2885
 4681TIP3    H235459   0.520   4.611   4.724 -0.4969 -1.5532  0.9650
 4682TIP3   OH235460   0.706   1.102  11.697 -0.2898  0.0181  0.2870
 4682TIP3    H135461   0.685   1.113  11.790  0.2718  0.3554  0.3779
 4682TIP3    H235462   0.728   1.190  11.667 -0.8761 -0.0281 -0.2683
 4683TIP3   OH235463   5.631   2.268   3.041  0.4595 -0.5365 -0.0859
 4683TIP3    H135464   5.726   2.268   3.041  0.4618 -1.1381  0.0166
 4683TIP3    H235465   5.607   2.315   2.961  0.8393 -0.3871 -0.1142
 4684TIP3   OH235466   5.189   2.793   4.702 -0.1909 -0.0475 -0.1640
 4684TIP3    H135467   5.128   2.836   4.642  0.4817  0.6393 -0.3722
 4684TIP3    H235468   5.275   2.810   4.665  0.2152  0.1546  0.8467
 4685TIP3   OH235469   4.569   2.835   5.014 -0.5994 -0.0623  0.1818
 4685TIP3    H135470   4.521   2.917   5.016 -0.8624 -0.2217  0.3859
 4685TIP3    H235471   4.507   2.771   4.981  0.1327  0.1656 -1.7167
 4686TIP3   OH235472   0.187   1.360  13.449  0.6768 -0.4756 -0.2904
 4686TIP3    H135473   0.202   1.389  13.538 -0.2565  0.0866 -0.3001
 4686TIP3    H235474   0.236   1.278  13.441  1.2286 -0.2298  0.5511
 4687TIP3   OH235475   3.411   4.375   2.160 -0.5485  0.5117 -0.0738
 4687TIP3    H135476   3.494   4.328   2.165 -0.8181  0.0486  0.0790
 4687TIP3    H235477   3.434   4.462   2.128 -0.0023  0.3896 -0.0077
 4688TIP3   OH235478   1.538   1.061  13.989 -0.0424  0.3729  0.1873
 4688TIP3    H135479   1.498   1.064  14.076  0.3438  0.3802  0.3641
 4688TIP3    H235480   1.465   1.076  13.929 -0.6478 -1.4462  0.4267
 4689TIP3   OH235481   4.053   6.675   3.870  0.0916 -0.1484 -0.6303
 4689TIP3    H135482   4.103   6.746   3.830  1.4316 -0.5460  0.3310
 4689TIP3    H235483   4.117   6.606   3.887 -0.8740 -0.8869  0.1065
 4690TIP3   OH235484   1.463   2.777  15.219 -0.0727  0.4793  0.0803
 4690TIP3    H135485   1.383   2.829  15.232 -0.9387 -0.8378  0.0246
 4690TIP3    H235486   1.519   2.802  15.293 -0.8343  0.8410  0.5450
 4691TIP3   OH235487   0.844   0.192  12.320  0.0870 -0.1989  0.8383
 4691TIP3    H135488   0.908   0.207  12.389 -0.7776  2.1817  1.1676
 4691TIP3    H235489   0.875   0.245  12.246 -0.2319 -0.9082  0.1842
 4692TIP3   OH235490   1.302   5.994   1.595  0.0633  0.0520 -0.2464
 4692TIP3    H135491   1.237   5.935   1.558  1.2629 -0.1763 -2.0612
 4692TIP3    H235492   1.259   6.079   1.598 -1.4435 -0.7438  1.7505
 4693TIP3   OH235493   5.990   2.545   3.808 -0.4928 -0.6778 -0.1644
 4693TIP3    H135494   5.958   2.547   3.718  0.2399  2.0598 -0.4052
 4693TIP3    H235495   5.967   2.631   3.844  1.0640 -0.9643  1.5883
 4694TIP3   OH235496   4.944   3.432  16.266  0.1529 -0.7370  0.1131
 4694TIP3    H135497   5.019   3.403  16.317 -0.6846 -0.3583  1.5879
 4694TIP3    H235498   4.917   3.355  16.216  0.3927 -1.3887  0.9822
 4695TIP3   OH235499   5.235   2.744  17.031  0.3119  0.1971 -0.2349
 4695TIP3    H135500   5.232   2.839  17.041  1.9785  0.1609  0.9450
 4695TIP3    H235501   5.326   2.725  17.010  0.2430 -1.2125  0.6408
 4696TIP3   OH235502   0.569   4.314  12.437 -0.5498  0.3851 -0.1628
 4696TIP3    H135503   0.475   4.317  12.457 -0.6567  0.6405 -0.6895
 4696TIP3    H235504   0.581   4.229  12.394 -0.7364  0.7812 -1.0245
 4697TIP3   OH235505   5.710   3.425   0.276  1.0173  0.0066  0.3891
 4697TIP3    H135506   5.786   3.369   0.293 -0.2729 -1.8504  0.2362
 4697TIP3    H235507   5.699   3.420   0.181  0.7005  0.2694  0.4132
 4698TIP3   OH235508   0.178   0.887   1.452 -0.6245  0.2703 -0.8411
 4698TIP3    H135509   0.213   0.961   1.502  0.3311 -0.2107 -0.7833
 4698TIP3    H235510   0.161   0.820   1.517  0.7490 -0.4054 -1.1541
 4699TIP3   OH235511   4.970   5.912   1.551 -0.0902 -0.9088  0.0756
 4699TIP3    H135512   5.027   5.882   1.480 -0.6381 -1.5583 -0.0873
 4699TIP3    H235513   4.882   5.889   1.523 -0.5128  0.6812  0.0266
 4700TIP3   OH235514   2.281   2.564  15.605  0.7901  0.1848 -0.2491
 4700TIP3    H135515   2.306   2.472  15.599  0.8308  0.1922 -0.1975
 4700TIP3    H235516   2.272   2.592  15.514  0.1796 -0.0301 -0.2577
 4701TIP3   OH235517   2.200   6.344   1.455  0.8576 -0.5299 -0.2126
 4701TIP3    H135518   2.136   6.279   1.425 -0.8177  1.4156 -1.0122
 4701TIP3    H235519   2.153   6.393   1.523  1.9539  0.0720  0.1153
 4702TIP3   OH235520   3.480   6.252  16.059 -0.1951  0.3865 -0.5382
 4702TIP3    H135521   3.416   6.239  15.989  0.0032 -2.1913 -0.2688
 4702TIP3    H235522   3.427   6.265  16.138 -0.3931  0.8109 -0.7379
 4703TIP3   OH235523   3.428   0.954   5.934  0.2662  0.1922 -0.4718
 4703TIP3    H135524   3.478   0.874   5.949  1.4587  0.9446 -0.4094
 4703TIP3    H235525   3.485   1.025   5.962 -1.2883  1.0092  0.7109
 4704TIP3   OH235526   6.309   2.336  14.496  0.0571  0.3055 -0.8565
 4704TIP3    H135527   6.376   2.393  14.533 -0.6911 -0.2211  1.4033
 4704TIP3    H235528   6.333   2.327  14.404  1.5541  2.2870 -0.7016
 4705TIP3   OH235529   2.005   2.638  14.537  0.3545 -0.1195  0.7280
 4705TIP3    H135530   2.004   2.689  14.456 -0.4093 -1.2342  0.0226
 4705TIP3    H235531   2.085   2.585  14.531 -0.2496 -0.9835  0.1984
 4706TIP3   OH235532   2.949   2.121   1.460 -0.4477  0.1334 -0.0943
 4706TIP3    H135533   2.947   2.183   1.532 -0.2206  0.8612 -0.7076
 4706TIP3    H235534   3.023   2.148   1.406 -0.0765 -0.9335 -0.1364
 4707TIP3   OH235535   0.029   2.427   5.453 -0.6631  0.5126 -0.0295
 4707TIP3    H135536   0.095   2.371   5.414 -0.4296  1.4622 -1.0398
 4707TIP3    H235537   0.039   2.415   5.547 -2.2980 -3.0510 -0.2393
 4708TIP3   OH235538   3.524   3.166  14.694 -0.0405 -1.0971 -0.2271
 4708TIP3    H135539   3.485   3.123  14.770 -1.2762 -1.3722 -0.9995
 4708TIP3    H235540   3.606   3.118  14.678 -0.1334 -1.4917  0.4909
 4709TIP3   OH235541   1.993   0.466   2.610 -0.1459 -0.4374  0.0790
 4709TIP3    H135542   2.024   0.551   2.644  0.8978 -1.7295  2.4855
 4709TIP3    H235543   2.048   0.450   2.533  3.2363 -1.2833  2.5771
 4710TIP3   OH235544   5.386   0.966   1.097  0.0032 -0.4736  0.6483
 4710TIP3    H135545   5.403   0.880   1.137  1.6979 -1.2757 -1.6632
 4710TIP3    H235546   5.451   1.023   1.137  1.1171 -1.0726 -0.2654
 4711TIP3   OH235547   0.027   2.205   3.824 -0.0630 -0.1713 -0.2398
 4711TIP3    H135548   0.018   2.297   3.801 -0.6277 -0.7214 -2.4009
 4711TIP3    H235549   0.117   2.195   3.854 -0.2337  1.2235  0.7607
 4712TIP3   OH235550   3.878   1.865   3.262 -0.0318  0.7753  0.2174
 4712TIP3    H135551   3.914   1.920   3.331 -0.3160  0.1121  0.8940
 4712TIP3    H235552   3.935   1.788   3.259 -0.6126  0.3265  0.4169
 4713TIP3   OH235553   5.173   3.020   4.331  0.4053 -0.6173  0.2498
 4713TIP3    H135554   5.205   2.942   4.284 -0.5464 -0.7781 -0.1524
 4713TIP3    H235555   5.250   3.056   4.374  1.3385 -0.3848 -1.5762
 4714TIP3   OH235556   0.756   3.905  14.794  0.2828  0.2964  0.9422
 4714TIP3    H135557   0.684   3.876  14.849 -0.1494  1.5991  1.0781
 4714TIP3    H235558   0.835   3.878  14.841 -0.1009  0.1127  1.4794
 4715TIP3   OH235559   0.586   2.683  16.293  0.4259  0.2265 -0.1059
 4715TIP3    H135560   0.659   2.712  16.348  0.8932 -1.3173  0.1188
 4715TIP3    H235561   0.603   2.590  16.279 -0.2065  0.3828 -2.0605
 4716TIP3   OH235562   1.190   1.072  14.591  0.3002 -0.7844  0.5189
 4716TIP3    H135563   1.273   1.037  14.559 -0.0793 -0.9404 -0.3241
 4716TIP3    H235564   1.172   1.147  14.534  0.9756  0.6318  2.1434
 4717TIP3   OH235565   4.303   0.890  17.004  0.1782  0.1167  0.1537
 4717TIP3    H135566   4.258   0.868  16.923  1.8053  1.5132 -1.1504
 4717TIP3    H235567   4.235   0.932  17.058 -0.1068  2.2114 -1.7855
 4718TIP3   OH235568   4.255   4.465   3.355  0.0163  0.1119 -0.3593
 4718TIP3    H135569   4.234   4.501   3.442  0.4204  0.5571 -0.4468
 4718TIP3    H235570   4.222   4.376   3.358 -1.1282  0.5278 -0.1876
 4719TIP3   OH235571   6.342   1.891   2.639  0.6064 -0.0916 -0.4389
 4719TIP3    H135572   6.366   1.882   2.546  1.8138  0.6808 -0.2155
 4719TIP3    H235573   6.354   1.804   2.676 -1.6875 -0.8610 -1.4009
 4720TIP3   OH235574   4.870   1.378   3.305 -0.0006  0.2201  0.1841
 4720TIP3    H135575   4.867   1.455   3.362  2.0052  1.6715 -1.6037
 4720TIP3    H235576   4.892   1.306   3.364 -1.0427  1.1378  1.7404
 4721TIP3   OH235577   2.773   6.319  15.218 -0.2051 -0.1629 -0.3469
 4721TIP3    H135578   2.685   6.292  15.243 -0.0517 -1.2921 -1.0168
 4721TIP3    H235579   2.800   6.256  15.152  2.1704 -1.5190  1.8293
 4722TIP3   OH235580   5.201   3.997   2.105 -0.1479 -0.1621  0.1080
 4722TIP3    H135581   5.114   3.966   2.130 -1.1239  1.7280 -0.8246
 4722TIP3    H235582   5.222   3.948   2.025  0.0217 -1.2194  0.7885
 4723TIP3   OH235583   6.563   3.294  15.123 -0.2155 -0.4869 -0.3976
 4723TIP3    H135584   6.492   3.341  15.078  1.4990  0.7423 -1.9116
 4723TIP3    H235585   6.623   3.269  15.053  1.2657 -0.7727  0.9469
 4724TIP3   OH235586   1.113   2.584  13.164 -0.0958 -0.0275 -0.5526
 4724TIP3    H135587   1.164   2.654  13.123 -0.2791  0.5364  0.1891
 4724TIP3    H235588   1.035   2.577  13.109  0.3973 -0.3561 -1.2273
 4725TIP3   OH235589   3.387   2.887  13.804 -0.0105  0.0334  0.0135
 4725TIP3    H135590   3.418   2.909  13.892 -1.8124 -2.1147  1.2229
 4725TIP3    H235591   3.404   2.794  13.795 -1.5612 -0.1549 -1.1766
 4726TIP3   OH235592   6.457   0.787  15.175 -0.4852 -0.3508 -0.1898
 4726TIP3    H135593   6.397   0.800  15.247  1.8330 -0.7159  1.8823
 4726TIP3    H235594   6.541   0.821  15.207  0.3424  0.5488 -3.1260
 4727TIP3   OH235595   4.038   4.859   1.960 -0.2613 -0.2112 -0.0719
 4727TIP3    H135596   3.986   4.782   1.936 -1.0399  0.8169 -1.7743
 4727TIP3    H235597   4.083   4.885   1.879 -0.2494  1.2883  0.3931
 4728TIP3   OH235598   6.418   2.837   0.748  0.4052  0.3614 -0.4531
 4728TIP3    H135599   6.487   2.781   0.713  0.2633 -0.9786  1.3597
 4728TIP3    H235600   6.463   2.902   0.801  0.2780 -0.5535  0.7839
 4729TIP3   OH235601   6.539   1.837   4.518 -0.0660  0.1124 -0.3860
 4729TIP3    H135602   6.601   1.779   4.473 -0.4228  0.8559 -1.8933
 4729TIP3    H235603   6.453   1.811   4.485 -0.2784  1.1025 -0.6343
 4730TIP3   OH235604   2.162   6.595   6.154 -0.7020 -0.3880 -0.3497
 4730TIP3    H135605   2.208   6.623   6.075  0.8282  2.3980  1.4477
 4730TIP3    H235606   2.069   6.600   6.131 -0.2943  0.6999 -1.8675
 4731TIP3   OH235607   4.921   0.338  12.970  0.0623  0.4874  0.2849
 4731TIP3    H135608   4.850   0.369  13.025 -2.1200  0.5235 -2.4463
 4731TIP3    H235609   4.895   0.249  12.944  3.1210 -1.2535  2.6923
 4732TIP3   OH235610   4.048   6.194  13.619  0.2798  0.2814  0.5313
 4732TIP3    H135611   4.098   6.162  13.545  0.2317  0.3853  0.4546
 4732TIP3    H235612   4.086   6.280  13.639 -3.5514  3.0468 -3.1878
 4733TIP3   OH235613   6.659   2.903  14.343 -0.1516  1.2036  0.4357
 4733TIP3    H135614   6.728   2.928  14.404  0.6943  2.1055 -0.8636
 4733TIP3    H235615   6.629   2.986  14.306 -1.5537  0.7654  0.5916
 4734TIP3   OH235616   2.721   1.464   3.121 -0.5238 -0.1782  0.1697
 4734TIP3    H135617   2.778   1.444   3.195  0.7715  0.5741 -0.6158
 4734TIP3    H235618   2.674   1.544   3.147  1.0000  0.9256 -0.3835
 4735TIP3   OH235619   4.950   5.528   1.178  0.2875 -0.0037  0.1898
 4735TIP3    H135620   4.888   5.491   1.115 -0.8214  1.8525  0.1809
 4735TIP3    H235621   5.034   5.527   1.131 -0.5892  1.6884 -1.4881
 4736TIP3   OH235622   1.252   6.055  14.239  0.1093 -0.2343  0.0460
 4736TIP3    H135623   1.237   6.102  14.321  0.6125 -0.8298  0.4825
 4736TIP3    H235624   1.330   6.096  14.202  0.8160 -1.0064  0.6478
 4737TIP3   OH235625   1.382   1.307  11.699 -0.1809 -0.3719 -0.4804
 4737TIP3    H135626   1.344   1.394  11.711  0.3694 -0.0781 -0.8387
 4737TIP3    H235627   1.401   1.276  11.788 -1.0656 -0.4393 -0.3126
 4738TIP3   OH235628   2.879   4.991   4.629 -0.6025 -0.1423  0.3702
 4738TIP3    H135629   2.875   5.038   4.712  0.9890  2.3385 -0.8927
 4738TIP3    H235630   2.932   4.914   4.648 -0.9766 -0.0600  1.8459
 4739TIP3   OH235631   4.677   4.099   3.987  0.0638 -0.3220  0.7152
 4739TIP3    H135632   4.626   4.179   3.974 -1.2812 -1.1574  0.8196
 4739TIP3    H235633   4.657   4.073   4.077  1.5340 -0.0679  1.1380
 4740TIP3   OH235634   2.911   6.421  14.917 -0.2389 -0.1672  0.2913
 4740TIP3    H135635   2.860   6.342  14.899  0.0334  0.0137 -1.2999
 4740TIP3    H235636   3.001   6.390  14.923  0.0995  0.2512 -2.1310
 4741TIP3   OH235637   5.792   2.852  14.424  0.7213  0.3940 -0.3674
 4741TIP3    H135638   5.839   2.770  14.410  0.4062 -0.0597  1.1376
 4741TIP3    H235639   5.846   2.918  14.380  1.9856 -0.3405  0.0519
 4742TIP3   OH235640   0.856   1.181   0.157 -0.3248  0.1415 -0.1702
 4742TIP3    H135641   0.823   1.173   0.246 -0.1600  2.2723  0.1022
 4742TIP3    H235642   0.929   1.242   0.164  1.2192 -1.5166 -1.3891
 4743TIP3   OH235643   0.528   6.292   0.067  0.0646 -0.0798 -0.4780
 4743TIP3    H135644   0.446   6.341   0.066  0.5330  0.7415  0.6465
 4743TIP3    H235645   0.545   6.273  -0.025 -1.1875  0.0546 -0.7566
 4744TIP3   OH235646   1.402   5.293   0.553 -0.0712 -0.5266  0.4930
 4744TIP3    H135647   1.341   5.362   0.528  0.3103 -0.1663  0.5456
 4744TIP3    H235648   1.441   5.263   0.471  0.5188  0.0342  0.5632
 4745TIP3   OH235649   2.090   3.723  15.763 -0.1054 -0.0818 -0.2361
 4745TIP3    H135650   2.060   3.695  15.676 -0.3360  0.1747 -0.2400
 4745TIP3    H235651   2.070   3.650  15.820  1.5438 -0.9105 -0.7039
 4746TIP3   OH235652   5.123   0.678  14.524 -0.2162 -0.1623 -0.1251
 4746TIP3    H135653   5.181   0.614  14.483 -0.8283 -1.2823  0.7326
 4746TIP3    H235654   5.053   0.691  14.460 -0.5241 -0.9785  0.0370
 4747TIP3   OH235655   0.143   5.598   0.885  0.7359 -0.2537 -0.2574
 4747TIP3    H135656   0.199   5.583   0.961 -0.6125  2.1112  1.2758
 4747TIP3    H235657   0.193   5.659   0.830  0.3352  0.6220  0.3447
 4748TIP3   OH235658   4.600   2.700   3.645 -0.8315 -0.5259 -0.5993
 4748TIP3    H135659   4.605   2.604   3.650  0.5148 -0.3602  4.5565
 4748TIP3    H235660   4.683   2.730   3.683 -1.6950  2.6815 -1.1072
 4749TIP3   OH235661   1.503   4.513   2.891  0.0509 -0.4614 -0.1426
 4749TIP3    H135662   1.408   4.512   2.904 -0.1043 -2.1683 -1.2526
 4749TIP3    H235663   1.517   4.581   2.825 -0.1242  1.5195  1.8092
 4750TIP3   OH235664   2.031   2.176   6.063 -0.3673  0.1777 -0.0264
 4750TIP3    H135665   2.052   2.083   6.058 -0.9774  0.0086  0.5226
 4750TIP3    H235666   2.102   2.214   6.115  0.0888  0.0925 -0.5747
 4751TIP3   OH235667   3.197   3.672   1.697  0.0498  0.0975  0.5016
 4751TIP3    H135668   3.251   3.712   1.765 -0.7979  3.0431 -0.5030
 4751TIP3    H235669   3.138   3.742   1.668 -2.9477 -2.4534  0.1281
 4752TIP3   OH235670   6.642   6.094   0.721 -0.2596  0.0281  0.8545
 4752TIP3    H135671   6.695   6.155   0.670 -0.3504  0.0867  0.8315
 4752TIP3    H235672   6.707   6.044   0.771 -0.1252 -0.6165  0.0402
 4753TIP3   OH235673   0.373   0.928   3.959 -0.5418  0.3901  0.0774
 4753TIP3    H135674   0.367   0.980   4.038 -1.0279 -1.5503  1.3538
 4753TIP3    H235675   0.370   0.837   3.989 -0.2485 -0.3888 -2.1154
 4754TIP3   OH235676   2.939   2.914   0.739 -0.5055 -0.4118  0.1925
 4754TIP3    H135677   3.026   2.944   0.763 -0.1932 -0.5880 -0.7021
 4754TIP3    H235678   2.953   2.825   0.706 -1.4120 -1.6099  2.8662
 4755TIP3   OH235679   0.227   3.778  15.286 -0.0427  0.3209  0.2508
 4755TIP3    H135680   0.174   3.712  15.241 -0.4864  1.3959 -0.8206
 4755TIP3    H235681   0.223   3.855  15.229 -0.2846  1.5776  1.9582
 4756TIP3   OH235682   0.073   4.124  11.217 -0.1258 -0.5577 -0.2810
 4756TIP3    H135683   0.034   4.049  11.262  0.9572  0.3531  2.3177
 4756TIP3    H235684   0.100   4.090  11.132 -1.3454 -2.6321  0.1256
 4757TIP3   OH235685   0.610   1.423  15.288 -0.3146 -0.1221  0.4728
 4757TIP3    H135686   0.608   1.356  15.220  0.5898  0.3712 -0.0425
 4757TIP3    H235687   0.613   1.375  15.370  0.0239 -0.7107  0.1122
 4758TIP3   OH235688   4.295   1.784   4.150 -0.4246 -0.2941 -0.1114
 4758TIP3    H135689   4.377   1.810   4.107 -0.2814 -1.9083 -0.8484
 4758TIP3    H235690   4.293   1.835   4.231  0.8969  0.3704 -0.4812
 4759TIP3   OH235691   5.496   1.545   6.056 -0.4559  0.0278  0.0448
 4759TIP3    H135692   5.544   1.503   6.127 -0.3265  0.4342  0.2013
 4759TIP3    H235693   5.551   1.619   6.030 -0.6504  0.0632 -0.2685
 4760TIP3   OH235694   6.750   0.443   4.359  0.9726 -0.3939 -0.2851
 4760TIP3    H135695   6.790   0.528   4.344  2.1406 -0.5954  1.5095
 4760TIP3    H235696   6.696   0.456   4.437 -0.6277 -0.7307 -1.3156
 4761TIP3   OH235697   4.240   6.139   5.246 -0.0450 -0.3925  0.1445
 4761TIP3    H135698   4.185   6.092   5.308 -0.8951 -0.2101 -0.4746
 4761TIP3    H235699   4.274   6.072   5.187 -1.7867 -0.1664 -1.1475
 4762TIP3   OH235700   2.418   2.630  11.423 -0.1577 -0.6984  0.1553
 4762TIP3    H135701   2.474   2.706  11.437 -2.7153  1.3552 -0.3878
 4762TIP3    H235702   2.389   2.638  11.332 -1.1981 -1.7774  0.3749
 4763TIP3   OH235703   1.380   2.447   4.820  0.6915 -0.2408  0.3688
 4763TIP3    H135704   1.411   2.535   4.843 -1.3072  0.1172  1.7787
 4763TIP3    H235705   1.443   2.388   4.861  1.4095  0.5038  0.3623
 4764TIP3   OH235706   3.330   2.721  13.520 -0.3444  0.1180 -0.3109
 4764TIP3    H135707   3.332   2.643  13.576 -2.0706 -0.3679 -0.9095
 4764TIP3    H235708   3.421   2.731  13.491  0.2156 -0.7025  1.0719
 4765TIP3   OH235709   6.786   1.997  17.013 -0.3157 -0.0014  0.0606
 4765TIP3    H135710   6.773   2.072  17.070 -0.4743  0.0117  0.0066
 4765TIP3    H235711   6.828   1.932  17.069 -0.2688  0.0914  0.1346
 4766TIP3   OH235712   0.493   5.946   5.001 -0.1749  0.1723 -0.2221
 4766TIP3    H135713   0.404   5.969   5.026  0.1599 -0.2140  1.3961
 4766TIP3    H235714   0.509   5.862   5.045  1.5709  1.0674  0.9296
 4767TIP3   OH235715   2.641   3.464   0.792 -0.2327 -0.5627  0.5755
 4767TIP3    H135716   2.717   3.475   0.735  0.2487 -0.8974  1.1437
 4767TIP3    H235717   2.651   3.376   0.828 -0.8242 -0.5603  0.7523
 4768TIP3   OH235718   5.827   5.627  16.903 -0.1067 -0.2603  1.3321
 4768TIP3    H135719   5.859   5.589  16.985  1.4601 -1.3573  0.2288
 4768TIP3    H235720   5.840   5.558  16.838 -1.8934  0.3848  0.2597
 4769TIP3   OH235721   2.643   5.242  14.623 -0.3974  0.1006  0.0975
 4769TIP3    H135722   2.562   5.208  14.662  1.1036 -0.8430  2.5473
 4769TIP3    H235723   2.683   5.166  14.581  0.0250  0.1781  0.3571
 4770TIP3   OH235724   1.571   4.873  13.752 -0.2282  0.5488 -0.5223
 4770TIP3    H135725   1.655   4.910  13.725  0.7952  0.1474  2.0676
 4770TIP3    H235726   1.514   4.949  13.766  0.3916  0.9157 -0.0187
 4771TIP3   OH235727   0.613   0.382  16.092 -0.2897  0.1640 -0.3908
 4771TIP3    H135728   0.676   0.453  16.107  0.2324 -0.4657  0.4769
 4771TIP3    H235729   0.535   0.425  16.057  0.2292  1.0902 -0.4105
 4772TIP3   OH235730   3.521   1.119  16.256  0.2669 -0.0447  0.4667
 4772TIP3    H135731   3.572   1.190  16.216  0.2577  0.0092  0.5494
 4772TIP3    H235732   3.473   1.161  16.327  0.0685 -0.0884  0.3567
 4773TIP3   OH235733   2.220   6.569  12.032  0.0303 -0.3757 -0.4575
 4773TIP3    H135734   2.227   6.592  12.125  1.8657 -1.7960 -0.2246
 4773TIP3    H235735   2.296   6.610  11.991 -0.5201 -0.1415 -1.2600
 4774TIP3   OH235736   2.333   5.048   5.992  0.0678  0.0541 -0.1629
 4774TIP3    H135737   2.387   5.007   6.059  1.5389  1.7579 -0.2570
 4774TIP3    H235738   2.257   4.991   5.983 -0.2492 -0.1077  3.0797
 4775TIP3   OH235739   1.032   2.842  16.389 -0.1606  0.7057 -0.7513
 4775TIP3    H135740   1.102   2.778  16.377 -0.8827 -0.5403  1.3916
 4775TIP3    H235741   1.071   2.925  16.362  1.6884 -0.1801 -0.8979
 4776TIP3   OH235742   3.755   6.127   1.572  0.0590  0.5538  0.2301
 4776TIP3    H135743   3.753   6.161   1.661 -1.3895 -1.4862  1.0012
 4776TIP3    H235744   3.732   6.202   1.517  0.1269  1.6163  1.6252
 4777TIP3   OH235745   2.167   5.355  16.162  0.2330  0.2010  0.3934
 4777TIP3    H135746   2.225   5.338  16.237 -1.3592 -2.4724  1.0909
 4777TIP3    H235747   2.180   5.280  16.105 -1.7145  0.1210  0.0331
 4778TIP3   OH235748   3.485   2.425   0.779 -0.8107  0.4390 -0.2996
 4778TIP3    H135749   3.491   2.351   0.840  2.0565  1.1909  0.3891
 4778TIP3    H235750   3.431   2.489   0.825 -0.7289  0.0136  0.4069
 4779TIP3   OH235751   2.488   4.259  14.513 -0.7779  0.2603 -0.0399
 4779TIP3    H135752   2.504   4.169  14.485 -0.6356  0.0617  0.6572
 4779TIP3    H235753   2.575   4.291  14.539 -1.1843 -0.1812  1.9383
 4780TIP3   OH235754   1.103   1.036  14.014  0.2180  0.1521 -0.6623
 4780TIP3    H135755   1.084   1.027  14.107  0.4228 -0.5660 -0.6864
 4780TIP3    H235756   1.019   1.022  13.970  0.3780 -0.8511 -0.6538
 4781TIP3   OH235757   3.390   3.616  12.241 -0.1618 -0.4904  0.3552
 4781TIP3    H135758   3.428   3.601  12.328  2.0034 -1.7487 -0.7930
 4781TIP3    H235759   3.329   3.543  12.229  0.7702 -1.2384  0.1382
 4782TIP3   OH235760   4.379   4.370   5.254  0.3698  0.0959  0.3526
 4782TIP3    H135761   4.390   4.441   5.191 -0.8859 -1.3435 -1.5551
 4782TIP3    H235762   4.423   4.401   5.333  2.2048  1.8604 -1.2922
 4783TIP3   OH235763   2.103   6.754   5.313 -0.1230  0.0510 -0.3371
 4783TIP3    H135764   2.108   6.667   5.273 -0.4164 -0.1700  0.1057
 4783TIP3    H235765   2.011   6.762   5.339 -0.2836  0.8238 -1.1200
 4784TIP3   OH235766   6.006   0.107   1.289 -0.3769 -0.6900  0.0575
 4784TIP3    H135767   6.083   0.103   1.232 -0.7415 -1.4577 -0.3940
 4784TIP3    H235768   6.028   0.049   1.362 -0.1173 -0.1118  0.4376
 4785TIP3   OH235769   4.208   0.858   3.145  0.6549 -0.1876  0.3643
 4785TIP3    H135770   4.118   0.868   3.174  0.8022  2.1400  0.1279
 4785TIP3    H235771   4.214   0.768   3.113 -1.2447 -0.7267  1.4793
 4786TIP3   OH235772   4.974   3.402   1.974 -0.1422  0.3792  0.0260
 4786TIP3    H135773   5.025   3.322   1.962  1.2799  1.5134 -1.7504
 4786TIP3    H235774   4.890   3.383   1.931  0.0141 -0.3273  0.0260
 4787TIP3   OH235775   3.824   4.566  15.282  0.3447  0.0874  0.1283
 4787TIP3    H135776   3.817   4.488  15.338 -0.1224 -0.3368 -0.5172
 4787TIP3    H235777   3.771   4.545  15.205  2.5143 -0.1161 -1.3576
 4788TIP3   OH235778   6.781   6.499   3.512  0.4988  0.1923 -0.5626
 4788TIP3    H135779   6.730   6.483   3.433 -3.6979  0.8540  1.8834
 4788TIP3    H235780   6.739   6.445   3.579  1.9714  2.1106  1.9692
 4789TIP3   OH235781   0.949   5.419   1.544 -0.4544 -0.1343  0.0702
 4789TIP3    H135782   1.015   5.391   1.607  1.2337  0.8003 -1.2566
 4789TIP3    H235783   0.946   5.348   1.479 -2.5486 -1.3349  1.3992
 4790TIP3   OH235784   2.101   4.685   5.283 -0.3899 -0.1195 -0.1607
 4790TIP3    H135785   2.010   4.712   5.273 -1.4532 -3.3912  0.0168
 4790TIP3    H235786   2.112   4.614   5.221  1.5991 -0.7911  0.9133
 4791TIP3   OH235787   5.491   3.640   2.348  0.1019 -0.4461  0.6895
 4791TIP3    H135788   5.537   3.702   2.403  0.1991 -1.1358  1.3917
 4791TIP3    H235789   5.440   3.587   2.409 -1.2315 -0.0114 -0.0369
 4792TIP3   OH235790   6.648   4.838  13.289 -0.2933  0.0756 -0.2990
 4792TIP3    H135791   6.721   4.776  13.299 -0.2117  0.2583  0.2239
 4792TIP3    H235792   6.690   4.921  13.269 -0.1462  0.9802  3.4613
 4793TIP3   OH235793   2.784   0.515  15.844 -0.1374  0.4610 -0.2947
 4793TIP3    H135794   2.856   0.458  15.870  0.2263 -0.1800 -2.6026
 4793TIP3    H235795   2.825   0.582  15.790 -1.1246  0.7003 -0.7464
 4794TIP3   OH235796   5.113   3.178  13.099 -0.5287  0.2688 -0.6183
 4794TIP3    H135797   5.193   3.127  13.091 -1.4070 -0.9742 -1.6901
 4794TIP3    H235798   5.074   3.148  13.182 -1.2555 -1.1624 -1.4471
 4795TIP3   OH235799   0.899   4.893  14.449  0.1571 -0.5117 -0.0818
 4795TIP3    H135800   0.817   4.850  14.473 -0.3312  1.6109  2.2450
 4795TIP3    H235801   0.893   4.902  14.353 -2.0609 -0.8880 -0.0130
 4796TIP3   OH235802   3.756   5.610  11.382  0.0215  0.0019 -0.4490
 4796TIP3    H135803   3.823   5.653  11.328 -0.9257  0.6415 -1.1266
 4796TIP3    H235804   3.684   5.593  11.321 -0.2231 -1.1769  0.1606
 4797TIP3   OH235805   0.602   2.614  11.700  0.4702 -0.5838 -0.4999
 4797TIP3    H135806   0.678   2.599  11.643 -0.9012 -2.6128 -1.8601
 4797TIP3    H235807   0.527   2.589  11.646 -0.9812 -0.9635  1.6733
 4798TIP3   OH235808   2.658   6.712   5.367 -0.2140 -0.0863  0.4627
 4798TIP3    H135809   2.649   6.773   5.293 -1.2251 -0.3529  0.3601
 4798TIP3    H235810   2.724   6.649   5.337 -0.6217 -0.1971 -0.2193
 4799TIP3   OH235811   3.199   5.331  12.492 -0.1650  0.3104 -0.0108
 4799TIP3    H135812   3.194   5.249  12.443 -1.1765  1.1118 -1.2603
 4799TIP3    H235813   3.232   5.305  12.578 -0.8884 -1.4717 -0.2471
 4800TIP3   OH235814   5.619   1.174   2.857 -0.6999  0.3911  0.5516
 4800TIP3    H135815   5.586   1.212   2.775 -0.2566  0.2448  0.3052
 4800TIP3    H235816   5.643   1.085   2.834 -2.9309 -0.4740  1.4162
 4801TIP3   OH235817   0.937   2.489   0.770  0.5410 -0.7543  0.3460
 4801TIP3    H135818   0.843   2.484   0.757  0.4537 -0.7410  0.9606
 4801TIP3    H235819   0.949   2.482   0.865  0.9866  1.7331  0.5116
 4802TIP3   OH235820   2.598   2.804  14.359 -0.2341 -0.2750 -0.1805
 4802TIP3    H135821   2.681   2.789  14.404  0.1889 -0.6884 -1.0767
 4802TIP3    H235822   2.556   2.719  14.357  0.3219 -0.5437 -1.6510
 4803TIP3   OH235823   0.484   2.339  10.644 -0.0478 -0.3425  0.2145
 4803TIP3    H135824   0.503   2.274  10.712  0.4013 -1.6057 -1.0637
 4803TIP3    H235825   0.467   2.420  10.691  0.8970 -1.0358  1.7973
 4804TIP3   OH235826   1.475   3.376   0.849 -0.4215 -0.2431  0.1416
 4804TIP3    H135827   1.563   3.371   0.887  0.0940 -2.0735 -1.2409
 4804TIP3    H235828   1.482   3.445   0.782 -0.0913 -0.2315  0.1861
 4805TIP3   OH235829   0.349   0.582   3.667  0.5512  0.5508 -0.3490
 4805TIP3    H135830   0.318   0.668   3.641  0.3603  0.4465 -0.4663
 4805TIP3    H235831   0.369   0.537   3.585 -1.0531 -0.1548 -0.3816
 4806TIP3   OH235832   2.928   3.482  13.384 -0.8450  0.3985 -0.0421
 4806TIP3    H135833   3.021   3.488  13.362 -1.1468  0.6247 -1.3239
 4806TIP3    H235834   2.926   3.452  13.475  0.4574 -0.7695 -0.3837
 4807TIP3   OH235835   2.301   0.734  12.595  0.2765  0.2218 -0.2015
 4807TIP3    H135836   2.386   0.761  12.562  0.7154 -0.4589  0.3627
 4807TIP3    H235837   2.320   0.688  12.676 -0.4571 -1.6506 -1.0544
 4808TIP3   OH235838   0.765   1.935  11.692  0.4372  0.0337  0.2577
 4808TIP3    H135839   0.823   1.906  11.622 -1.0508  0.1651 -1.0691
 4808TIP3    H235840   0.718   1.856  11.718 -1.6322  0.6467 -1.4529
 4809TIP3   OH235841   1.114   3.996   3.306  0.0788 -0.5462 -0.1219
 4809TIP3    H135842   1.180   3.947   3.256 -1.5873 -1.1673 -1.7683
 4809TIP3    H235843   1.054   3.929   3.338  0.2965  0.0071  1.4493
 4810TIP3   OH235844   2.793   3.169  13.437  0.0992  0.1682 -0.2827
 4810TIP3    H135845   2.802   3.239  13.372  1.7328 -0.1411 -0.4071
 4810TIP3    H235846   2.716   3.120  13.410  0.1751  0.6615 -1.3972
 4811TIP3   OH235847   1.824   4.708   0.081  0.1270  0.1999 -0.2316
 4811TIP3    H135848   1.908   4.743   0.053  0.1026 -0.9198 -1.7975
 4811TIP3    H235849   1.839   4.676   0.170  0.8962  1.5040  0.1225
 4812TIP3   OH235850   1.366   4.533   2.288  0.1874  0.7153 -0.0510
 4812TIP3    H135851   1.440   4.484   2.252  1.0278  0.2613  2.2067
 4812TIP3    H235852   1.318   4.468   2.340 -1.6884  1.0557 -1.3264
 4813TIP3   OH235853   2.459   3.238   4.837 -0.4200  0.1026 -0.4758
 4813TIP3    H135854   2.545   3.209   4.806 -0.0520  1.5067 -0.8111
 4813TIP3    H235855   2.408   3.157   4.846  1.1480 -0.8064  0.4186
 4814TIP3   OH235856   3.097   5.051  14.753 -0.4669  0.3867 -0.3935
 4814TIP3    H135857   3.087   5.075  14.661  0.1890 -1.1278 -0.8756
 4814TIP3    H235858   3.186   5.017  14.759 -0.6219  0.1714  0.7274
 4815TIP3   OH235859   0.723   0.888   2.882 -0.0572 -0.1479 -0.5354
 4815TIP3    H135860   0.673   0.968   2.870 -1.1324 -0.8002 -0.5181
 4815TIP3    H235861   0.786   0.887   2.810 -0.7312  0.1985 -1.1325
 4816TIP3   OH235862   3.837   3.432  16.255  0.4092  0.4865 -0.2799
 4816TIP3    H135863   3.773   3.403  16.190 -0.0154 -0.5825  0.5916
 4816TIP3    H235864   3.921   3.397  16.224  0.1787 -0.1783 -0.1583
 4817TIP3   OH235865   5.340   0.008   6.577  0.3503  0.4636 -0.4050
 4817TIP3    H135866   5.385   0.055   6.647  0.3485  1.4766 -1.0837
 4817TIP3    H235867   5.406  -0.052   6.542  0.6090  0.5896 -0.1326
 4818TIP3   OH235868   5.462   6.715  16.881  0.0763 -0.7835 -0.2035
 4818TIP3    H135869   5.460   6.647  16.814 -0.8397  0.8568 -1.9014
 4818TIP3    H235870   5.531   6.775  16.852 -0.2463 -0.1252  0.3664
 4819TIP3   OH235871   0.353   6.401   5.884  0.2565 -0.0678  0.0082
 4819TIP3    H135872   0.387   6.313   5.898 -3.0938 -1.5310 -0.5519
 4819TIP3    H235873   0.313   6.426   5.967  0.5541  0.6472 -0.0558
 4820TIP3   OH235874   5.999   6.053   2.708  0.1199 -0.2132  0.0196
 4820TIP3    H135875   5.980   6.078   2.798 -0.9502  1.5996 -0.6785
 4820TIP3    H235876   6.093   6.068   2.697  0.2866 -0.6348  0.8795
 4821TIP3   OH235877   5.749   5.099   3.490  0.0960  0.1608 -0.1147
 4821TIP3    H135878   5.828   5.047   3.501 -0.4453 -0.5994  0.1609
 4821TIP3    H235879   5.757   5.169   3.555  0.9612  0.6059 -0.6862
 4822TIP3   OH235880   5.654   3.060   3.593 -0.2055  0.0606 -0.1171
 4822TIP3    H135881   5.656   3.082   3.500 -2.3884 -0.4353 -0.3316
 4822TIP3    H235882   5.733   3.098   3.630  1.0399 -0.3565 -2.3200
 4823TIP3   OH235883   3.335   4.257   4.282  0.0847 -0.8792 -0.8405
 4823TIP3    H135884   3.292   4.210   4.211 -0.4394 -1.2805 -0.2711
 4823TIP3    H235885   3.265   4.275   4.345  0.1268  1.3893 -1.4124
 4824TIP3   OH235886   0.244   6.382   1.809  0.1251  0.6418 -0.5820
 4824TIP3    H135887   0.297   6.395   1.731 -0.2282  2.1584 -0.5706
 4824TIP3    H235888   0.289   6.430   1.878 -1.0183  1.5740 -0.4722
 4825TIP3   OH235889   5.255   3.867  11.748  0.2458 -0.2993 -0.4622
 4825TIP3    H135890   5.236   3.873  11.654 -0.7310 -0.2262 -0.2696
 4825TIP3    H235891   5.202   3.792  11.778  1.8065 -1.3538 -0.2774
 4826TIP3   OH235892   4.725   0.138  13.657  0.5776 -0.4012 -0.1951
 4826TIP3    H135893   4.758   0.191  13.585  0.5251  1.9808  1.4977
 4826TIP3    H235894   4.797   0.136  13.720  0.3722 -1.8959  0.0259
 4827TIP3   OH235895   6.558   1.115   1.518  0.1826  0.3662 -0.0466
 4827TIP3    H135896   6.503   1.043   1.486  0.7507  0.4515 -1.2495
 4827TIP3    H235897   6.501   1.192   1.511 -0.5738 -0.0208  1.6638
 4828TIP3   OH235898   3.942   0.277   3.938 -0.1276 -0.6636 -0.2031
 4828TIP3    H135899   4.005   0.336   3.897  0.3076  1.0721  2.7819
 4828TIP3    H235900   3.857   0.306   3.905  0.0288  2.1457  1.6978
 4829TIP3   OH235901   6.474   5.176  14.313 -0.1691 -0.2697  0.5007
 4829TIP3    H135902   6.482   5.141  14.401  3.1455  0.7254  0.6746
 4829TIP3    H235903   6.428   5.259  14.325  0.0767 -0.2369  1.2842
 4830TIP3   OH235904   2.346   5.365   4.290 -0.3418 -0.1335  0.0832
 4830TIP3    H135905   2.295   5.436   4.251 -1.0109 -0.1082  0.9754
 4830TIP3    H235906   2.322   5.367   4.383  0.5694 -0.7382  0.3332
 4831TIP3   OH235907   3.375   3.335  11.620  0.2137  0.2391  0.1643
 4831TIP3    H135908   3.283   3.341  11.645  0.2587 -0.9473  0.6823
 4831TIP3    H235909   3.423   3.342  11.702  0.6582  2.0636 -0.2299
 4832TIP3   OH235910   3.514   4.140   2.790 -0.2460 -0.6298 -1.1992
 4832TIP3    H135911   3.440   4.186   2.751  0.3578 -1.0035 -2.8310
 4832TIP3    H235912   3.568   4.209   2.828 -0.5623 -0.2100 -1.5138
 4833TIP3   OH235913   4.449   5.890  12.551  0.7992 -0.4516  0.1128
 4833TIP3    H135914   4.541   5.876  12.572  0.3152 -0.0620  2.7387
 4833TIP3    H235915   4.403   5.872  12.633 -1.1896  2.0390 -0.3801
 4834TIP3   OH235916   4.697   5.739  13.521 -0.0772 -0.0673 -0.2920
 4834TIP3    H135917   4.621   5.781  13.479 -1.6716 -1.8845  0.7143
 4834TIP3    H235918   4.753   5.713  13.447 -0.8594  0.5076 -1.1048
 4835TIP3   OH235919   1.185   0.339   2.439 -0.1889  0.1702  0.3422
 4835TIP3    H135920   1.227   0.260   2.406 -0.1023 -0.3964  1.7498
 4835TIP3    H235921   1.257   0.393   2.472 -0.3290  0.3809  0.3019
 4836TIP3   OH235922   5.704   1.231  14.361  0.4780  0.2936  0.3523
 4836TIP3    H135923   5.615   1.202  14.337  0.5083  0.3803  0.1309
 4836TIP3    H235924   5.706   1.224  14.456  0.2297  0.2965  0.3604
 4837TIP3   OH235925   5.487   5.878  16.030  0.2282 -0.2812 -0.1955
 4837TIP3    H135926   5.504   5.947  15.966  0.1878  0.1410  0.2448
 4837TIP3    H235927   5.392   5.867  16.029  0.1846  0.0436  0.1139
 4838TIP3   OH235928   1.912   0.631  12.603 -0.0321  0.4315 -0.1349
 4838TIP3    H135929   1.933   0.680  12.683  0.4097 -1.0817  0.6999
 4838TIP3    H235930   1.872   0.696  12.545 -0.5555  1.5106  1.3967
 4839TIP3   OH235931   6.004   1.808   1.258  0.2633  0.0396 -0.1234
 4839TIP3    H135932   6.067   1.747   1.220 -1.2973 -0.4737 -1.9446
 4839TIP3    H235933   5.921   1.760   1.259  0.0095  0.3953  3.0383
 4840TIP3   OH235934   2.470   1.878   1.806  0.1150  0.3735 -0.0486
 4840TIP3    H135935   2.399   1.940   1.828  0.9258  1.7914 -1.3487
 4840TIP3    H235936   2.536   1.893   1.874  0.0867  0.5957 -0.0678
 4841TIP3   OH235937   5.410   1.383  12.248  0.2256  0.3114  0.0516
 4841TIP3    H135938   5.453   1.410  12.329 -0.2359 -0.0465  0.4261
 4841TIP3    H235939   5.325   1.348  12.277  0.2263 -0.2000 -0.5442
 4842TIP3   OH235940   4.335   0.801  11.563  0.0871  0.1640  0.0184
 4842TIP3    H135941   4.241   0.819  11.555 -0.2248 -1.2725  0.2348
 4842TIP3    H235942   4.343   0.708  11.540  1.7693  0.8329 -2.2522
 4843TIP3   OH235943   1.420   5.649  13.105 -0.1928  0.0073  0.1527
 4843TIP3    H135944   1.495   5.678  13.053  0.6377 -0.7415  0.9195
 4843TIP3    H235945   1.344   5.679  13.055  0.5611 -1.3840 -1.9154
 4844TIP3   OH235946   5.746   4.455  15.388  0.1403  0.0785  0.3217
 4844TIP3    H135947   5.732   4.492  15.301  0.0052  1.6450  0.9886
 4844TIP3    H235948   5.753   4.361  15.374 -0.3192  0.2865 -1.3272
 4845TIP3   OH235949   6.465   1.777   1.487 -0.2540  0.3187 -0.4137
 4845TIP3    H135950   6.398   1.719   1.450 -0.8299  0.2428  0.7410
 4845TIP3    H235951   6.416   1.846   1.532  0.3970  2.6058 -3.0634
 4846TIP3   OH235952   2.471   6.604  11.514  0.3761 -0.2568 -0.1471
 4846TIP3    H135953   2.405   6.666  11.484  0.9104  0.9254  1.0845
 4846TIP3    H235954   2.543   6.614  11.452  0.4293  0.2910  0.0040
 4847TIP3   OH235955   5.522   2.883   4.111  0.0505 -0.4257  0.3951
 4847TIP3    H135956   5.607   2.897   4.153  0.3136  0.7956 -0.4976
 4847TIP3    H235957   5.542   2.831   4.033 -0.0703 -0.4810  0.4013
 4848TIP3   OH235958   1.241   5.730  15.759 -0.5389 -0.0079 -0.1633
 4848TIP3    H135959   1.333   5.721  15.785 -0.5862  1.0545  0.4065
 4848TIP3    H235960   1.213   5.813  15.798 -1.0817  0.8221 -2.2281
 4849TIP3   OH235961   6.292   1.959   1.638 -0.6913 -0.2337 -0.5098
 4849TIP3    H135962   6.298   1.939   1.732  0.8147 -0.4185 -0.6323
 4849TIP3    H235963   6.203   1.992   1.627 -1.3099 -1.3962  0.7554
 4850TIP3   OH235964   4.637   1.800   0.540  0.4016  0.4997  0.4755
 4850TIP3    H135965   4.680   1.724   0.501 -0.5903 -0.0239  0.4046
 4850TIP3    H235966   4.637   1.782   0.634 -0.5002  0.0628  0.3958
 4851TIP3   OH235967   6.410   6.217   2.443 -0.2666  0.6129  0.2326
 4851TIP3    H135968   6.484   6.178   2.490 -0.6956  0.7403  1.0239
 4851TIP3    H235969   6.333   6.177   2.484 -0.6385  0.5356 -0.5383
 4852TIP3   OH235970   4.598   3.071  14.363  0.2382 -0.1381  0.0102
 4852TIP3    H135971   4.614   3.084  14.456 -0.4903  0.1601  0.0910
 4852TIP3    H235972   4.679   3.031  14.331  0.4431 -0.3649  0.7927
 4853TIP3   OH235973   0.265   2.053  12.920  0.6711  0.4082  0.4062
 4853TIP3    H135974   0.182   2.089  12.888  0.4293 -0.7660 -0.3357
 4853TIP3    H235975   0.332   2.107  12.878  0.2870  1.4123  1.0690
 4854TIP3   OH235976   1.731   6.275   2.683  0.1408  0.2747 -0.1405
 4854TIP3    H135977   1.725   6.184   2.712 -2.3798 -0.1138 -1.7652
 4854TIP3    H235978   1.784   6.271   2.603 -0.5598  0.1389 -0.5989
 4855TIP3   OH235979   3.754   6.362   3.790 -0.1770 -0.4988 -0.1645
 4855TIP3    H135980   3.823   6.393   3.731 -0.4951  3.0289  1.1655
 4855TIP3    H235981   3.672   6.388   3.747 -0.5557 -1.4463 -0.0313
 4856TIP3   OH235982   4.570   4.246  14.511 -0.6858 -0.2754  0.9609
 4856TIP3    H135983   4.595   4.225  14.420  1.9735  0.5674  1.4554
 4856TIP3    H235984   4.652   4.270  14.553 -2.3387  2.3841  2.8003
 4857TIP3   OH235985   2.961   2.792  15.241 -0.0554  0.1889 -0.6708
 4857TIP3    H135986   2.881   2.787  15.188  0.0893  0.0213 -0.8752
 4857TIP3    H235987   2.937   2.753  15.325 -0.2304  0.2683 -0.6829
 4858TIP3   OH235988   5.177   5.279  15.508  0.6261  0.2419  0.0816
 4858TIP3    H135989   5.140   5.242  15.428 -0.2580  0.7124  0.2668
 4858TIP3    H235990   5.101   5.300  15.562  1.1626  1.2274  0.4674
 4859TIP3   OH235991   4.361   1.416  17.193  0.1369 -0.7802 -0.0935
 4859TIP3    H135992   4.341   1.445  17.282 -0.0904 -1.3102  0.0286
 4859TIP3    H235993   4.276   1.405  17.151  0.1748 -2.3902  0.2238
 4860TIP3   OH235994   0.731   2.307  13.646 -0.2612  0.3110 -0.2958
 4860TIP3    H135995   0.751   2.335  13.735 -1.7004 -2.2663  0.8673
 4860TIP3    H235996   0.643   2.342  13.629  0.1761  1.1459 -0.8670
 4861TIP3   OH235997   3.920   6.718   4.150  0.4531  0.5625  0.2594
 4861TIP3    H135998   3.990   6.783   4.144  0.2435  0.7686  0.0352
 4861TIP3    H235999   3.880   6.718   4.063  0.1594  0.4622  0.3937
 4862TIP3   OH236000   2.404   6.302  14.522 -0.2795 -0.1459  0.5634
 4862TIP3    H136001   2.360   6.341  14.446 -0.3170 -1.0826  0.0950
 4862TIP3    H236002   2.449   6.225  14.487 -0.2795 -0.5778  1.4863
 4863TIP3   OH236003   4.211   1.075   1.075 -0.2482 -0.6436 -0.1094
 4863TIP3    H136004   4.267   1.010   1.032  0.5775  0.6581 -1.0535
 4863TIP3    H236005   4.157   1.111   1.004  0.2496  0.6346  0.1360
 4864TIP3   OH236006   0.226   6.574   5.178 -0.3355 -0.4967 -0.1691
 4864TIP3    H136007   0.309   6.591   5.132 -0.3620  1.3183  0.4011
 4864TIP3    H236008   0.251   6.529   5.258 -0.1532 -2.3702 -1.2637
 4865TIP3   OH236009   0.908   2.346  11.370 -0.1851 -0.0343 -0.6573
 4865TIP3    H136010   0.941   2.422  11.417 -0.0317 -0.3640 -0.2288
 4865TIP3    H236011   0.854   2.382  11.300 -0.2661  0.4598 -0.3357
 4866TIP3   OH236012   4.879   3.417  12.510 -0.1482 -0.2300 -0.2963
 4866TIP3    H136013   4.911   3.460  12.589 -0.9596  0.7671 -0.4994
 4866TIP3    H236014   4.858   3.328  12.537 -4.3527  1.2530  1.6096
 4867TIP3   OH236015   6.274   5.786  16.196  0.5666 -0.5985 -0.2784
 4867TIP3    H136016   6.255   5.780  16.102  0.1113  1.2975 -0.3351
 4867TIP3    H236017   6.215   5.722  16.236  0.7507 -1.4114 -1.2796
 4868TIP3   OH236018   4.547   1.064   3.499  0.0602  0.3483 -0.4117
 4868TIP3    H136019   4.606   1.136   3.476  0.6868 -0.1913 -0.5037
 4868TIP3    H236020   4.514   1.033   3.415 -2.2692  2.2339 -0.2389
 4869TIP3   OH236021   5.523   4.617   5.613 -0.4721  0.3114 -0.2088
 4869TIP3    H136022   5.571   4.544   5.575 -0.0383  0.4276  0.1111
 4869TIP3    H236023   5.553   4.694   5.565 -1.2078  0.2282 -0.7994
 4870TIP3   OH236024   5.297   1.072   2.837  0.6202  0.4296  0.0614
 4870TIP3    H136025   5.357   1.031   2.899  0.5145  0.5623  0.2522
 4870TIP3    H236026   5.323   1.165   2.837  0.0256  0.5954  0.5919
 4871TIP3   OH236027   1.050   0.469  14.604  0.0402  0.1794  0.7797
 4871TIP3    H136028   1.095   0.424  14.532  1.7761  0.5366  1.6113
 4871TIP3    H236029   1.019   0.399  14.661 -0.2263 -0.0649  0.3356
 4872TIP3   OH236030   3.743   6.299  14.100 -0.6125  0.0894  0.1865
 4872TIP3    H136031   3.709   6.363  14.038 -1.4992 -0.2639  0.3009
 4872TIP3    H236032   3.707   6.216  14.071  0.3054 -0.3235  0.2062
 4873TIP3   OH236033   3.833   2.526  15.686  0.1040 -0.4134  0.8368
 4873TIP3    H136034   3.769   2.580  15.733  0.7209  0.3162  0.8422
 4873TIP3    H236035   3.909   2.584  15.674 -0.1315 -0.4937 -1.2512
 4874TIP3   OH236036   0.915   5.983   5.467  0.2113 -0.0005  0.3885
 4874TIP3    H136037   0.900   6.038   5.544 -0.3934  0.6300 -0.1732
 4874TIP3    H236038   1.000   6.013   5.433  0.0397  0.3536  0.2737
 4875TIP3   OH236039   6.123   4.869  16.948 -0.3885 -0.0991  0.2203
 4875TIP3    H136040   6.090   4.846  16.861 -0.2735 -2.2988  0.7260
 4875TIP3    H236041   6.215   4.890  16.933 -0.9520  1.9481 -0.5456
 4876TIP3   OH236042   3.450   5.882  14.950 -0.5177  0.0346  0.0151
 4876TIP3    H136043   3.467   5.936  14.873  0.0309  1.4754  1.1239
 4876TIP3    H236044   3.518   5.814  14.947 -0.2255  0.3466 -0.5366
 4877TIP3   OH236045   1.805   6.079   0.234 -0.5697  0.6823  0.0026
 4877TIP3    H136046   1.866   6.045   0.300 -0.2244  0.1203 -0.6045
 4877TIP3    H236047   1.720   6.079   0.279 -1.0414 -3.2504 -0.6821
 4878TIP3   OH236048   5.410   1.609  15.690 -0.1942  0.3536  0.1510
 4878TIP3    H136049   5.347   1.663  15.739 -0.4979 -0.5174  0.7354
 4878TIP3    H236050   5.491   1.614  15.741 -0.3316 -0.0519  0.4089
 4879TIP3   OH236051   6.506   1.870   1.223 -0.4203 -0.3685 -0.4175
 4879TIP3    H136052   6.439   1.871   1.155 -0.3595  0.4832 -0.4705
 4879TIP3    H236053   6.457   1.862   1.305 -0.4873 -1.5378 -0.5579
 4880TIP3   OH236054   1.853   1.331  14.925 -0.5244  0.3472 -0.2619
 4880TIP3    H136055   1.788   1.287  14.871  1.1979 -1.0892 -1.2026
 4880TIP3    H236056   1.914   1.371  14.863  2.3110 -2.5573  0.5364
 4881TIP3   OH236057   5.167   2.120  14.722  0.3916 -0.3152  0.1074
 4881TIP3    H136058   5.113   2.101  14.645  1.1900  0.6029 -0.7073
 4881TIP3    H236059   5.249   2.074  14.705  1.5291  1.9732 -0.8467
 4882TIP3   OH236060   4.013   2.002   2.605  0.5098 -0.0512  0.1108
 4882TIP3    H136061   3.978   2.091   2.611 -0.6432 -0.6269  2.5415
 4882TIP3    H236062   4.099   2.008   2.647  1.0410  0.1866 -0.9810
 4883TIP3   OH236063   0.097   6.165  13.697  0.0253  0.1824  0.1576
 4883TIP3    H136064   0.061   6.144  13.611  0.1536 -2.8944  0.8123
 4883TIP3    H236065   0.068   6.094  13.753 -0.5558  2.4598  2.8371
 4884TIP3   OH236066   3.682   1.229  13.384  0.0689  0.3659  0.0996
 4884TIP3    H136067   3.673   1.271  13.299  0.7304 -0.8605 -0.5936
 4884TIP3    H236068   3.598   1.184  13.397 -0.0638  0.6252  0.1267
 4885TIP3   OH236069   1.035   6.606  14.231  0.3117  0.1881 -0.2075
 4885TIP3    H136070   0.956   6.562  14.263  0.3171  0.8947  0.8136
 4885TIP3    H236071   1.107   6.548  14.257  0.2907  0.6030  0.8055
 4886TIP3   OH236072   5.258   1.891   0.103 -0.1288  0.3466  0.1274
 4886TIP3    H136073   5.250   1.847   0.188  1.6690 -0.6731 -0.2103
 4886TIP3    H236074   5.218   1.831   0.041  1.9807 -0.7117 -0.2752
 4887TIP3   OH236075   4.610   3.897   0.309  0.5327  0.1176 -0.5123
 4887TIP3    H136076   4.555   3.938   0.242 -0.8174  1.4824  1.3655
 4887TIP3    H236077   4.565   3.816   0.331  1.0179 -0.3714 -1.2805
 4888TIP3   OH236078   1.631   1.894  15.321 -0.1182 -0.5991  0.1286
 4888TIP3    H136079   1.725   1.887  15.303  0.2166 -0.1538  1.6915
 4888TIP3    H236080   1.594   1.813  15.285  0.9589 -1.1026  0.1324
 4889TIP3   OH236081   5.103   6.673  11.930  0.1850 -0.8133  0.5542
 4889TIP3    H136082   5.072   6.667  11.840  0.6846  0.1565  0.2980
 4889TIP3    H236083   5.076   6.761  11.958  1.5622 -0.4334  0.7392
 4890TIP3   OH236084   0.627   6.173   1.554 -0.3424 -0.6267 -0.4289
 4890TIP3    H136085   0.582   6.125   1.623  1.9079 -0.4954  1.1877
 4890TIP3    H236086   0.692   6.111   1.520  0.6754  0.3175 -0.2448
 4891TIP3   OH236087   1.845   1.224   4.419  0.5806 -0.1833  0.3492
 4891TIP3    H136088   1.934   1.256   4.408  0.4604 -0.0513 -0.2901
 4891TIP3    H236089   1.826   1.177   4.337 -0.1112  0.2204  0.2700
 4892TIP3   OH236090   4.800   0.248   1.674  0.0237 -0.4767  0.3736
 4892TIP3    H136091   4.857   0.324   1.664  2.0659 -1.8645  1.2375
 4892TIP3    H236092   4.858   0.176   1.697 -1.9193 -2.2376  0.0164
 4893TIP3   OH236093   4.911   6.097  11.709 -0.0180 -0.3376  0.1523
 4893TIP3    H136094   4.887   6.109  11.618  0.1696  0.0337  0.1496
 4893TIP3    H236095   4.906   6.002  11.724  0.8625 -0.4914 -0.4995
 4894TIP3   OH236096   4.867   3.817  16.881 -0.1145  0.2093 -0.4373
 4894TIP3    H136097   4.889   3.724  16.889  0.1676  0.3385  0.3920
 4894TIP3    H236098   4.792   3.828  16.940  0.5326  0.7221  0.3031
 4895TIP3   OH236099   6.375   2.896   4.746  0.6758 -0.7553 -0.1870
 4895TIP3    H136100   6.418   2.862   4.824  0.5988 -1.4151 -0.4232
 4895TIP3    H236101   6.346   2.983   4.770 -0.7425 -1.5506  1.0261
 4896TIP3   OH236102   3.727   5.410  15.947  0.0906  0.0977 -0.6357
 4896TIP3    H136103   3.807   5.357  15.947 -0.8903 -1.4189 -0.8192
 4896TIP3    H236104   3.678   5.380  15.871 -1.1416  0.2613  0.0761
 4897TIP3   OH236105   4.361   0.882   0.948 -0.2248 -0.5464  0.7145
 4897TIP3    H136106   4.365   0.851   0.857 -0.7904  0.0951  0.4642
 4897TIP3    H236107   4.375   0.804   1.001 -0.2400 -0.9853  0.0742
 4898TIP3   OH236108   5.877   3.534  11.446  0.3767 -0.7869 -0.6243
 4898TIP3    H136109   5.904   3.503  11.533 -2.2017  1.6517  1.1250
 4898TIP3    H236110   5.860   3.627  11.457  0.2331 -0.3664 -3.8429
 4899TIP3   OH236111   6.043   5.575  14.260  0.6019  0.0449  0.5337
 4899TIP3    H136112   6.045   5.479  14.270 -1.4134  0.0913  1.8114
 4899TIP3    H236113   6.013   5.606  14.345 -0.9529  1.6707 -0.5869
 4900TIP3   OH236114   2.939   0.718   3.265  0.0724  0.2036  0.3144
 4900TIP3    H136115   2.991   0.639   3.278  1.3347  0.8650 -0.6527
 4900TIP3    H236116   2.859   0.686   3.223 -0.3927 -0.8287  1.9250
 4901TIP3   OH236117   2.003   4.734  11.264 -0.0619 -0.2393 -0.3134
 4901TIP3    H136118   1.968   4.820  11.285  0.7218  0.5451 -2.1318
 4901TIP3    H236119   2.009   4.733  11.169  0.7888 -1.9722 -0.2607
 4902TIP3   OH236120   3.503   6.402   5.549 -0.5363  0.4336 -0.0330
 4902TIP3    H136121   3.506   6.385   5.643 -0.5857  1.9563  0.2540
 4902TIP3    H236122   3.422   6.360   5.519 -1.1752  1.0587  0.8276
 4903TIP3   OH236123   3.156   3.745  13.512 -0.0553 -0.0124 -0.3540
 4903TIP3    H136124   3.150   3.702  13.427  2.2229 -1.6017  0.2289
 4903TIP3    H236125   3.239   3.793  13.509  0.0025 -0.0019  0.9172
 4904TIP3   OH236126   2.324   6.122   5.782 -0.4161 -0.1957 -0.2785
 4904TIP3    H136127   2.409   6.137   5.822 -0.8305  0.4257  0.3975
 4904TIP3    H236128   2.297   6.036   5.814  0.4753 -0.9346 -1.4563
 4905TIP3   OH236129   5.224   2.620   0.075 -0.0881  0.5847 -0.1895
 4905TIP3    H136130   5.159   2.686   0.101  1.3381  1.8633  0.1908
 4905TIP3    H236131   5.246   2.643  -0.015  0.8153  0.9748  0.1252
 4906TIP3   OH236132   1.441   3.521   3.471 -0.2889 -0.0687 -0.4433
 4906TIP3    H136133   1.359   3.539   3.424 -1.3761 -0.7639  1.1656
 4906TIP3    H236134   1.484   3.606   3.476 -1.2075  0.4290 -0.7496
 4907TIP3   OH236135   5.055   2.958  15.549  0.0941  0.1020 -0.3886
 4907TIP3    H136136   5.011   2.922  15.472  0.6020  1.4928 -1.3520
 4907TIP3    H236137   5.011   3.042  15.565  0.1734 -0.0475  0.6792
 4908TIP3   OH236138   3.264   2.462   5.311 -0.4800  0.3793  0.5952
 4908TIP3    H136139   3.224   2.392   5.362 -1.8648  0.5413 -0.2326
 4908TIP3    H236140   3.266   2.428   5.222  1.7853  0.1563  0.7014
 4909TIP3   OH236141   4.751   0.425  11.418 -0.1757  0.0655  0.9693
 4909TIP3    H136142   4.699   0.504  11.406 -0.6087 -0.2787  0.5311
 4909TIP3    H236143   4.751   0.383  11.332 -2.5919 -1.9785  1.8866
 4910TIP3   OH236144   6.687   1.931   4.733 -0.2456  0.2824  0.5966
 4910TIP3    H136145   6.630   1.880   4.791 -1.3453  1.8421  0.9087
 4910TIP3    H236146   6.639   1.937   4.651  0.2130  0.1910  0.3201
 4911TIP3   OH236147   1.809   2.789   3.400  0.5031  0.0128  0.3770
 4911TIP3    H136148   1.795   2.801   3.306 -0.2940 -2.2511  0.1578
 4911TIP3    H236149   1.724   2.759   3.433  0.7357  0.9340  1.8617
 4912TIP3   OH236150   2.116   3.037   3.368 -0.0537 -0.5586  0.3418
 4912TIP3    H136151   2.158   3.106   3.419  0.5042 -0.9436  0.4121
 4912TIP3    H236152   2.164   2.957   3.391  0.7737 -0.5971 -1.4395
 4913TIP3   OH236153   3.814   2.471  12.366  0.1799  0.3055  0.3075
 4913TIP3    H136154   3.839   2.550  12.318 -0.2657  0.3313  0.1214
 4913TIP3    H236155   3.719   2.473  12.368  0.1982  0.2507  1.1092
 4914TIP3   OH236156   0.786   0.145   3.419  0.1847  0.1382  0.3375
 4914TIP3    H136157   0.708   0.195   3.394 -0.3371  0.8072  3.1946
 4914TIP3    H236158   0.779   0.064   3.369 -1.3657  0.9745 -0.8522
 4915TIP3   OH236159   0.046   3.518   3.607 -0.8058 -0.5328  0.1066
 4915TIP3    H136160  -0.011   3.442   3.616 -0.0217 -1.0649  0.6480
 4915TIP3    H236161   0.049   3.556   3.695 -0.3589 -0.4842  0.0726
 4916TIP3   OH236162   1.394   2.592  17.066 -0.3570 -0.6104 -0.5705
 4916TIP3    H136163   1.385   2.661  17.000  0.7144 -0.2935 -0.3858
 4916TIP3    H236164   1.483   2.560  17.055 -0.2162 -0.6376  0.6469
 4917TIP3   OH236165   3.471   1.313  13.901  0.5941  0.3890 -0.1721
 4917TIP3    H136166   3.538   1.282  13.963  0.0202  0.3579  0.4371
 4917TIP3    H236167   3.395   1.258  13.919 -1.0036  3.1849  2.0442
 4918TIP3   OH236168   3.677   4.409  14.120  0.3983  0.2197  0.1582
 4918TIP3    H136169   3.642   4.340  14.064  1.7004  0.0799 -0.5185
 4918TIP3    H236170   3.608   4.475  14.123  0.3137  0.2417 -1.6426
 4919TIP3   OH236171   1.920   5.934   1.880  0.3292 -0.2841 -0.3684
 4919TIP3    H136172   1.828   5.953   1.899  0.4571 -1.8761  2.0236
 4919TIP3    H236173   1.969   5.999   1.929  0.5924 -3.0474  3.2465
 4920TIP3   OH236174   5.493   5.330   3.520  0.1774  0.2702 -0.5701
 4920TIP3    H136175   5.443   5.411   3.523 -1.0718 -0.5043  0.3598
 4920TIP3    H236176   5.458   5.278   3.592  0.5182 -1.3362 -1.5364
 4921TIP3   OH236177   5.635   1.800   0.638 -0.2262 -0.1954  0.0447
 4921TIP3    H136178   5.682   1.848   0.569 -0.1723 -0.4131 -0.0696
 4921TIP3    H236179   5.680   1.824   0.719 -0.7628  0.6701  0.1065
 4922TIP3   OH236180   4.889   2.522  13.458 -0.2131  0.0879  0.5499
 4922TIP3    H136181   4.817   2.484  13.407  0.6585  0.3484 -0.8939
 4922TIP3    H236182   4.878   2.616  13.451  0.8622  0.1412 -0.5433
 4923TIP3   OH236183   6.414   0.299  12.399  0.8007 -0.5630 -0.2083
 4923TIP3    H136184   6.386   0.333  12.484  0.3157 -0.6483 -0.3352
 4923TIP3    H236185   6.455   0.215  12.419 -2.1427 -2.0730 -0.3996
 4924TIP3   OH236186   2.717   1.156  15.104  0.3200 -0.8592  0.5578
 4924TIP3    H136187   2.719   1.213  15.028 -0.0727 -0.2375  1.0050
 4924TIP3    H236188   2.687   1.213  15.176  2.5184 -0.9479  1.5914
 4925TIP3   OH236189   5.446   2.059  11.136 -0.2467  0.2767  0.1704
 4925TIP3    H136190   5.500   2.063  11.057 -1.4783  0.5734 -0.6741
 4925TIP3    H236191   5.492   2.000  11.194  0.5668 -0.1194 -0.8693
 4926TIP3   OH236192   1.885   1.858  14.286 -0.0496  0.5957 -0.3269
 4926TIP3    H136193   1.812   1.805  14.317  0.0998  0.4308 -0.2499
 4926TIP3    H236194   1.922   1.807  14.213  1.4480 -0.4822  1.1561
 4927TIP3   OH236195   4.308   2.718  12.438 -0.5988  0.5642 -0.1485
 4927TIP3    H136196   4.392   2.712  12.392  0.0847  0.6552  1.0730
 4927TIP3    H236197   4.283   2.810  12.430 -1.5326  0.1814 -2.1287
 4928TIP3   OH236198   1.732   6.230  15.112  0.1045 -0.6651 -0.0026
 4928TIP3    H136199   1.717   6.190  15.026 -0.0061  1.1280 -0.8505
 4928TIP3    H236200   1.782   6.310  15.093 -0.1939 -0.0837  1.5665
 4929TIP3   OH236201   5.653   5.744   5.221  0.1173 -0.1422  0.5660
 4929TIP3    H136202   5.690   5.707   5.140  0.6534 -0.3432  0.9007
 4929TIP3    H236203   5.595   5.814   5.191 -0.3273 -0.7678 -0.0380
 4930TIP3   OH236204   6.368   2.231  16.857 -0.1746 -0.2022 -0.0531
 4930TIP3    H136205   6.294   2.292  16.853  2.0038  2.5660  0.3204
 4930TIP3    H236206   6.351   2.179  16.935 -1.9160  0.1304 -0.1815
 4931TIP3   OH236207   2.003   5.534   5.001  0.2718 -0.1257  0.1152
 4931TIP3    H136208   1.926   5.503   5.049 -0.1998 -1.2836 -1.3608
 4931TIP3    H236209   1.982   5.624   4.977 -0.5259 -0.3568 -0.0683
 4932TIP3   OH236210   5.362   4.344  13.817  0.0651 -0.3572  0.1241
 4932TIP3    H136211   5.436   4.389  13.777 -0.6293 -1.2647 -2.2955
 4932TIP3    H236212   5.285   4.384  13.777 -0.6759 -0.8614  1.0286
 4933TIP3   OH236213   4.803   6.476  11.596  0.3295  0.6564 -1.0513
 4933TIP3    H136214   4.871   6.541  11.614  0.7122 -0.1411  0.5067
 4933TIP3    H236215   4.726   6.527  11.571  0.6578  1.6887  0.0215
 4934TIP3   OH236216   4.628   4.463  12.196  0.5120  0.0541  0.3384
 4934TIP3    H136217   4.618   4.558  12.182 -0.0102  0.1391  1.2307
 4934TIP3    H236218   4.722   4.449  12.198  0.6533  1.0964  3.6056
 4935TIP3   OH236219   3.076   0.609   2.991 -0.9678 -1.2847  0.4589
 4935TIP3    H136220   3.091   0.590   3.084  0.3556 -0.1832  0.4988
 4935TIP3    H236221   3.149   0.566   2.947 -0.7323 -0.5054  0.0843
 4936TIP3   OH236222   6.020   0.321  13.786 -0.0908  0.0246  0.1304
 4936TIP3    H136223   5.955   0.252  13.799 -0.2142  0.3128  1.1111
 4936TIP3    H236224   5.968   0.401  13.775  0.0255 -0.1257 -1.7105
 4937TIP3   OH236225   5.244   1.701  12.807  0.2212 -0.0808 -0.1257
 4937TIP3    H136226   5.248   1.668  12.897  1.1765  1.2438  0.3444
 4937TIP3    H236227   5.335   1.727  12.787 -0.4901  2.3807 -0.3875
 4938TIP3   OH236228   5.066   0.038   0.326  0.6339  0.2302 -0.0769
 4938TIP3    H136229   5.099   0.044   0.237  1.0014 -1.3696 -0.0756
 4938TIP3    H236230   4.973   0.016   0.316  0.5407  0.6186 -0.0669
 4939TIP3   OH236231   0.667   6.606   0.140 -0.3303  0.3333 -0.2604
 4939TIP3    H136232   0.662   6.545   0.214  0.6334  0.0660 -0.4151
 4939TIP3    H236233   0.578   6.605   0.103 -1.0654  1.1388  1.4238
 4940TIP3   OH236234   1.425   6.205   0.908 -0.5325  0.1782 -0.2510
 4940TIP3    H136235   1.417   6.271   0.839 -0.5770  0.9772  0.5061
 4940TIP3    H236236   1.347   6.217   0.962  0.3437  0.7247  0.9296
 4941TIP3   OH236237   3.378   6.482  12.163 -0.3423 -0.0176  0.3542
 4941TIP3    H136238   3.355   6.485  12.070 -2.2859  1.1465  0.8663
 4941TIP3    H236239   3.297   6.457  12.207  0.7999 -1.5289  1.6833
 4942TIP3   OH236240   0.571   5.192  12.909  0.4497  0.4903  0.5228
 4942TIP3    H136241   0.556   5.111  12.958  0.3489  0.3289  0.2238
 4942TIP3    H236242   0.665   5.208  12.920  0.1988  1.1498  1.8385
 4943TIP3   OH236243   2.168   6.314  13.483  0.0013 -0.2022 -0.0134
 4943TIP3    H136244   2.208   6.321  13.569 -1.4408  0.0684  0.6374
 4943TIP3    H236245   2.233   6.352  13.424 -1.0907  4.4743  1.5659
 4944TIP3   OH236246   2.633   0.284   2.842  0.8144 -0.3231  0.2309
 4944TIP3    H136247   2.561   0.270   2.904 -0.7789 -1.4860 -1.8113
 4944TIP3    H236248   2.646   0.378   2.841 -0.0897 -0.1786  1.2761
 4945TIP3   OH236249   5.852   1.626   1.960 -0.1198 -0.5950 -0.1330
 4945TIP3    H136250   5.795   1.648   2.034 -0.6667 -0.2097 -0.6710
 4945TIP3    H236251   5.887   1.710   1.931  0.7418 -0.8295  0.2051
 4946TIP3   OH236252   3.038   6.301   1.887 -1.2141  0.0617  0.0172
 4946TIP3    H136253   3.069   6.352   1.962 -1.0097 -0.3908  0.2466
 4946TIP3    H236254   2.997   6.365   1.829  0.0056  0.6554 -0.2143
 4947TIP3   OH236255   3.868   5.161  12.400 -0.3685  0.3748 -0.2384
 4947TIP3    H136256   3.905   5.085  12.356  0.3218  0.4274  0.2561
 4947TIP3    H236257   3.853   5.225  12.330 -2.1039 -0.6676 -0.8427
 4948TIP3   OH236258   0.633   4.851  13.590 -0.2996 -0.3052  0.2152
 4948TIP3    H136259   0.673   4.903  13.519 -2.9388  1.2816 -0.1793
 4948TIP3    H236260   0.625   4.763  13.553  1.1027 -0.2196 -0.3496
 4949TIP3   OH236261   4.876   2.280  15.959 -0.4625 -0.4416  0.6873
 4949TIP3    H136262   4.920   2.311  15.880 -1.2203  0.0475  0.4547
 4949TIP3    H236263   4.863   2.359  16.011  0.8911 -0.8878  1.7380
 4950TIP3   OH236264   0.924   1.486   5.714  0.1822 -0.4994  0.1613
 4950TIP3    H136265   1.008   1.498   5.759  0.5265 -1.9200 -0.0677
 4950TIP3    H236266   0.873   1.432   5.775  0.4712 -2.0224 -0.9189
 4951TIP3   OH236267   2.835   2.831   0.993  0.5279 -0.8710 -0.2559
 4951TIP3    H136268   2.811   2.738   0.984  0.4213 -0.7897 -0.8845
 4951TIP3    H236269   2.848   2.860   0.903 -1.4211  0.2369 -0.2024
 4952TIP3   OH236270   0.896   3.242  13.007  0.1603 -0.5739  0.1940
 4952TIP3    H136271   0.809   3.210  13.031  0.8565 -1.2897  1.8179
 4952TIP3    H236272   0.941   3.165  12.972  0.1268 -0.1797 -0.7492
 4953TIP3   OH236273   4.416   6.132   0.099 -0.3416 -0.3537 -0.6865
 4953TIP3    H136274   4.460   6.163   0.178  0.9567 -0.4303 -1.3607
 4953TIP3    H236275   4.359   6.205   0.074  0.6764  0.4406 -0.7411
 4954TIP3   OH236276   0.295   5.747   3.408  0.1174 -0.1095  0.6319
 4954TIP3    H136277   0.240   5.709   3.477 -1.0583  1.7317  0.7724
 4954TIP3    H236278   0.258   5.713   3.327  0.8340 -1.4450  0.8537
 4955TIP3   OH236279   4.499   3.641   0.265 -0.1674  0.1901  0.7479
 4955TIP3    H136280   4.561   3.567   0.267 -0.5565 -0.2254 -1.2306
 4955TIP3    H236281   4.414   3.601   0.283 -0.2320  0.3139  0.7144
 4956TIP3   OH236282   6.028   0.855  17.173 -0.0362  0.4487 -0.3744
 4956TIP3    H136283   6.009   0.844  17.267 -1.7332  0.0356 -0.7524
 4956TIP3    H236284   6.035   0.950  17.162 -1.6211  0.6200 -0.1383
 4957TIP3   OH236285   6.538   2.424  16.257 -0.7352  0.7726 -0.2406
 4957TIP3    H136286   6.528   2.455  16.167 -2.1791  0.7191 -0.1093
 4957TIP3    H236287   6.631   2.433  16.276 -0.8159  3.1158 -0.8824
 4958TIP3   OH236288   2.259   3.783   2.010 -0.2403  0.5222  0.2315
 4958TIP3    H136289   2.219   3.753   1.929  1.5433  0.4594 -0.6508
 4958TIP3    H236290   2.292   3.871   1.989 -0.2042  0.7052  1.0413
 4959TIP3   OH236291   3.525   2.392   2.575  0.2804  0.2885 -0.4996
 4959TIP3    H136292   3.455   2.446   2.613  0.6429  0.4777 -0.1015
 4959TIP3    H236293   3.547   2.435   2.493  0.8159  0.9460 -0.0134
 4960TIP3   OH236294   3.924   3.255   6.503 -0.6551 -0.0391 -0.0225
 4960TIP3    H136295   3.936   3.222   6.592 -1.1898 -0.0509  0.0422
 4960TIP3    H236296   3.904   3.178   6.450 -2.0353  0.1900  0.1535
 4961TIP3   OH236297   0.676   1.545   2.691  0.0027 -0.8203 -0.2055
 4961TIP3    H136298   0.735   1.616   2.665  0.9417 -1.1874  0.9491
 4961TIP3    H236299   0.602   1.554   2.630 -0.3749  1.7781  0.5610
 4962TIP3   OH236300   0.773   2.156   5.986  0.1261 -0.1314 -0.3943
 4962TIP3    H136301   0.691   2.156   5.936 -0.1882 -1.1687  0.1070
 4962TIP3    H236302   0.745   2.142   6.077  0.8314 -0.1160 -0.1771
 4963TIP3   OH236303   0.990   0.948   3.883 -0.2148  0.1863  0.0894
 4963TIP3    H136304   1.038   0.918   3.960 -0.5942 -0.1182  0.2087
 4963TIP3    H236305   0.979   0.870   3.829  0.0864  0.4080 -0.2952
 4964TIP3   OH236306   0.175   2.918   5.933  0.1678 -0.7564  0.4627
 4964TIP3    H136307   0.200   2.970   6.009  0.8112 -2.2291  1.2628
 4964TIP3    H236308   0.238   2.943   5.865 -0.8351  1.0777  0.1675
 4965TIP3   OH236309   5.829   2.640   5.131 -0.3816 -0.1020  0.4014
 4965TIP3    H136310   5.892   2.683   5.073 -2.4421 -0.3925 -2.1472
 4965TIP3    H236311   5.859   2.549   5.136  0.1105  0.0483  0.2690
 4966TIP3   OH236312   5.485   0.990  16.548 -0.2860  0.2644 -0.0341
 4966TIP3    H136313   5.403   1.040  16.550 -0.5004 -0.1213  1.3180
 4966TIP3    H236314   5.462   0.905  16.584  0.3617 -0.4093 -1.1740
 4967TIP3   OH236315   5.860   6.509   2.253  0.2364  0.1601  0.4017
 4967TIP3    H136316   5.928   6.454   2.293  0.4967 -0.3248 -0.6943
 4967TIP3    H236317   5.908   6.574   2.202 -0.1132 -1.6933 -2.4009
 4968TIP3   OH236318   5.766   6.659   0.580  0.0430  0.0667 -0.4747
 4968TIP3    H136319   5.677   6.651   0.547  0.7608 -0.5823 -2.3166
 4968TIP3    H236320   5.779   6.753   0.593 -1.3070  0.0613  0.9777
 4969TIP3   OH236321   3.108   1.480  14.982  0.1856  0.2432  0.2388
 4969TIP3    H136322   3.017   1.489  15.010  0.3823  0.1858  0.9257
 4969TIP3    H236323   3.111   1.517  14.894  0.6997  5.7736  2.3936
 4970TIP3   OH236324   1.443   1.212  14.385 -0.4366  0.1560 -0.5061
 4970TIP3    H136325   1.474   1.162  14.460 -0.7094 -0.5527 -0.8589
 4970TIP3    H236326   1.416   1.146  14.321 -1.0068  0.7501 -0.8974
 4971TIP3   OH236327   5.585   3.040  11.175  0.1495  0.1526 -0.1096
 4971TIP3    H136328   5.661   3.096  11.157 -0.6285  1.0627 -0.6314
 4971TIP3    H236329   5.608   2.993  11.255  0.8351  1.2217  0.3411
 4972TIP3   OH236330   3.785   2.335   4.848  0.4754  0.2668 -0.3335
 4972TIP3    H136331   3.711   2.302   4.797  0.7754  0.0096 -0.6001
 4972TIP3    H236332   3.844   2.260   4.857  1.4007  0.8614 -1.3783
 4973TIP3   OH236333   6.763   4.765   3.423  0.2481  0.6205 -0.8308
 4973TIP3    H136334   6.750   4.843   3.477 -0.5727 -0.3950  0.4742
 4973TIP3    H236335   6.683   4.758   3.372 -0.1678 -0.0026 -0.1041
 4974TIP3   OH236336   6.407   6.227  11.792 -0.3546 -0.1350 -0.1346
 4974TIP3    H136337   6.441   6.242  11.703  0.0721 -2.0868 -0.3289
 4974TIP3    H236338   6.397   6.132  11.797 -2.0197  0.1060  1.3207
 4975TIP3   OH236339   2.919   3.495   3.762 -0.3552 -0.4515 -0.4996
 4975TIP3    H136340   2.906   3.574   3.813 -1.5154 -0.8427 -0.1855
 4975TIP3    H236341   2.965   3.524   3.683 -0.6916  0.5038 -0.3403
 4976TIP3   OH236342   6.354   6.489   4.351  0.6492  0.5517 -0.5913
 4976TIP3    H136343   6.367   6.558   4.285  0.7002 -0.2324 -1.4137
 4976TIP3    H236344   6.310   6.419   4.303 -1.2507  0.8207  0.7337
 4977TIP3   OH236345   5.681   1.053   4.250  0.2931  0.5498 -0.1417
 4977TIP3    H136346   5.733   1.130   4.270  0.2195  0.3276  0.9454
 4977TIP3    H236347   5.607   1.057   4.312 -0.2946  0.1950 -0.8123
 4978TIP3   OH236348   5.702   6.057   5.832  0.2594 -0.5498  0.4320
 4978TIP3    H136349   5.613   6.090   5.848 -0.1097  0.2259 -2.8409
 4978TIP3    H236350   5.758   6.134   5.835  0.0837 -0.2642 -2.3921
 4979TIP3   OH236351   5.382   4.379  12.001 -0.4487  0.7472  0.2067
 4979TIP3    H136352   5.329   4.387  11.922  1.4517 -1.1701 -1.3223
 4979TIP3    H236353   5.350   4.299  12.043 -2.2397  2.3799  2.0292
 4980TIP3   OH236354   0.403   3.766  11.942 -0.0298  0.6299 -0.5230
 4980TIP3    H136355   0.386   3.706  11.869 -0.7132  1.4261 -1.0411
 4980TIP3    H236356   0.451   3.838  11.901  0.3312  0.6774 -0.0108
 4981TIP3   OH236357   4.055   0.465  11.576  0.2025  0.6792  0.1619
 4981TIP3    H136358   4.061   0.456  11.671 -3.7270  1.0493  0.5583
 4981TIP3    H236359   4.048   0.375  11.543  1.0194  0.5724  0.2893
 4982TIP3   OH236360   1.533   1.048  14.909 -0.2224 -0.0332 -0.3793
 4982TIP3    H136361   1.629   1.046  14.907 -0.1921  0.3317  0.5879
 4982TIP3    H236362   1.507   0.989  14.837  0.7160  0.1958 -0.9202
 4983TIP3   OH236363   0.649   6.683   5.121 -0.0335  0.0695  0.1402
 4983TIP3    H136364   0.628   6.636   5.040  1.6249 -1.9903  0.8649
 4983TIP3    H236365   0.614   6.628   5.191  0.4611  0.7528  0.9340
 4984TIP3   OH236366   0.513   0.534   5.671  0.2584 -0.2315  0.0368
 4984TIP3    H136367   0.575   0.515   5.600  1.6361  1.4468  0.7514
 4984TIP3    H236368   0.441   0.472   5.657  0.9251 -0.5425 -2.2864
 4985TIP3   OH236369   1.137   0.881   1.901 -0.4327  0.2622 -0.8618
 4985TIP3    H136370   1.091   0.849   1.979 -1.0919  1.5175 -0.7107
 4985TIP3    H236371   1.116   0.818   1.832  0.6736 -1.2072  0.1332
 4986TIP3   OH236372   6.644   1.448  15.167  0.1827 -0.3425 -0.3548
 4986TIP3    H136373   6.710   1.497  15.216  0.5940 -0.3553 -0.8867
 4986TIP3    H236374   6.652   1.480  15.077 -0.4921 -0.3951 -0.4342
 4987TIP3   OH236375   4.516   3.699  16.223 -0.5045 -0.1945 -0.4436
 4987TIP3    H136376   4.503   3.784  16.183 -1.8259 -0.3260 -0.3249
 4987TIP3    H236377   4.470   3.705  16.307  1.2767 -0.2879  0.5517
 4988TIP3   OH236378   2.044   5.951  15.612  0.2478 -0.4618 -0.2413
 4988TIP3    H136379   1.949   5.963  15.610  0.4865  1.7397  0.4888
 4988TIP3    H236380   2.065   5.915  15.526 -1.1228 -0.0919 -0.7546
 4989TIP3   OH236381   3.304   0.222   3.416 -0.1873  0.7881  0.4456
 4989TIP3    H136382   3.209   0.228   3.408 -0.1907  1.7132  1.0792
 4989TIP3    H236383   3.332   0.182   3.334 -0.9862  1.9994 -0.4462
 4990TIP3   OH236384   0.040   1.092   1.171  0.2613 -0.3107  0.2974
 4990TIP3    H136385   0.008   1.121   1.085  1.7190 -0.0483 -0.1731
 4990TIP3    H236386   0.097   1.163   1.200  0.1987 -0.6467  1.2499
 4991TIP3   OH236387   1.725   2.340   5.109 -0.4557 -0.2017 -0.9493
 4991TIP3    H136388   1.672   2.260   5.101 -2.4034  0.9544 -0.1094
 4991TIP3    H236389   1.797   2.327   5.048  0.0425 -3.2039  0.2083
 4992TIP3   OH236390   4.257   2.351   3.934 -0.2295  0.4065 -0.2196
 4992TIP3    H136391   4.241   2.411   4.006  2.1319  0.5660  0.1990
 4992TIP3    H236392   4.279   2.407   3.860 -0.6729  0.1461 -0.5597
 4993TIP3   OH236393   0.695   3.134  14.691  0.3601  0.3739  0.3649
 4993TIP3    H136394   0.778   3.171  14.661  0.7506  0.5940  1.6924
 4993TIP3    H236395   0.628   3.194  14.656  0.7307  0.0839 -0.8722
 4994TIP3   OH236396   4.146   4.974   3.536  0.1381 -0.6550  0.1915
 4994TIP3    H136397   4.094   4.986   3.457  0.3092 -0.9478  0.0343
 4994TIP3    H236398   4.210   4.908   3.512  0.1753 -0.7581  0.5844
 4995TIP3   OH236399   5.030   3.138  15.057  0.2634  0.2837 -0.7683
 4995TIP3    H136400   5.045   3.227  15.088 -0.7014  0.4226 -0.6952
 4995TIP3    H236401   4.997   3.148  14.968  0.2418 -0.0000 -0.7939
 4996TIP3   OH236402   5.891   6.341  13.280 -0.4045  0.2689 -0.3895
 4996TIP3    H136403   5.960   6.353  13.214 -0.6412  2.1888 -0.3128
 4996TIP3    H236404   5.830   6.280  13.239  1.4894 -1.7419 -0.3345
 4997TIP3   OH236405   2.992   6.711  13.302  0.3105 -0.4502  0.7044
 4997TIP3    H136406   3.056   6.685  13.368  0.3328 -0.5560  0.6395
 4997TIP3    H236407   2.933   6.637  13.295 -0.2906 -0.0413  1.3486
 4998TIP3   OH236408   0.105   2.927  16.702  0.5373 -0.2277 -0.8132
 4998TIP3    H136409   0.167   3.000  16.697 -0.1803  0.4530  0.1992
 4998TIP3    H236410   0.097   2.908  16.795 -1.7014  0.4976 -0.8369
 4999TIP3   OH236411   1.469   0.250   0.674 -0.3614 -0.4024  0.1752
 4999TIP3    H136412   1.415   0.311   0.624  1.0260  1.3333  0.7252
 4999TIP3    H236413   1.530   0.213   0.610 -0.9397 -0.9103 -0.0843
 5000TIP3   OH236414   4.949   6.001   5.766 -0.2173 -0.1496  0.1433
 5000TIP3    H136415   4.866   5.954   5.763  0.6513 -1.8672  1.5517
 5000TIP3    H236416   4.984   5.981   5.853  2.1399 -0.3115 -0.8024
 5001TIP3   OH236417   3.052   2.314  12.878 -0.1532 -0.0055 -0.6038
 5001TIP3    H136418   3.099   2.326  12.961 -1.0422 -0.4520 -0.0233
 5001TIP3    H236419   3.007   2.230  12.888 -1.2058  0.4917 -1.0810
 5002TIP3   OH236420   1.688   4.133  13.604  0.0026  0.9846  1.0806
 5002TIP3    H136421   1.697   4.225  13.578 -2.0325  0.6132 -1.2343
 5002TIP3    H236422   1.619   4.099  13.546  1.6379 -2.3446  0.9664
 5003TIP3   OH236423   6.172   1.290  14.976 -0.0200  0.1238  0.0453
 5003TIP3    H136424   6.209   1.378  14.973  1.0757 -0.2913  1.1136
 5003TIP3    H236425   6.248   1.232  14.977 -0.6334 -0.7029  3.2077
 5004TIP3   OH236426   5.425   1.458  12.906 -0.4026  0.6972 -0.8579
 5004TIP3    H136427   5.481   1.444  12.982 -0.6361 -0.3878 -0.8749
 5004TIP3    H236428   5.337   1.434  12.935 -0.6124  0.9568 -1.2624
 5005TIP3   OH236429   0.873   5.128   3.075 -0.5077  0.1384  0.3179
 5005TIP3    H136430   0.807   5.063   3.052  0.9217 -1.6156  1.0353
 5005TIP3    H236431   0.937   5.124   3.004 -0.7762  1.2720  0.0075
 5006TIP3   OH236432   6.659   3.977  14.497  0.0358 -0.1661 -0.3335
 5006TIP3    H136433   6.607   4.031  14.438 -1.1475 -0.0612  0.7765
 5006TIP3    H236434   6.595   3.922  14.543  0.6049  1.5653  2.7124
 5007TIP3   OH236435   1.387   5.085  15.011 -0.2498 -0.0123 -0.2871
 5007TIP3    H136436   1.358   5.080  14.920  0.6908  0.1955 -0.5995
 5007TIP3    H236437   1.317   5.042  15.061 -1.3925  1.0568 -0.9604
 5008TIP3   OH236438   1.851   0.002   2.475 -0.1841  0.7242 -0.2602
 5008TIP3    H136439   1.944   0.026   2.472  0.1194 -0.1740  1.0497
 5008TIP3    H236440   1.835  -0.042   2.392  0.9965 -0.5584  0.1677
 5009TIP3   OH236441   6.123   3.134   4.558  0.4073 -0.0656 -0.0311
 5009TIP3    H136442   6.170   3.132   4.641  0.2144  0.1179  0.0816
 5009TIP3    H236443   6.176   3.191   4.502  2.1231 -2.4929 -0.9798
 5010TIP3   OH236444   1.416   6.217  16.485  0.3013 -0.5175  0.0310
 5010TIP3    H136445   1.323   6.196  16.501 -0.2070  1.0075 -0.8543
 5010TIP3    H236446   1.464   6.146  16.528 -1.2354 -0.3970  2.0263
 5011TIP3   OH236447   0.856   1.571  16.005  0.1677  0.0506 -0.4034
 5011TIP3    H136448   0.805   1.649  15.987 -1.5472 -1.3415 -1.8459
 5011TIP3    H236449   0.943   1.589  15.969 -0.5518  0.8637 -1.7392
 5012TIP3   OH236450   3.743   1.423   6.329  0.1703  0.3158  0.4262
 5012TIP3    H136451   3.718   1.335   6.301 -0.1447 -0.3574  2.7092
 5012TIP3    H236452   3.661   1.464   6.357  0.3526  1.2665 -0.3767
 5013TIP3   OH236453   3.219   6.152   0.549  0.5684 -0.2988 -0.4542
 5013TIP3    H136454   3.215   6.180   0.457 -0.7462  0.5534 -0.1550
 5013TIP3    H236455   3.128   6.159   0.579  0.9988 -0.5777  0.9138
 5014TIP3   OH236456   0.410   6.676   4.694  0.3197  0.5337 -0.1994
 5014TIP3    H136457   0.445   6.649   4.609 -1.2810  0.2498 -0.7881
 5014TIP3    H236458   0.445   6.612   4.756  1.5678  0.7913 -0.6226
 5015TIP3   OH236459   0.695   0.375   3.686 -0.3747  0.2634  0.4418
 5015TIP3    H136460   0.705   0.295   3.738  1.7642 -0.4951 -1.0779
 5015TIP3    H236461   0.691   0.445   3.751  0.7355 -0.8118  1.6932
 5016TIP3   OH236462   4.139   2.885  11.835 -0.0921 -0.1468  0.5678
 5016TIP3    H136463   4.132   2.967  11.785 -1.6703 -0.5289  0.1458
 5016TIP3    H236464   4.073   2.892  11.903 -1.9249 -2.0527 -0.9214
 5017TIP3   OH236465   0.866   3.206  11.371  0.3947  0.2090 -0.0156
 5017TIP3    H136466   0.893   3.262  11.443 -1.0148  0.1947  0.5288
 5017TIP3    H236467   0.789   3.249  11.334  1.3760  0.4797 -1.8248
 5018TIP3   OH236468   6.160   2.516  13.314  0.1415 -0.1495 -0.2541
 5018TIP3    H136469   6.076   2.528  13.358  0.8886  1.3359  0.8400
 5018TIP3    H236470   6.150   2.560  13.230 -0.0792  0.3408  0.0233
 5019TIP3   OH236471   0.555   4.967  13.086 -0.1706  0.5436 -0.2755
 5019TIP3    H136472   0.612   4.893  13.065 -1.9915 -1.5659  1.8950
 5019TIP3    H236473   0.594   5.007  13.163 -1.1364 -0.4516  0.7638
 5020TIP3   OH236474   3.512   1.297   0.060  0.1267 -0.5662  0.1841
 5020TIP3    H136475   3.472   1.379   0.088  1.2825  0.4566 -1.1205
 5020TIP3    H236476   3.567   1.271   0.134 -1.5993 -1.1169  1.3150
 5021TIP3   OH236477   0.420   4.747   1.524 -0.1771 -0.0777 -0.3195
 5021TIP3    H136478   0.339   4.716   1.564  0.0475 -0.2147  0.0355
 5021TIP3    H236479   0.397   4.765   1.433 -1.0204  1.5281  0.1881
 5022TIP3   OH236480   6.750   2.237  13.892  0.2991 -0.2538  0.2405
 5022TIP3    H136481   6.722   2.146  13.890  0.0713 -0.2284  1.6087
 5022TIP3    H236482   6.701   2.279  13.822 -1.4159 -0.6888  1.1432
 5023TIP3   OH236483   6.169   1.942   6.523 -0.2374 -0.1558  0.3355
 5023TIP3    H136484   6.117   1.916   6.599  0.3671  0.5764  1.0083
 5023TIP3    H236485   6.106   1.943   6.450 -1.4415  1.9719  1.3793
 5024TIP3   OH236486   1.249   5.066   0.915  0.1140 -0.0587 -0.3882
 5024TIP3    H136487   1.245   5.073   1.011 -0.9866  0.5133 -0.4676
 5024TIP3    H236488   1.256   5.157   0.885  1.1452 -0.2792 -0.8249
 5025TIP3   OH236489   1.914   4.159  15.221 -1.0410  0.4820 -0.4777
 5025TIP3    H136490   1.944   4.172  15.131 -1.7049 -1.2241 -0.9538
 5025TIP3    H236491   1.826   4.196  15.222 -1.3216 -0.1686 -0.7348
 5026TIP3   OH236492   2.820   2.736   4.631  0.4610 -0.6324 -0.6513
 5026TIP3    H136493   2.789   2.738   4.721  0.5784 -0.7498 -0.6064
 5026TIP3    H236494   2.907   2.695   4.637  0.8160  0.1055 -0.7130
 5027TIP3   OH236495   5.609   2.877  15.026  0.2004  0.2142 -0.4105
 5027TIP3    H136496   5.633   2.877  15.119  0.0158  0.0703 -0.3626
 5027TIP3    H236497   5.547   2.804  15.017 -0.3922  0.7292 -0.4880
 5028TIP3   OH236498   3.072   3.058  11.271 -0.4972 -0.1258  0.6915
 5028TIP3    H136499   3.159   3.090  11.246  0.4824 -0.7555  3.1505
 5028TIP3    H236500   3.011   3.124  11.236  1.0007  0.7304 -0.3730
 5029TIP3   OH236501   2.511   5.162  16.626 -0.2285 -0.6068  0.0905
 5029TIP3    H136502   2.588   5.111  16.650  1.8256  2.3543  0.0335
 5029TIP3    H236503   2.475   5.117  16.549  2.0816 -1.4367 -0.5437
 5030TIP3   OH236504   1.308   3.076  11.564 -0.4139  0.2414  0.1526
 5030TIP3    H136505   1.393   3.118  11.574 -0.1383 -0.4105  0.5657
 5030TIP3    H236506   1.275   3.067  11.653 -1.6067  1.8783 -0.0938
 5031TIP3   OH236507   6.747   2.583  15.788  0.5039 -0.0749 -0.9404
 5031TIP3    H136508   6.675   2.533  15.749  1.5519 -1.9052 -0.6009
 5031TIP3    H236509   6.820   2.571  15.726  1.5726 -1.3016  0.5243
 5032TIP3   OH236510   0.209   0.032   6.595  0.3789 -0.5940 -0.0840
 5032TIP3    H136511   0.304   0.027   6.590  0.3841  0.8721 -1.7050
 5032TIP3    H236512   0.191   0.113   6.643 -0.0700 -0.9989  0.4531
 5033TIP3   OH236513   1.615   4.053  15.709  0.2372  0.2835  0.5056
 5033TIP3    H136514   1.640   4.062  15.801  1.6852  2.2174 -0.0257
 5033TIP3    H236515   1.628   3.960  15.690  1.0389  0.0702  1.9522
 5034TIP3   OH236516   0.241   2.197  11.936  0.5634 -0.0713 -0.5524
 5034TIP3    H136517   0.287   2.251  12.000  1.1501 -2.4794  1.1319
 5034TIP3    H236518   0.302   2.191  11.862  1.1985  0.1771 -0.0603
 5035TIP3   OH236519   4.661   2.574   2.455  0.3696  0.2123  0.1265
 5035TIP3    H136520   4.705   2.509   2.401  0.4177  0.4575 -0.1270
 5035TIP3    H236521   4.730   2.613   2.508  0.1233 -1.0316  1.4094
 5036TIP3   OH236522   5.587   1.326   6.213 -0.5648  0.6122  0.1541
 5036TIP3    H136523   5.633   1.246   6.184 -0.4773  0.6592  0.1629
 5036TIP3    H236524   5.536   1.298   6.288 -1.6979  0.2250 -0.7407
 5037TIP3   OH236525   3.505   6.492  11.323  0.3386 -0.1737  0.5411
 5037TIP3    H136526   3.503   6.399  11.300 -1.4641 -0.5319  1.9778
 5037TIP3    H236527   3.582   6.527  11.278 -0.1640 -1.8882 -1.7368
 5038TIP3   OH236528   2.185   2.005  16.589  0.0474  0.4064  0.3447
 5038TIP3    H136529   2.090   1.995  16.583  0.2531 -0.7248 -1.5321
 5038TIP3    H236530   2.200   2.048  16.673 -2.1997  1.7765  0.0638
 5039TIP3   OH236531   2.070   1.803   3.248  0.5880  0.3507 -0.5772
 5039TIP3    H136532   1.980   1.833   3.259  0.9871  1.3242  0.1133
 5039TIP3    H236533   2.100   1.843   3.166  1.0939  1.7831  0.3038
 5040TIP3   OH236534   3.661   2.718   3.469  0.0306 -0.3988 -0.3296
 5040TIP3    H136535   3.606   2.704   3.392 -0.1794 -1.0500 -0.0597
 5040TIP3    H236536   3.750   2.724   3.433 -0.0936 -0.4361 -0.6486
 5041TIP3   OH236537   5.798   3.164  12.607 -0.6361 -0.1625  0.0263
 5041TIP3    H136538   5.844   3.199  12.683  2.4445 -0.1594 -1.7185
 5041TIP3    H236539   5.800   3.069  12.619 -1.3442 -0.1053  0.5967
 5042TIP3   OH236540   2.846   3.089  11.906  0.0845  0.1320 -0.6149
 5042TIP3    H136541   2.801   3.049  11.831  2.2660 -2.1515 -0.7779
 5042TIP3    H236542   2.847   3.183  11.886 -2.8693  0.0210 -1.5058
 5043TIP3   OH236543   4.417   6.655  12.941  0.0376  0.1538  0.6517
 5043TIP3    H136544   4.362   6.733  12.937  0.7012  0.5621 -0.5821
 5043TIP3    H236545   4.360   6.589  12.981 -1.2657  0.6638 -0.3029
 5044TIP3   OH236546   0.720   1.431  16.472  0.2664  0.3065 -0.5179
 5044TIP3    H136547   0.806   1.472  16.479  0.4940 -0.3451  0.5874
 5044TIP3    H236548   0.681   1.440  16.559 -0.8989  0.8316 -1.0781
 5045TIP3   OH236549   3.084   6.402   0.945 -0.0774  0.2451 -0.1865
 5045TIP3    H136550   3.110   6.311   0.959  0.4849  0.4637  0.2215
 5045TIP3    H236551   3.167   6.447   0.927 -0.0888  1.0965  1.8171
 5046TIP3   OH236552   4.699   0.330   2.649  0.5229  0.1101 -0.3579
 5046TIP3    H136553   4.732   0.369   2.729 -1.2876  0.5597  0.1942
 5046TIP3    H236554   4.728   0.389   2.579  0.6051  0.6601  0.1457
 5047TIP3   OH236555   6.748   2.573  14.665  0.3834 -0.8178 -0.5976
 5047TIP3    H136556   6.668   2.603  14.622 -0.2932 -0.7319  0.6757
 5047TIP3    H236557   6.716   2.518  14.737  1.4882 -1.1364 -0.3480
 5048TIP3   OH236558   0.737   3.625  11.196  0.0094 -0.6241 -0.3653
 5048TIP3    H136559   0.747   3.627  11.101  0.6929  1.2323 -0.2852
 5048TIP3    H236560   0.704   3.712  11.218  1.9673 -0.2604  1.3075
 5049TIP3   OH236561   4.000   3.032   1.601  0.2155 -0.2524 -0.0520
 5049TIP3    H136562   4.014   3.063   1.512  1.7776 -0.2352  0.1819
 5049TIP3    H236563   4.034   2.943   1.601 -0.2021 -0.4110  0.4044
 5050TIP3   OH236564   2.560   3.338   5.740 -0.4225 -0.2147 -0.3455
 5050TIP3    H136565   2.575   3.413   5.797 -1.2222 -0.2824 -0.0458
 5050TIP3    H236566   2.513   3.373   5.665  0.0293 -0.2513 -0.6487
 5051TIP3   OH236567   5.247   2.289   0.812  0.2088 -0.3435  0.1940
 5051TIP3    H136568   5.199   2.346   0.873  0.7313 -0.4221  0.6833
 5051TIP3    H236569   5.265   2.210   0.862 -1.3310 -1.3334 -0.7871
 5052TIP3   OH236570   5.893   2.158   3.917 -0.9113 -0.3251  0.6019
 5052TIP3    H136571   5.821   2.149   3.980 -0.4720 -0.8584  1.0362
 5052TIP3    H236572   5.874   2.092   3.850 -2.2261  1.3058 -0.6711
 5053TIP3   OH236573   1.262   5.224   1.203 -0.1370  0.3361 -0.4812
 5053TIP3    H136574   1.249   5.262   1.116 -1.5620 -0.6807 -0.7303
 5053TIP3    H236575   1.356   5.229   1.217 -0.0825  2.1563 -1.3179
 5054TIP3   OH236576   0.887   2.028   3.731  0.0794 -0.4260  0.2943
 5054TIP3    H136577   0.809   1.973   3.724  1.0018 -1.5951 -1.1030
 5054TIP3    H236578   0.886   2.060   3.821 -0.8782 -2.1454  0.9203
 5055TIP3   OH236579   1.925   3.835  13.289  0.3816  0.2063 -0.3585
 5055TIP3    H136580   1.920   3.762  13.228 -0.0253 -1.5890  1.7455
 5055TIP3    H236581   1.835   3.845  13.321  0.5911  1.1009 -0.0268
 5056TIP3   OH236582   6.464   1.605  12.674 -0.0075 -0.3389 -0.2304
 5056TIP3    H136583   6.548   1.601  12.720 -0.7773  0.1138  1.2167
 5056TIP3    H236584   6.465   1.528  12.617  1.3184 -0.4319 -0.1070
 5057TIP3   OH236585   2.209   0.474  15.108 -0.4171 -0.7619 -0.0374
 5057TIP3    H136586   2.215   0.535  15.035  1.4273 -0.6734  0.1613
 5057TIP3    H236587   2.159   0.400  15.074 -0.0505 -0.4698 -1.2185
 5058TIP3   OH236588   1.221   0.266   4.584  0.5226  0.4349  0.3729
 5058TIP3    H136589   1.244   0.311   4.503  0.4777 -1.0142 -0.4455
 5058TIP3    H236590   1.128   0.247   4.576  0.6222 -0.1394  0.5477
 5059TIP3   OH236591   1.364   1.916   2.835 -0.5990 -0.2494 -0.0019
 5059TIP3    H136592   1.417   1.966   2.774 -0.4810 -2.1898 -1.5545
 5059TIP3    H236593   1.277   1.912   2.794 -0.8801 -0.4087  0.6015
 5060TIP3   OH236594   4.830   0.665  13.904 -0.9110  0.4581 -0.1381
 5060TIP3    H136595   4.834   0.758  13.883  1.1316  0.4106 -0.0565
 5060TIP3    H236596   4.891   0.624  13.842 -2.4362 -0.9455 -0.7450
 5061TIP3   OH236597   4.331   4.196  10.759 -0.4625 -0.6596  0.2145
 5061TIP3    H136598   4.269   4.248  10.810 -0.9391 -0.8887 -0.1315
 5061TIP3    H236599   4.357   4.125  10.818 -0.2123 -0.3300  0.5032
 5062TIP3   OH236600   1.785   2.493   2.162 -0.1943  0.0352  0.4251
 5062TIP3    H136601   1.832   2.495   2.246  1.2114  1.1154 -0.3733
 5062TIP3    H236602   1.764   2.584   2.143 -0.6819 -0.2230 -0.3086
 5063TIP3   OH236603   3.912   2.743  11.102 -0.0600 -0.2563  0.6283
 5063TIP3    H136604   3.950   2.667  11.146  0.8070  0.2516  0.7737
 5063TIP3    H236605   3.919   2.813  11.167  2.6357  0.8966 -0.7967
 5064TIP3   OH236606   4.019   3.990   5.883  0.2123  0.0474  0.4516
 5064TIP3    H136607   4.111   4.008   5.861  0.0372 -0.1525 -0.4913
 5064TIP3    H236608   4.023   3.946   5.968  1.1733 -1.9447 -0.5659
 5065TIP3   OH236609   0.934   5.927   3.767  0.4126  0.4398  0.1183
 5065TIP3    H136610   1.022   5.950   3.795  0.7119 -0.6109  0.0769
 5065TIP3    H236611   0.929   5.956   3.676  0.1798  1.8931  0.5813
 5066TIP3   OH236612   2.075   0.168  13.529 -0.0522 -0.2048 -0.3457
 5066TIP3    H136613   2.134   0.217  13.585 -1.3155 -1.5120  2.2025
 5066TIP3    H236614   1.998   0.224  13.521 -0.1649 -0.3336 -0.1676
 5067TIP3   OH236615   2.063   6.622   4.356  0.4261 -0.0262 -0.1448
 5067TIP3    H136616   2.065   6.587   4.445  0.6758  0.9066  0.2323
 5067TIP3    H236617   1.970   6.627   4.334  0.3882 -0.7837 -0.1463
 5068TIP3   OH236618   5.539   3.843  12.827 -0.4235  0.7883 -0.1696
 5068TIP3    H136619   5.444   3.850  12.836 -0.3847 -1.2739  2.5051
 5068TIP3    H236620   5.558   3.751  12.846  2.2745  1.5314  0.9478
 5069TIP3   OH236621   5.413   6.547  12.736  0.1183  0.0273 -0.6056
 5069TIP3    H136622   5.356   6.624  12.732  1.5284  1.4307  3.1031
 5069TIP3    H236623   5.361   6.480  12.779  0.5492  0.6472  0.9185
 5070TIP3   OH236624   3.824   5.658   0.727  0.8193  0.0777  0.0744
 5070TIP3    H136625   3.892   5.670   0.661  1.5766 -2.1216  0.4141
 5070TIP3    H236626   3.810   5.563   0.730 -0.7109  0.3242  1.5695
 5071TIP3   OH236627   4.122   1.796   3.021  0.5783 -0.6504  0.0450
 5071TIP3    H136628   4.050   1.775   2.961  1.1015  0.7717 -1.1077
 5071TIP3    H236629   4.125   1.721   3.081 -1.7044 -0.8363 -0.0128
 5072TIP3   OH236630   3.084   4.961   0.441  0.4966 -0.6172  0.0564
 5072TIP3    H136631   3.022   4.893   0.468  0.8130 -0.6190  0.7831
 5072TIP3    H236632   3.168   4.915   0.434  0.2523 -0.8379 -1.8967
 5073TIP3   OH236633   4.487   0.271  12.955  0.1351 -0.1667 -0.2742
 5073TIP3    H136634   4.405   0.306  12.989  0.1582 -0.5403  0.1720
 5073TIP3    H236635   4.490   0.301  12.864  0.4632  1.5565  0.2761
 5074TIP3   OH236636   1.658   0.765  15.074  0.8900 -0.2147 -0.9294
 5074TIP3    H136637   1.575   0.728  15.104  0.8404  0.3831 -0.3055
 5074TIP3    H236638   1.665   0.848  15.121  1.4784  0.0927 -1.5541
 5075TIP3   OH236639   0.108   3.357   0.838 -0.1067  0.4963 -0.4913
 5075TIP3    H136640   0.105   3.297   0.763  0.0757 -0.5212  0.2993
 5075TIP3    H236641   0.202   3.367   0.856 -0.1217  1.3565 -0.8827
 5076TIP3   OH236642   2.758   2.660  16.268  0.0916 -0.3220 -0.1981
 5076TIP3    H136643   2.730   2.696  16.352 -2.3603  1.5780 -1.7692
 5076TIP3    H236644   2.715   2.575  16.263 -0.1752 -0.2099  0.2055
 5077TIP3   OH236645   1.908   3.599  13.521  0.5130 -0.3105 -0.3542
 5077TIP3    H136646   1.900   3.591  13.426 -1.0023  0.5407 -0.3111
 5077TIP3    H236647   1.841   3.664  13.545 -0.7896 -2.3149  1.5736
 5078TIP3   OH236648   4.669   6.563   0.990  0.9046 -0.3801  0.1927
 5078TIP3    H136649   4.604   6.525   0.931  0.4734 -0.3107  0.6290
 5078TIP3    H236650   4.751   6.520   0.964  0.8258  0.1014 -0.8625
 5079TIP3   OH236651   5.100   3.148  15.883  0.3299  0.1692 -0.2734
 5079TIP3    H136652   5.145   3.204  15.947 -0.6423  2.1183 -1.2641
 5079TIP3    H236653   5.167   3.129  15.817  0.8965 -0.5689  0.4886
 5080TIP3   OH236654   1.724   5.170   2.354  1.1304  0.2226  0.0893
 5080TIP3    H136655   1.664   5.148   2.425 -0.2976  1.0870 -0.8249
 5080TIP3    H236656   1.755   5.086   2.322  0.5407 -0.2268  0.6880
 5081TIP3   OH236657   5.016   3.594   4.575 -0.4632  0.0164 -0.0047
 5081TIP3    H136658   4.970   3.540   4.639  0.0690  1.0539  1.2686
 5081TIP3    H236659   5.102   3.610   4.614 -0.2595  0.9513 -0.8054
 5082TIP3   OH236660   6.577   4.129  12.501  0.3844  0.3328 -0.5914
 5082TIP3    H136661   6.621   4.065  12.557 -0.6740  0.1837  0.0828
 5082TIP3    H236662   6.638   4.143  12.429  2.4241  1.5963  1.3141
 5083TIP3   OH236663   2.329   4.719   6.274  0.2388 -0.0457  0.8399
 5083TIP3    H136664   2.385   4.792   6.249  1.2899 -0.0877  2.9618
 5083TIP3    H236665   2.298   4.683   6.191 -0.0322  2.5930 -0.2287
 5084TIP3   OH236666   3.150   4.776  13.910 -0.1833 -0.4669 -0.6318
 5084TIP3    H136667   3.074   4.757  13.964 -0.8712  2.0953 -0.6266
 5084TIP3    H236668   3.212   4.705  13.929 -1.6361 -1.2877  1.1325
 5085TIP3   OH236669   6.285   0.853  11.174 -0.1815 -0.1561 -0.0743
 5085TIP3    H136670   6.216   0.910  11.140  0.8547  1.8171  1.0273
 5085TIP3    H236671   6.343   0.838  11.099 -0.7552 -0.2306 -0.5079
 5086TIP3   OH236672   1.108   6.751  11.452 -0.2128  0.1349  0.0465
 5086TIP3    H136673   1.097   6.739  11.358  2.4240 -0.9841 -0.1577
 5086TIP3    H236674   1.123   6.664  11.486  0.3872  0.7194  1.2975
 5087TIP3   OH236675   3.377   3.394  13.255 -0.1454 -0.2888  0.2145
 5087TIP3    H136676   3.424   3.370  13.175  0.0979 -0.0926  0.2966
 5087TIP3    H236677   3.433   3.361  13.325 -0.5159 -0.7485  0.2994
 5088TIP3   OH236678   0.883   4.628   5.548  0.3288 -0.3588 -0.2462
 5088TIP3    H136679   0.818   4.580   5.599 -0.0427 -0.8466 -1.1627
 5088TIP3    H236680   0.846   4.715   5.537 -0.1019 -0.5872 -0.6305
 5089TIP3   OH236681   3.372   2.550  12.191 -0.0939  0.3905 -0.4424
 5089TIP3    H136682   3.336   2.573  12.105 -0.6299 -0.8597 -0.5598
 5089TIP3    H236683   3.296   2.543  12.248  0.2191  0.7028  0.0074
 5090TIP3   OH236684   5.010   3.892   5.952  0.0299  0.1078  0.2037
 5090TIP3    H136685   5.017   3.799   5.969  0.8562  0.4171  1.6146
 5090TIP3    H236686   4.956   3.925   6.024  1.9685  1.1329  1.2274
 5091TIP3   OH236687   2.195   3.036   1.356 -0.5648 -0.0676 -0.3123
 5091TIP3    H136688   2.270   3.029   1.297  0.3606 -0.9767  0.9437
 5091TIP3    H236689   2.123   2.994   1.309  0.2205 -0.9720 -0.7085
 5092TIP3   OH236690   1.669   1.285   2.679 -0.0809  0.2175  0.6047
 5092TIP3    H136691   1.576   1.283   2.654  0.0015 -2.3652  0.3701
 5092TIP3    H236692   1.705   1.205   2.641  2.3141  1.3326  0.4826
 5093TIP3   OH236693   3.825   5.382   5.000 -0.0888 -0.3515  0.0571
 5093TIP3    H136694   3.792   5.296   5.028  0.0716 -0.4547 -0.0744
 5093TIP3    H236695   3.805   5.386   4.907  2.2041 -1.3020 -0.5036
 5094TIP3   OH236696   2.395   1.228  15.216  0.2922  0.1254 -0.2490
 5094TIP3    H136697   2.337   1.233  15.292 -0.7990 -1.4100 -0.9742
 5094TIP3    H236698   2.469   1.286  15.239 -0.2975  0.1278  1.7208
 5095TIP3   OH236699   1.390   3.933   3.552  0.1207 -0.0389 -0.5057
 5095TIP3    H136700   1.429   3.853   3.519 -1.0903 -1.1684  0.7429
 5095TIP3    H236701   1.398   3.996   3.480  1.1635 -1.2525 -1.4441
 5096TIP3   OH236702   4.103   1.562  12.740 -0.3249  0.2017 -0.3705
 5096TIP3    H136703   4.162   1.637  12.749  0.4301 -0.4691  0.4541
 5096TIP3    H236704   4.074   1.545  12.830 -0.4473 -0.5218 -0.5481
 5097TIP3   OH236705   0.192   2.453   5.175  0.6208  0.0029  0.4790
 5097TIP3    H136706   0.247   2.419   5.246  1.3595  0.5572  0.1814
 5097TIP3    H236707   0.121   2.500   5.221  0.6223 -0.3530  0.8558
 5098TIP3   OH236708   0.819   2.544  15.194 -0.8296 -0.4008  0.1817
 5098TIP3    H136709   0.898   2.541  15.139 -1.2182  0.2690 -0.4267
 5098TIP3    H236710   0.747   2.528  15.133 -1.3643  1.5531  0.2592
 5099TIP3   OH236711   2.317   0.622  12.052 -0.3365  0.2107  0.0611
 5099TIP3    H136712   2.340   0.649  11.963  0.4720  2.1595  0.8342
 5099TIP3    H236713   2.248   0.556  12.040  0.5527 -0.3718 -2.0362
 5100TIP3   OH236714   1.588   4.900  13.398 -0.7518  0.3029 -0.5174
 5100TIP3    H136715   1.659   4.949  13.440 -1.7342 -0.3570  2.0131
 5100TIP3    H236716   1.530   4.967  13.362 -0.8413  0.9599  0.8221
 5101TIP3   OH236717   3.774   3.295  13.012  0.6747  0.1348 -0.0413
 5101TIP3    H136718   3.791   3.340  12.929 -1.2663  1.5303  0.2848
 5101TIP3    H236719   3.708   3.229  12.991 -0.4500  1.0529  0.5299
 5102TIP3   OH236720   6.412   3.880   0.999 -0.3024  0.4020  0.3248
 5102TIP3    H136721   6.500   3.869   1.034 -0.4096 -0.1510  0.4201
 5102TIP3    H236722   6.408   3.820   0.925 -1.0830 -0.6392  1.1961
 5103TIP3   OH236723   0.158   0.961   3.088 -0.2362  0.5506  0.4547
 5103TIP3    H136724   0.070   0.961   3.125  0.2144  0.7400  1.5643
 5103TIP3    H236725   0.171   0.871   3.058 -1.5442  1.0149 -1.5753
 5104TIP3   OH236726   5.225   0.589  12.431  0.0222  0.3788  0.3241
 5104TIP3    H136727   5.213   0.555  12.342 -2.4090  0.4930  0.5762
 5104TIP3    H236728   5.136   0.592  12.467  1.0486 -0.3488  3.0114
 5105TIP3   OH236729   1.269   3.599  17.154 -0.2387 -0.0376 -0.5840
 5105TIP3    H136730   1.175   3.585  17.167 -0.0515  0.9427  2.3730
 5105TIP3    H236731   1.310   3.552  17.226  1.5082  0.1037 -1.4590
 5106TIP3   OH236732   4.295   5.168  10.568  0.2634 -0.6517  0.5972
 5106TIP3    H136733   4.358   5.171  10.495  0.1290  0.0676  0.5025
 5106TIP3    H236734   4.281   5.260  10.591 -0.8715 -0.7991  0.5197
 5107TIP3   OH236735   6.185   1.689  13.426  0.9961  0.3237  0.0541
 5107TIP3    H136736   6.230   1.718  13.504 -0.9873 -2.0642  2.1823
 5107TIP3    H236737   6.244   1.624  13.387  0.8029 -0.4805  1.0846
 5108TIP3   OH236738   1.570   1.040   3.188  0.1528 -0.4124 -0.0109
 5108TIP3    H136739   1.582   1.102   3.261  0.2119 -1.4606  0.8893
 5108TIP3    H236740   1.592   1.090   3.110  1.2378  0.4005  0.7982
 5109TIP3   OH236741   1.377   1.186   0.114  0.3878 -0.1391  0.4890
 5109TIP3    H136742   1.328   1.114   0.153 -1.1336 -0.3498 -1.7032
 5109TIP3    H236743   1.317   1.261   0.120  0.3743 -0.0321 -0.8373
 5110TIP3   OH236744   1.882   5.180  14.466 -0.3165 -0.7201 -0.2607
 5110TIP3    H136745   1.892   5.213  14.555  1.1824 -1.7047 -0.0564
 5110TIP3    H236746   1.971   5.170  14.433 -0.8592  1.1923 -2.4862
 5111TIP3   OH236747   6.436   1.364   3.036 -0.0557 -0.4014  0.2603
 5111TIP3    H136748   6.406   1.289   3.087 -1.4949 -0.5301 -0.7324
 5111TIP3    H236749   6.531   1.362   3.043 -0.1249 -1.8283  0.9188
 5112TIP3   OH236750   3.693   3.220   3.041 -0.2251 -0.7264 -0.3843
 5112TIP3    H136751   3.715   3.313   3.045  0.2626 -0.8478 -0.1186
 5112TIP3    H236752   3.613   3.212   3.093 -0.0977 -0.4991 -0.1497
 5113TIP3   OH236753   4.184   1.862   5.364  0.1447 -0.2187  0.0210
 5113TIP3    H136754   4.155   1.945   5.402  1.9195 -0.4014  1.9002
 5113TIP3    H236755   4.215   1.811   5.440  0.2384 -2.1100 -1.2474
 5114TIP3   OH236756   5.466   0.879  15.379  0.5680  0.1398  0.0763
 5114TIP3    H136757   5.523   0.920  15.314  1.8127 -0.2506  0.8848
 5114TIP3    H236758   5.443   0.794  15.341  0.5927  0.2666 -0.2222
 5115TIP3   OH236759   0.906   4.791  11.323  0.3628  0.1151 -0.1339
 5115TIP3    H136760   0.922   4.699  11.301  1.0961  0.4694 -1.0811
 5115TIP3    H236761   0.820   4.810  11.285 -0.7074 -0.7247  1.7672
 5116TIP3   OH236762   1.813   0.902  12.778  0.4512 -0.2396  0.0182
 5116TIP3    H136763   1.903   0.874  12.793  0.9246  0.6059 -1.1714
 5116TIP3    H236764   1.821   0.980  12.724 -0.9569  0.5102  0.8582
 5117TIP3   OH236765   4.701   4.728  14.842  0.2379  0.0726  0.1698
 5117TIP3    H136766   4.658   4.647  14.868  1.4977 -0.6704 -0.0086
 5117TIP3    H236767   4.669   4.793  14.904 -1.0589 -0.4847  0.0879
 5118TIP3   OH236768   3.008   4.578   4.434 -0.2475 -0.6988 -0.2454
 5118TIP3    H136769   2.972   4.550   4.350 -1.9305 -0.8130  0.4887
 5118TIP3    H236770   3.102   4.586   4.419 -0.7154  0.8870 -2.6006
 5119TIP3   OH236771   3.000   2.463  14.807 -0.3049  0.1142  0.2807
 5119TIP3    H136772   3.089   2.449  14.775 -0.0985  0.6838  0.6020
 5119TIP3    H236773   2.953   2.383  14.783  0.3612 -0.3077  0.3650
 5120TIP3   OH236774   1.403   4.295  12.800  0.0272 -0.0565  0.1917
 5120TIP3    H136775   1.407   4.229  12.730  0.2128 -0.9858  1.0690
 5120TIP3    H236776   1.488   4.339  12.796  0.3257 -0.6120  0.3019
 5121TIP3   OH236777   5.861   5.494   1.055 -0.8694 -0.2550 -0.6469
 5121TIP3    H136778   5.787   5.484   0.995  0.3130 -1.0262 -2.0273
 5121TIP3    H236779   5.922   5.550   1.007  0.3524 -1.3724 -0.4060
 5122TIP3   OH236780   2.578   5.631   3.063 -0.8031  0.1540 -0.1918
 5122TIP3    H136781   2.507   5.637   2.999 -0.5427 -0.1064 -0.5107
 5122TIP3    H236782   2.658   5.636   3.011 -0.5629 -3.0995 -0.2422
 5123TIP3   OH236783   4.837   0.462   0.562 -0.0544  0.3679 -0.3558
 5123TIP3    H136784   4.752   0.464   0.606  0.5077 -1.3085  0.8771
 5123TIP3    H236785   4.853   0.369   0.544  1.7097  0.6031 -0.1401
 5124TIP3   OH236786   1.275   2.563  11.928  0.3520  0.6279  0.0492
 5124TIP3    H136787   1.210   2.521  11.871 -0.5217  0.6416  1.0150
 5124TIP3    H236788   1.311   2.635  11.875 -0.2173  0.4426 -0.5947
 5125TIP3   OH236789   5.746   0.636   1.792 -0.3072  0.0650  0.5890
 5125TIP3    H136790   5.790   0.720   1.780 -0.1067 -0.1361 -0.1009
 5125TIP3    H236791   5.656   0.651   1.762  0.3185 -0.5653 -1.6741
 5126TIP3   OH236792   1.656   0.128   5.257  0.4258  0.4951  0.5261
 5126TIP3    H136793   1.652   0.047   5.308 -1.9031  0.7840  0.8387
 5126TIP3    H236794   1.732   0.116   5.199  1.5624 -0.8896  2.2444
 5127TIP3   OH236795   2.901   2.568   2.713  0.1436  0.5930 -0.9311
 5127TIP3    H136796   2.825   2.526   2.753  0.9754  0.5136  0.5942
 5127TIP3    H236797   2.900   2.537   2.622  0.8876 -3.0242  0.1988
 5128TIP3   OH236798   2.871   0.999  10.573  0.2141  0.1060 -0.3166
 5128TIP3    H136799   2.935   1.056  10.616 -1.0689  1.6486 -0.4252
 5128TIP3    H236800   2.797   1.056  10.555  0.0976 -0.8850 -3.1671
 5129TIP3   OH236801   1.926   1.277   4.064  0.3037 -0.3146 -0.2428
 5129TIP3    H136802   1.985   1.224   4.011  1.9801  0.7301  0.5578
 5129TIP3    H236803   1.881   1.214   4.120  1.3081 -1.0227 -0.2302
 5130TIP3   OH236804   0.663   0.351  11.477  0.6942  0.3037  0.2730
 5130TIP3    H136805   0.738   0.347  11.536  1.6879 -1.0778 -1.0577
 5130TIP3    H236806   0.690   0.301  11.401 -1.8388 -0.7779  0.0534
 5131TIP3   OH236807   4.740   3.873  12.779 -0.2109 -0.4312  0.4858
 5131TIP3    H136808   4.701   3.907  12.860 -0.2225  0.3635  0.1482
 5131TIP3    H236809   4.710   3.932  12.711  0.9117 -0.2977  0.0952
 5132TIP3   OH236810   2.700   2.392  12.491 -0.6302  0.6201  0.2506
 5132TIP3    H136811   2.679   2.483  12.512 -1.5843  0.1814  1.2252
 5132TIP3    H236812   2.668   2.342  12.565  0.3671 -0.4694 -0.0380
 5133TIP3   OH236813   6.508   0.778   3.922 -0.2612 -0.2240  0.2054
 5133TIP3    H136814   6.502   0.709   3.856 -1.3460 -0.7608  0.8531
 5133TIP3    H236815   6.589   0.759   3.970  0.7278  0.3855 -1.1894
 5134TIP3   OH236816   2.152   3.385  14.164  0.4073 -0.5030 -0.0039
 5134TIP3    H136817   2.080   3.332  14.199  0.1677 -0.7035 -0.7880
 5134TIP3    H236818   2.108   3.458  14.120  0.7202  0.0365  0.5829
 5135TIP3   OH236819   3.586   6.463  13.929 -0.0679 -0.1238 -0.1849
 5135TIP3    H136820   3.572   6.434  13.839  0.9777  1.8786 -1.0215
 5135TIP3    H236821   3.565   6.556  13.928  0.6967  0.0867  1.4689
 5136TIP3   OH236822   0.471   3.680  15.389 -0.1766 -0.5871 -0.6876
 5136TIP3    H136823   0.464   3.584  15.390 -1.6640 -0.4861  0.0180
 5136TIP3    H236824   0.388   3.710  15.352  0.1487  0.4464 -0.6014
 5137TIP3   OH236825   2.395   6.280   0.640  0.4756  0.2034  0.2971
 5137TIP3    H136826   2.330   6.250   0.577  0.9167 -0.9234  0.3753
 5137TIP3    H236827   2.442   6.350   0.594 -0.3506  0.5759  0.0110
 5138TIP3   OH236828   6.065   6.369   2.602  0.0293  0.6409 -0.1477
 5138TIP3    H136829   6.023   6.385   2.686 -0.2146  0.9825 -0.3298
 5138TIP3    H236830   6.007   6.306   2.558  0.7032 -0.3331  0.3515
 5139TIP3   OH236831   0.020   0.989   2.765  0.3228  0.3813 -0.7182
 5139TIP3    H136832   0.047   0.920   2.825  0.8982  0.5009 -0.8389
 5139TIP3    H236833   0.059   1.069   2.800 -1.7300  0.9589  0.3864
 5140TIP3   OH236834   1.978   4.161  16.384 -0.1782  0.2640  0.1814
 5140TIP3    H136835   1.930   4.242  16.367 -0.8722  0.5379  3.1666
 5140TIP3    H236836   2.056   4.189  16.433  0.8449 -0.6321 -0.9004
 5141TIP3   OH236837   1.811   1.561   4.341  0.1582 -0.4551  0.4405
 5141TIP3    H136838   1.896   1.591   4.310  0.5645 -1.0698  0.9564
 5141TIP3    H236839   1.830   1.512   4.420 -0.8399  0.8211  1.4930
 5142TIP3   OH236840   1.311   6.660  11.262 -0.0885 -0.1598 -0.5862
 5142TIP3    H136841   1.267   6.743  11.245  0.1761 -0.1806 -1.3658
 5142TIP3    H236842   1.371   6.679  11.335 -0.4137  0.1951 -0.4106
 5143TIP3   OH236843   4.159   5.487   5.883  0.1684  0.8839 -0.5783
 5143TIP3    H136844   4.216   5.411   5.894  1.0280  1.5803 -0.2263
 5143TIP3    H236845   4.088   5.473   5.946 -0.2282 -0.1359 -1.2373
 5144TIP3   OH236846   3.590   2.402  16.497 -0.2827 -0.8860  0.8494
 5144TIP3    H136847   3.638   2.476  16.534 -1.9029  1.0302 -0.7987
 5144TIP3    H236848   3.616   2.399  16.405 -0.2936 -2.3313  0.8771
 5145TIP3   OH236849   6.372   2.800   1.604 -0.0609 -0.1583  0.6293
 5145TIP3    H136850   6.400   2.887   1.634 -0.8535  1.4255 -2.9168
 5145TIP3    H236851   6.291   2.784   1.653 -0.5005  1.6484  0.5636
 5146TIP3   OH236852   3.876   3.658   3.048 -0.7110  0.4954  0.4274
 5146TIP3    H136853   3.947   3.601   3.018 -0.7974  0.0032  1.1444
 5146TIP3    H236854   3.805   3.642   2.986 -0.6758 -0.0503  0.5251
 5147TIP3   OH236855   3.376   5.546  15.163  0.2459 -0.0360  0.0544
 5147TIP3    H136856   3.347   5.601  15.091  0.0977 -0.5666 -0.2906
 5147TIP3    H236857   3.325   5.466  15.155  2.4101 -1.3686 -1.1146
 5148TIP3   OH236858   2.520   3.951   4.515  0.4116 -0.2973 -0.0786
 5148TIP3    H136859   2.603   3.905   4.526  1.1159  0.6337 -1.4864
 5148TIP3    H236860   2.479   3.909   4.439  0.5578  0.6424 -0.6874
 5149TIP3   OH236861   1.806   2.044   3.536  0.0372 -0.2773 -0.2097
 5149TIP3    H136862   1.770   2.132   3.549 -0.5768 -0.5626  0.0393
 5149TIP3    H236863   1.766   1.991   3.605  2.5226 -0.1620  1.3951
 5150TIP3   OH236864   4.778   0.975  16.906  0.2239  0.0983 -0.4122
 5150TIP3    H136865   4.747   0.940  16.990  0.2407  0.3742 -0.2893
 5150TIP3    H236866   4.792   0.898  16.852  2.3075 -0.2613  0.5668
 5151TIP3   OH236867   3.884   4.362   3.018 -0.0178 -0.3217 -0.3281
 5151TIP3    H136868   3.844   4.403   3.094 -1.1506 -0.3376 -0.9081
 5151TIP3    H236869   3.973   4.397   3.016 -0.6440  1.3148 -0.2043
 5152TIP3   OH236870   2.572   6.111  14.836 -0.4595  0.0394  0.7223
 5152TIP3    H136871   2.626   6.049  14.884 -1.0298 -0.5693  0.5799
 5152TIP3    H236872   2.532   6.166  14.903  0.8127  0.8951  0.7971
 5153TIP3   OH236873   5.541   3.578  16.889 -0.0039 -0.3128 -0.2586
 5153TIP3    H136874   5.576   3.633  16.959 -0.2360  1.2604 -1.3515
 5153TIP3    H236875   5.453   3.555  16.919  0.5208 -1.1123  0.7364
 5154TIP3   OH236876   1.865   4.354   3.936  0.3554  0.5069 -0.0702
 5154TIP3    H136877   1.841   4.363   4.028 -1.3382 -0.2316 -0.4070
 5154TIP3    H236878   1.787   4.382   3.888  0.1588 -1.8775 -1.2269
 5155TIP3   OH236879   6.601   2.256  14.200  0.0075 -0.2282 -0.0309
 5155TIP3    H136880   6.633   2.272  14.111 -1.8082  1.4713 -0.4184
 5155TIP3    H236881   6.662   2.306  14.256  0.8243 -0.8518 -0.3562
 5156TIP3   OH236882   1.308   0.282   3.899 -0.2575 -0.3082  0.1982
 5156TIP3    H136883   1.302   0.376   3.917 -0.5564 -0.4224  0.7214
 5156TIP3    H236884   1.339   0.277   3.809 -2.0336  0.2959 -0.4823
 5157TIP3   OH236885   1.681   0.554  15.812 -0.1924  0.2154 -0.3656
 5157TIP3    H136886   1.661   0.511  15.729  0.8090 -1.0081  0.0146
 5157TIP3    H236887   1.687   0.483  15.876 -0.0997  1.0636  0.5913
 5158TIP3   OH236888   1.955   2.984  14.328  0.3190 -0.1160  0.2706
 5158TIP3    H136889   1.919   2.899  14.302 -0.9381  0.0685  1.3367
 5158TIP3    H236890   1.983   2.972  14.418  2.1036  0.0115 -0.2597
 5159TIP3   OH236891   1.046   0.018   2.443 -0.7933 -0.3791 -0.0245
 5159TIP3    H136892   1.015   0.062   2.364  0.1159  2.0344  0.9349
 5159TIP3    H236893   0.969   0.016   2.501 -0.6934  0.4381  0.1383
 5160TIP3   OH236894   1.440   5.477   3.798 -0.5800 -0.0606  0.5446
 5160TIP3    H136895   1.355   5.507   3.828 -1.1144  0.2634 -1.2121
 5160TIP3    H236896   1.499   5.491   3.872 -1.7783  0.9808  1.3095
 5161TIP3   OH236897   1.106   4.788  13.043  0.5529 -0.0662 -0.2747
 5161TIP3    H136898   1.138   4.701  13.021  1.0812  0.3614 -1.2253
 5161TIP3    H236899   1.047   4.811  12.971 -1.3214 -0.5332  1.0704
 5162TIP3   OH236900   4.011   4.384  14.340 -0.2066  0.4095 -0.1773
 5162TIP3    H136901   3.923   4.386  14.376 -1.2059  0.9126 -2.5247
 5162TIP3    H236902   4.008   4.315  14.273  1.4651 -0.2398  0.3763
 5163TIP3   OH236903   1.778   2.260  16.335 -0.2116  0.0055  0.6725
 5163TIP3    H136904   1.739   2.192  16.280  0.3964  0.9041 -0.9154
 5163TIP3    H236905   1.704   2.313  16.364 -0.5975 -0.8278  1.2097
 5164TIP3   OH236906   5.888   2.224  13.022  0.7013  0.2369 -0.0365
 5164TIP3    H136907   5.937   2.167  12.962 -0.2161 -0.0235 -0.5414
 5164TIP3    H236908   5.934   2.215  13.106  1.6940  0.2209 -0.5712
 5165TIP3   OH236909   6.199   1.345   1.096  0.7535 -0.6487 -0.4171
 5165TIP3    H136910   6.278   1.296   1.074  1.1627  0.1055 -0.6779
 5165TIP3    H236911   6.139   1.330   1.023  1.0827 -0.3338 -0.7561
 5166TIP3   OH236912   2.193   4.648   6.515  0.5348  0.3917 -0.6370
 5166TIP3    H136913   2.253   4.668   6.443 -1.6017 -0.4177 -2.6838
 5166TIP3    H236914   2.194   4.553   6.522  0.7850  0.4687  0.4717
 5167TIP3   OH236915   3.203   0.640   2.026 -0.3115  0.0283 -0.1629
 5167TIP3    H136916   3.151   0.717   2.048 -0.3202 -0.3504  1.2313
 5167TIP3    H236917   3.268   0.634   2.097  0.8823 -0.1728 -1.2509
 5168TIP3   OH236918   3.421   5.293   5.190 -0.1547  0.0592  0.0207
 5168TIP3    H136919   3.476   5.372   5.186  0.3458 -0.2205  1.2518
 5168TIP3    H236920   3.481   5.224   5.220 -0.8670 -0.5517  0.0474
 5169TIP3   OH236921   3.391   5.030  15.427 -0.3916 -0.0083  0.9870
 5169TIP3    H136922   3.301   5.063  15.424  0.4565  2.2959 -1.3491
 5169TIP3    H236923   3.389   4.952  15.371 -0.5322  1.2604 -0.8538
 5170TIP3   OH236924   5.818   3.518   6.197 -0.0107 -0.4550 -0.5365
 5170TIP3    H136925   5.825   3.593   6.139  1.1630 -0.6742 -0.6868
 5170TIP3    H236926   5.813   3.556   6.285  0.4076 -0.1969 -0.6242
 5171TIP3   OH236927   1.141   5.582  11.539  0.7345 -0.0581 -0.4721
 5171TIP3    H136928   1.195   5.515  11.582 -0.6898 -2.6455 -2.5773
 5171TIP3    H236929   1.052   5.548  11.545  0.0543  1.3814 -2.1201
 5172TIP3   OH236930   2.475   3.199   1.695  0.6209  0.4577 -0.5721
 5172TIP3    H136931   2.476   3.106   1.718 -0.5216  0.4490 -0.5214
 5172TIP3    H236932   2.501   3.201   1.603 -1.0649 -0.0901 -1.0911
 5173TIP3   OH236933   3.894   2.568  12.708 -0.1224  0.1913  0.1336
 5173TIP3    H136934   3.862   2.614  12.630  0.4218 -1.0215 -0.8094
 5173TIP3    H236935   3.986   2.594  12.715 -0.6264  1.7184  1.4223
 5174TIP3   OH236936   6.761   3.806   4.156 -0.2370  0.3685  0.0568
 5174TIP3    H136937   6.733   3.788   4.246 -0.4963  0.5469  0.0127
 5174TIP3    H236938   6.818   3.733   4.134 -0.9937 -0.2002  0.0058
 5175TIP3   OH236939   6.378   4.737  15.638 -0.1814 -0.4133 -1.0353
 5175TIP3    H136940   6.464   4.696  15.635 -0.5517 -1.3394  0.5299
 5175TIP3    H236941   6.319   4.672  15.598 -0.5283 -0.7965  0.0818
 5176TIP3   OH236942   6.143   3.712   1.282  0.4522 -0.5908 -0.3910
 5176TIP3    H136943   6.220   3.708   1.338  1.9343  1.9553 -2.1427
 5176TIP3    H236944   6.166   3.661   1.204 -0.2702 -1.1753 -0.2348
 5177TIP3   OH236945   5.435   5.723   5.020 -0.2192  0.7301 -0.3275
 5177TIP3    H136946   5.465   5.808   5.052 -0.6377  0.7873 -0.0828
 5177TIP3    H236947   5.489   5.705   4.943  0.0665  1.0822 -0.2074
 5178TIP3   OH236948   3.868   6.201  14.997  0.0653  0.1846  0.1090
 5178TIP3    H136949   3.936   6.267  15.007  1.2492 -1.0735  0.6013
 5178TIP3    H236950   3.853   6.196  14.903  1.0034  0.1528 -0.0470
 5179TIP3   OH236951   6.095   6.492   6.056  0.3102  0.1757  0.1598
 5179TIP3    H136952   6.004   6.474   6.076  1.2598 -1.5352  3.1952
 5179TIP3    H236953   6.129   6.537   6.133  3.1513 -3.2508  1.0716
 5180TIP3   OH236954   1.804   1.707   4.800 -0.1584  0.7591  0.6858
 5180TIP3    H136955   1.728   1.678   4.851 -0.1614 -0.3715  0.0538
 5180TIP3    H236956   1.773   1.710   4.709  1.0683 -1.6386  0.1470
 5181TIP3   OH236957   2.088   6.225  11.774 -0.4745  0.2910 -0.4413
 5181TIP3    H136958   2.141   6.234  11.853 -0.7995  0.4984 -0.2485
 5181TIP3    H236959   2.112   6.299  11.719 -0.6596  0.4572 -0.2983
 5182TIP3   OH236960   0.755   2.531   1.264  0.2128  0.3284 -0.1582
 5182TIP3    H136961   0.681   2.561   1.317 -0.4232 -0.4028 -0.6158
 5182TIP3    H236962   0.830   2.580   1.297  0.0612 -0.9845  2.2251
 5183TIP3   OH236963   5.545   4.645   2.400 -0.1705 -0.4909  0.4716
 5183TIP3    H136964   5.515   4.563   2.439  1.7370 -0.5694  1.8296
 5183TIP3    H236965   5.495   4.713   2.445 -0.5504 -0.7972  0.5122
 5184TIP3   OH236966   2.036   6.062   3.007 -0.0041 -0.1018 -0.0373
 5184TIP3    H136967   2.067   6.146   2.974  0.5817 -0.5907 -0.7578
 5184TIP3    H236968   2.007   6.080   3.096 -1.8249  1.3013 -0.8695
 5185TIP3   OH236969   4.277   5.737  16.201  0.2232  0.0183  0.3369
 5185TIP3    H136970   4.277   5.650  16.160 -1.4430  0.9673 -1.7202
 5185TIP3    H236971   4.190   5.744  16.241  0.7164  0.3714  1.3768
 5186TIP3   OH236972   5.078   2.735   3.791  0.2432 -0.7722 -0.2131
 5186TIP3    H136973   5.170   2.709   3.802  0.1260 -1.6198 -1.1595
 5186TIP3    H236974   5.065   2.734   3.696 -1.1848 -2.2278 -0.0164
 5187TIP3   OH236975   5.582   4.046   2.074  0.7943  0.0330  0.3675
 5187TIP3    H136976   5.533   3.964   2.067 -1.4725  1.3765  0.2436
 5187TIP3    H236977   5.553   4.085   2.156  1.0904  1.2089 -0.0731
 5188TIP3   OH236978   0.913   4.579   0.040 -0.0705 -0.1585  0.1739
 5188TIP3    H136979   0.839   4.530   0.077 -0.0158 -0.7215 -0.4604
 5188TIP3    H236980   0.986   4.518   0.042  0.6184  0.6891  1.6397
 5189TIP3   OH236981   0.723   0.499  12.162  0.2295  0.3303  0.5358
 5189TIP3    H136982   0.750   0.420  12.115  0.3028 -0.4563  1.8823
 5189TIP3    H236983   0.630   0.510  12.139  0.6609  0.8615 -1.0379
 5190TIP3   OH236984   0.308   5.559   2.163 -0.0937  0.4137  0.2518
 5190TIP3    H136985   0.250   5.499   2.116 -0.7894  1.2241  0.0658
 5190TIP3    H236986   0.260   5.641   2.167 -0.0081  0.3988  2.3023
 5191TIP3   OH236987   3.931   3.477  15.283  0.1345 -0.2116 -0.0329
 5191TIP3    H136988   3.963   3.456  15.371 -0.5205  0.4386  0.3635
 5191TIP3    H236989   3.839   3.451  15.284 -0.2246  1.0296 -0.0987
 5192TIP3   OH236990   3.643   3.379   4.556  0.3684 -0.3416  0.7456
 5192TIP3    H136991   3.675   3.400   4.644 -0.9808  3.1343  0.4882
 5192TIP3    H236992   3.678   3.448   4.500 -0.7054 -1.1954 -1.0351
 5193TIP3   OH236993   1.905   1.316  11.311 -0.2945 -0.0014 -0.3357
 5193TIP3    H136994   1.920   1.287  11.221 -1.0282 -2.5995  0.3323
 5193TIP3    H236995   1.971   1.269  11.362 -0.5227  0.6838  0.5975
 5194TIP3   OH236996   4.751   5.373  12.590  0.2629 -0.2850 -0.0488
 5194TIP3    H136997   4.760   5.401  12.499 -0.2139  2.0380  0.5818
 5194TIP3    H236998   4.706   5.289  12.585  0.7275 -0.4432 -1.9819
 5195TIP3   OH236999   6.226   3.283  15.067 -0.4098  0.3266 -0.1009
 5195TIP3    H137000   6.139   3.248  15.082  0.3348 -1.7373 -0.5221
 5195TIP3    H237001   6.278   3.209  15.035  0.7427  2.1594 -2.7299
 5196TIP3   OH237002   3.396   2.475   1.487  0.1413 -0.4409  0.3420
 5196TIP3    H137003   3.381   2.463   1.581 -1.5579  1.6672  0.3789
 5196TIP3    H237004   3.461   2.546   1.483 -0.2697 -0.0889 -0.0841
 5197TIP3   OH237005   2.389   0.618   1.047 -0.1429 -0.1611 -0.5541
 5197TIP3    H137006   2.459   0.571   1.094  1.9094  2.5636 -0.7474
 5197TIP3    H237007   2.422   0.625   0.958 -0.3467  1.7452 -0.4826
 5198TIP3   OH237008   3.385   1.106  12.813  0.1412  0.1532 -0.0777
 5198TIP3    H137009   3.372   1.012  12.799 -0.9903  0.5932 -2.2682
 5198TIP3    H237010   3.300   1.137  12.843  1.5961 -0.1509  4.8324
 5199TIP3   OH237011   1.719   0.063   3.227 -0.5630  0.3693 -0.2133
 5199TIP3    H137012   1.667   0.041   3.150  0.4849  0.4592 -0.9433
 5199TIP3    H237013   1.730   0.158   3.223 -1.0444  0.4569  0.3963
 5200TIP3   OH237014   5.665   3.747  10.600  0.1410 -0.7977  0.6851
 5200TIP3    H137015   5.580   3.706  10.586 -2.1916  3.6225  1.0817
 5200TIP3    H237016   5.707   3.743  10.514 -1.5119 -0.7587 -0.1520
 5201TIP3   OH237017   0.427   5.363  13.855  0.5058 -0.1905 -0.4524
 5201TIP3    H137018   0.483   5.346  13.931 -0.4310  1.4442  0.6383
 5201TIP3    H237019   0.343   5.390  13.892 -0.8998 -2.2089 -2.0824
 5202TIP3   OH237020   1.804   5.800  16.347 -0.4069  0.2642 -0.0876
 5202TIP3    H137021   1.827   5.710  16.325 -2.4359 -0.0500 -0.9981
 5202TIP3    H237022   1.833   5.851  16.271 -0.6857  0.1625 -0.2648
 5203TIP3   OH237023   2.875   4.292   4.682 -0.0656 -0.2679  0.0013
 5203TIP3    H137024   2.882   4.220   4.744  1.2530  0.3620  0.5877
 5203TIP3    H237025   2.808   4.349   4.719 -1.5200 -1.4387 -0.7426
 5204TIP3   OH237026   5.735   0.764   5.791 -0.2013 -0.3982  0.0297
 5204TIP3    H137027   5.704   0.698   5.853 -0.2151  0.2831  0.7574
 5204TIP3    H237028   5.696   0.845   5.821 -0.9351 -0.1991 -1.4042
 5205TIP3   OH237029   1.084   1.732   2.780 -0.0292 -0.2505 -1.0109
 5205TIP3    H137030   1.093   1.637   2.788  2.1797  0.0715  0.7223
 5205TIP3    H237031   1.058   1.760   2.867 -1.1781  0.7027 -1.6510
 5206TIP3   OH237032   6.006   5.695  16.219 -0.0880 -0.0391 -0.7289
 5206TIP3    H137033   6.011   5.601  16.235  3.2361  0.1472 -0.2752
 5206TIP3    H237034   5.985   5.732  16.305  0.0719 -0.2706 -0.5908
 5207TIP3   OH237035   6.630   6.122   6.520 -0.3680  0.1324 -0.3505
 5207TIP3    H137036   6.673   6.113   6.435 -0.0218 -0.0582 -0.1540
 5207TIP3    H237037   6.691   6.173   6.572 -0.1055 -0.6652  0.1233
 5208TIP3   OH237038   3.382   1.045  14.731  0.3564 -0.0210  0.0756
 5208TIP3    H137039   3.451   1.009  14.787  0.0653 -2.0950 -0.8538
 5208TIP3    H237040   3.312   0.980  14.734 -0.5254  0.8544 -1.0236
 5209TIP3   OH237041   4.069   1.429   5.222  0.7821  0.0829 -0.2129
 5209TIP3    H137042   4.065   1.364   5.292  2.5795  0.1307 -0.0490
 5209TIP3    H237043   4.143   1.485   5.245  0.8523  0.6275 -1.6927
 5210TIP3   OH237044   2.239   0.983  12.916 -0.1048  0.8705  0.1045
 5210TIP3    H137045   2.228   0.979  12.821  2.2620  0.6166 -0.2017
 5210TIP3    H237046   2.289   1.063  12.931 -1.9775  1.8346  1.3189
 5211TIP3   OH237047   5.674   0.861  16.009  0.2637  0.5811 -0.7114
 5211TIP3    H137048   5.598   0.804  16.005 -0.5370  1.6602 -1.2033
 5211TIP3    H237049   5.709   0.860  15.919  0.3744  0.6886 -0.6692
 5212TIP3   OH237050   6.353   4.323  12.748  0.3555  0.4193  0.2054
 5212TIP3    H137051   6.387   4.234  12.760  0.1989  0.1682 -1.2087
 5212TIP3    H237052   6.260   4.312  12.729 -0.0079  0.9787  1.5958
 5213TIP3   OH237053   5.718   1.056  13.299  0.0736 -0.5563  0.0765
 5213TIP3    H137054   5.640   1.035  13.351 -1.4220  0.2297 -1.7815
 5213TIP3    H237055   5.766   0.974  13.293 -0.8917 -1.1858  0.8043
 5214TIP3   OH237056   1.357   3.346   5.635  0.1644 -0.7841  0.1191
 5214TIP3    H137057   1.303   3.275   5.670 -1.6895 -0.0797 -1.2177
 5214TIP3    H237058   1.357   3.331   5.540 -0.9378  1.4376 -0.2671
 5215TIP3   OH237059   5.067   0.999   2.013  0.2628 -0.0184 -0.3883
 5215TIP3    H137060   4.985   0.973   1.970  0.4271 -0.0692 -0.6782
 5215TIP3    H237061   5.098   1.074   1.962  1.5829 -1.4329 -1.7332
 5216TIP3   OH237062   5.629   2.657   6.469 -0.2452 -0.0219 -0.1043
 5216TIP3    H137063   5.555   2.615   6.513 -0.4664  0.5682  0.0871
 5216TIP3    H237064   5.592   2.734   6.426  0.1019 -0.1923 -0.7228
 5217TIP3   OH237065   6.439   5.573   5.142 -0.3172  0.4476 -0.1010
 5217TIP3    H137066   6.439   5.523   5.060 -2.2290  1.8172 -0.9868
 5217TIP3    H237067   6.414   5.509   5.209 -0.8004 -0.2229 -0.9030
 5218TIP3   OH237068   2.832   3.438  10.576 -0.0115 -0.5085 -0.0711
 5218TIP3    H137069   2.765   3.375  10.604  0.6825 -0.7612  1.0745
 5218TIP3    H237070   2.797   3.523  10.604 -0.3506 -0.5264 -0.4410
 5219TIP3   OH237071   0.282   4.756   4.539  0.0665 -0.1922 -0.1387
 5219TIP3    H137072   0.353   4.694   4.558 -1.2909 -2.0107 -0.8782
 5219TIP3    H237073   0.213   4.732   4.601 -0.8095  0.0157 -1.0318
 5220TIP3   OH237074   2.914   3.303  16.252 -0.2218  0.0619 -0.7103
 5220TIP3    H137075   2.930   3.394  16.277 -1.9513  0.5990 -1.4804
 5220TIP3    H237076   2.987   3.281  16.193  0.7132  0.6347  0.2285
 5221TIP3   OH237077   3.917   4.018  15.247 -0.7469 -0.6725 -0.8833
 5221TIP3    H137078   3.990   4.081  15.248  0.3959 -1.9702  0.4764
 5221TIP3    H237079   3.854   4.054  15.310 -0.2229 -0.7303 -0.3189
 5222TIP3   OH237080   4.294   1.265  14.760 -0.7019 -0.5096  0.7200
 5222TIP3    H137081   4.265   1.219  14.681 -2.5391  0.6676  0.6958
 5222TIP3    H237082   4.277   1.203  14.831  0.8572 -1.5309  0.2478
 5223TIP3   OH237083   1.876   6.245  16.813  0.0966  0.0979  0.5400
 5223TIP3    H137084   1.966   6.258  16.782  0.0641  1.6186  1.0234
 5223TIP3    H237085   1.870   6.152  16.831  1.9006  0.1284  1.4538
 5224TIP3   OH237086   2.745   0.350  16.661 -0.8511  0.5387  0.1174
 5224TIP3    H137087   2.651   0.341  16.679 -1.3216  1.6357 -1.6165
 5224TIP3    H237088   2.753   0.436  16.618  0.6164 -0.5029 -1.7902
 5225TIP3   OH237089   3.645   4.920   0.163  0.4736 -0.1815  0.0733
 5225TIP3    H137090   3.628   4.839   0.116 -0.9190  0.3431 -0.3774
 5225TIP3    H237091   3.598   4.987   0.113  1.1309  0.8109  0.7476
 5226TIP3   OH237092   5.492   4.104  13.752  0.6484 -0.5571  0.2023
 5226TIP3    H137093   5.412   4.157  13.755  0.5291 -0.6713 -0.6873
 5226TIP3    H237094   5.543   4.141  13.680  1.3460 -0.5606  0.6947
 5227TIP3   OH237095   1.471   0.492  15.041 -0.2618 -0.1595 -0.2522
 5227TIP3    H137096   1.520   0.464  15.118 -0.6059 -0.6836 -0.2225
 5227TIP3    H237097   1.398   0.543  15.076 -0.3299 -0.2662 -0.2387
 5228TIP3   OH237098   4.815   3.270   6.004  0.3949  0.6828 -0.4168
 5228TIP3    H137099   4.811   3.313   5.919 -2.3538  0.3275 -0.5411
 5228TIP3    H237100   4.786   3.180   5.986 -1.4648  0.9453  1.0499
 5229TIP3   OH237101   1.607   6.099  11.157 -0.4465  0.2315  0.1686
 5229TIP3    H137102   1.514   6.115  11.145 -1.0738 -2.9714  0.4359
 5229TIP3    H237103   1.646   6.123  11.073 -1.7442 -0.0520 -0.5251
 5230TIP3   OH237104   5.838   3.926   3.947  0.4361 -0.1717  0.8446
 5230TIP3    H137105   5.899   3.962   4.010  4.6569 -1.1568 -2.4570
 5230TIP3    H237106   5.819   3.838   3.979  1.5988 -0.2343  1.3675
 5231TIP3   OH237107   3.523   4.903   4.999 -0.1059 -0.5446 -0.3243
 5231TIP3    H137108   3.568   4.980   5.034  1.1453 -0.9874 -0.9355
 5231TIP3    H237109   3.592   4.837   4.990 -1.5832 -2.6424  2.6858
 5232TIP3   OH237110   6.102   5.515  15.906  0.1502  0.2300 -0.3499
 5232TIP3    H137111   6.139   5.589  15.857  1.8304 -0.3984 -0.0685
 5232TIP3    H237112   6.050   5.467  15.841 -0.0406  1.0299 -0.8015
 5233TIP3   OH237113   4.652   0.931   3.712 -0.8143  0.6168 -0.0494
 5233TIP3    H137114   4.633   0.962   3.623 -1.8533  1.4578  0.4480
 5233TIP3    H237115   4.732   0.978   3.737  0.2311 -0.6205 -1.0237
 5234TIP3   OH237116   4.883   0.200   5.357 -0.0224 -0.1468 -0.2661
 5234TIP3    H137117   4.855   0.260   5.288 -1.3582 -0.9165 -0.4030
 5234TIP3    H237118   4.979   0.205   5.356 -0.0218 -0.4033 -2.3976
 5235TIP3   OH237119   2.515   2.174   3.456 -0.4021  0.5835  0.3054
 5235TIP3    H137120   2.448   2.238   3.431 -1.1554  0.4346  1.8762
 5235TIP3    H237121   2.466   2.092   3.466 -0.2160  0.7602  2.7543
 5236TIP3   OH237122   5.335   2.780   5.426 -0.1022 -0.5166 -0.2863
 5236TIP3    H137123   5.377   2.720   5.364 -1.4676 -0.7725 -0.9864
 5236TIP3    H237124   5.249   2.742   5.442 -0.4996  0.5908  0.2555
 5237TIP3   OH237125   6.767   5.504   0.195  0.0785  0.2970  0.2271
 5237TIP3    H137126   6.675   5.505   0.220  0.5448  1.4939  1.9872
 5237TIP3    H237127   6.801   5.422   0.231 -0.1162  0.2569  0.3218
 5238TIP3   OH237128   5.911   4.875  11.475 -0.1419  0.0553 -0.1517
 5238TIP3    H137129   5.917   4.843  11.564  1.0095  2.3715  0.6653
 5238TIP3    H237130   5.858   4.811  11.429 -1.2228 -0.8804  2.3331
 5239TIP3   OH237131   1.027   3.492  12.923 -0.0516 -0.1984 -0.2901
 5239TIP3    H137132   1.015   3.563  12.986  1.3801 -0.5588  0.3978
 5239TIP3    H237133   0.970   3.422  12.955 -2.3165  0.9703 -1.5714
 5240TIP3   OH237134   6.050   1.288   4.328  0.5727  0.0330  0.2295
 5240TIP3    H137135   6.036   1.206   4.280 -0.7359 -0.0200  0.6942
 5240TIP3    H237136   6.110   1.263   4.400  1.6570 -0.1120 -0.7074
 5241TIP3   OH237137   6.573   6.709   3.934 -0.1702  0.0867 -0.7323
 5241TIP3    H137138   6.486   6.700   3.894  0.7697 -0.2386 -2.8002
 5241TIP3    H237139   6.608   6.789   3.896 -0.3327  1.3277  1.6565
 5242TIP3   OH237140   0.444   4.566  11.053  0.6516  0.5993  0.2902
 5242TIP3    H137141   0.498   4.490  11.077  2.9045  2.0790  0.0880
 5242TIP3    H237142   0.429   4.556  10.959 -0.9476 -0.7427  0.6762
 5243TIP3   OH237143   4.386   0.695  12.281 -0.0644 -0.1168 -0.1781
 5243TIP3    H137144   4.320   0.685  12.212 -0.0019 -1.6559 -0.0191
 5243TIP3    H237145   4.338   0.680  12.362  0.1053  0.5533  0.0470
 5244TIP3   OH237146   4.231   2.738   3.975  0.2637 -0.1992  0.3074
 5244TIP3    H137147   4.210   2.661   3.922 -0.8916  0.0433  0.3846
 5244TIP3    H237148   4.308   2.713   4.025  0.4923 -0.9519 -0.4100
 5245TIP3   OH237149   5.832   5.952   3.093  0.2504 -0.4527 -0.3243
 5245TIP3    H137150   5.852   5.999   3.013  1.1246 -2.1925 -1.1598
 5245TIP3    H237151   5.784   6.015   3.147  1.9088  1.5390 -1.1422
 5246TIP3   OH237152   3.364   2.202  16.504 -0.1130 -0.0807 -0.0650
 5246TIP3    H137153   3.391   2.113  16.482  0.4334 -0.1661  0.9046
 5246TIP3    H237154   3.446   2.248  16.521 -0.4422  0.3721  0.2912
 5247TIP3   OH237155   4.655   2.065  13.584  0.2499  0.3052  0.6242
 5247TIP3    H137156   4.692   1.976  13.587 -1.7918 -0.6305 -0.3410
 5247TIP3    H237157   4.605   2.072  13.665 -0.1235  0.3132  0.3938
 5248TIP3   OH237158   5.084   3.487   4.914  0.2314 -0.0580  0.0743
 5248TIP3    H137159   5.033   3.413   4.880  0.7279 -0.7066  0.7167
 5248TIP3    H237160   5.168   3.480   4.869 -0.5564  1.6064 -1.7460
 5249TIP3   OH237161   4.993   5.443  14.252 -0.1100  0.5347  0.3456
 5249TIP3    H137162   4.912   5.427  14.299 -1.1333  0.8972 -1.2563
 5249TIP3    H237163   4.979   5.528  14.209  0.3878 -0.2716 -1.4468
 5250TIP3   OH237164   1.020   4.799   0.999 -0.5808  0.1223 -0.1858
 5250TIP3    H137165   0.941   4.745   0.989 -0.4898  0.2367 -1.7140
 5250TIP3    H237166   1.052   4.810   0.909  0.1926  1.5464  0.2529
 5251TIP3   OH237167   4.458   3.853   4.816 -0.0580 -0.0244  0.6272
 5251TIP3    H137168   4.450   3.935   4.766  0.9930  0.6721  1.5793
 5251TIP3    H237169   4.409   3.869   4.896 -0.0724 -0.4239  0.6972
 5252TIP3   OH237170   1.135   3.875  13.042 -0.1631  0.3862  0.2750
 5252TIP3    H137171   1.209   3.895  13.100  0.6961  1.2516 -1.0689
 5252TIP3    H237172   1.123   3.955  12.991  0.4645 -1.0012 -2.1672
 5253TIP3   OH237173   3.138   6.772   4.051 -0.5844  0.1140 -1.0323
 5253TIP3    H137174   3.150   6.815   4.136  2.2738 -0.0455 -1.2848
 5253TIP3    H237175   3.137   6.679   4.071 -0.3605  0.0921 -1.1194
 5254TIP3   OH237176   6.078   2.139  13.218 -0.1724  0.7711 -0.1533
 5254TIP3    H137177   6.061   2.048  13.244  0.3387  0.3134 -1.3752
 5254TIP3    H237178   6.140   2.172  13.283 -1.0409  0.5337  0.8113
 5255TIP3   OH237179   1.429   6.557   1.290 -0.1161 -0.0917  0.1156
 5255TIP3    H137180   1.374   6.479   1.298  1.0448 -0.8685  0.6268
 5255TIP3    H237181   1.382   6.625   1.338 -1.8210 -0.0830 -1.4980
 5256TIP3   OH237182   5.255   1.417   5.638  0.1162 -0.1739 -0.0355
 5256TIP3    H137183   5.162   1.439   5.649  0.7046  2.6072 -0.2347
 5256TIP3    H237184   5.287   1.403   5.727  0.0792  1.4283  0.2395
 5257TIP3   OH237185   3.630   1.567   0.887 -0.5374  0.6207  0.1375
 5257TIP3    H137186   3.581   1.537   0.964 -0.1209  2.0788  0.9950
 5257TIP3    H237187   3.630   1.492   0.828 -0.9374 -0.4972  1.5234
 5258TIP3   OH237188   3.704   3.884   5.831 -0.4101  0.1206  0.3865
 5258TIP3    H137189   3.683   3.901   5.923 -2.7700 -1.1567  0.1174
 5258TIP3    H237190   3.789   3.840   5.834  0.2421  1.4242  1.8396
 5259TIP3   OH237191   3.946   1.004   5.553  0.3732 -0.4296  0.5030
 5259TIP3    H137192   3.935   0.932   5.491  1.3015  0.0116 -0.1789
 5259TIP3    H237193   3.984   0.963   5.630  1.3655 -0.5844 -0.0700
 5260TIP3   OH237194   4.809   2.724  17.238 -0.1678  0.1723 -0.3411
 5260TIP3    H137195   4.829   2.733  17.331 -0.4946 -1.1216 -0.1390
 5260TIP3    H237196   4.886   2.681  17.201 -0.5272 -0.3632 -0.4615
 5261TIP3   OH237197   6.315   3.475  15.619 -0.9016  0.0884 -0.3746
 5261TIP3    H137198   6.338   3.458  15.528 -0.8755  0.5570 -0.4568
 5261TIP3    H237199   6.313   3.389  15.660  2.4562  0.1120 -0.0349
 5262TIP3   OH237200   0.933   4.801  13.265  0.4554  0.3275  0.0357
 5262TIP3    H137201   0.992   4.793  13.339  1.9883 -0.7931 -1.2700
 5262TIP3    H237202   0.990   4.799  13.188 -1.1657  0.5766 -1.2108
 5263TIP3   OH237203   3.007   5.339  14.905  0.4058 -0.3338 -0.1429
 5263TIP3    H137204   3.020   5.428  14.937  2.2653 -0.1650 -1.2850
 5263TIP3    H237205   3.090   5.295  14.922 -0.4799 -1.8662  0.3846
 5264TIP3   OH237206   1.771   6.276   3.225  0.0574  0.0786  0.3870
 5264TIP3    H137207   1.862   6.253   3.238 -0.1744 -2.4782 -2.0315
 5264TIP3    H237208   1.773   6.367   3.196  1.6027  0.8317  2.7496
 5265TIP3   OH237209   0.659   4.105   5.851  0.6001  0.2866  0.1944
 5265TIP3    H137210   0.627   4.195   5.864  0.2024  0.1891 -0.0915
 5265TIP3    H237211   0.594   4.051   5.896  1.1553  0.1803  0.8719
 5266TIP3   OH237212   0.940   0.030  11.955  0.1984 -0.2352  0.0580
 5266TIP3    H137213   0.970   0.091  12.022 -0.3434  0.0500  0.0424
 5266TIP3    H237214   1.018  -0.021  11.933  0.9505  1.2487 -0.8079
 5267TIP3   OH237215   6.035   2.742  14.825  0.1829  0.4228 -0.2157
 5267TIP3    H137216   6.039   2.684  14.750  1.4597 -0.0084  0.1657
 5267TIP3    H237217   6.012   2.828  14.789 -0.2334 -0.0026 -0.9617
 5268TIP3   OH237218   5.345   0.092   2.750  0.1251  0.4975  0.1682
 5268TIP3    H137219   5.371   0.181   2.771  0.2944  0.4484  0.1649
 5268TIP3    H237220   5.415   0.058   2.694  0.3155  0.1878  0.5973
 5269TIP3   OH237221   2.598   6.007  17.226 -0.0364 -0.3103  0.0816
 5269TIP3    H137222   2.615   6.080  17.166 -0.4938 -1.3266 -1.3173
 5269TIP3    H237223   2.583   5.932  17.168 -1.6907 -1.0613  1.4403
 5270TIP3   OH237224   2.549   1.392   1.832 -0.2164 -0.2097 -0.2667
 5270TIP3    H137225   2.456   1.373   1.830 -0.1905 -0.6569  1.7301
 5270TIP3    H237226   2.563   1.434   1.917  1.3612  0.0960 -0.6595
 5271TIP3   OH237227   0.112   3.307  16.508 -0.2444  0.3091 -0.2564
 5271TIP3    H137228   0.117   3.282  16.416  0.4972  0.3849 -0.2390
 5271TIP3    H237229   0.202   3.300  16.540 -0.4681  0.4520  0.4182
 5272TIP3   OH237230   0.224   2.258  13.721 -0.3369  0.4525  0.0931
 5272TIP3    H137231   0.163   2.310  13.669  0.4458  2.0283  0.7209
 5272TIP3    H237232   0.215   2.291  13.810  0.0542 -0.6078  0.5392
 5273TIP3   OH237233   6.769   0.984  12.608 -0.0374  0.5935 -0.3947
 5273TIP3    H137234   6.793   0.972  12.517 -1.0867 -0.9321 -0.4846
 5273TIP3    H237235   6.779   0.897  12.648 -0.1480  1.1125  0.7998
 5274TIP3   OH237236   5.996   0.719  13.556  0.7451 -0.2531  0.1910
 5274TIP3    H137237   5.992   0.814  13.545  0.7719 -0.3363 -0.5683
 5274TIP3    H237238   5.904   0.690  13.551  0.9059 -0.5022 -1.8511
 5275TIP3   OH237239   3.494   0.099   0.901  0.1787  0.0605  0.5277
 5275TIP3    H137240   3.534   0.101   0.988  1.2136 -2.5775  0.1446
 5275TIP3    H237241   3.561   0.060   0.844 -0.8110  0.9282 -1.2897
 5276TIP3   OH237242   2.363   1.188  14.944  0.2311  0.0867  0.7040
 5276TIP3    H137243   2.269   1.191  14.959 -0.0118  1.1600 -0.9439
 5276TIP3    H237244   2.400   1.168  15.030 -1.4645  0.0934  1.4564
 5277TIP3   OH237245   0.579   1.569   1.710  0.2649 -0.3612 -0.0873
 5277TIP3    H137246   0.511   1.557   1.776 -0.4114 -2.0924 -1.0757
 5277TIP3    H237247   0.559   1.654   1.669  0.2013  0.3266  1.3342
 5278TIP3   OH237248   1.137   1.789   2.320 -0.3497 -0.7792 -0.1840
 5278TIP3    H137249   1.103   1.859   2.264  1.0115 -0.2207 -0.3176
 5278TIP3    H237250   1.229   1.781   2.296  0.4488 -0.0724  2.4071
 5279TIP3   OH237251   2.016   0.568  14.233 -0.0665  0.0788  0.4448
 5279TIP3    H137252   2.022   0.624  14.156  2.8493 -0.3379  0.3027
 5279TIP3    H237253   1.922   0.554  14.245 -0.6403  1.2543 -2.2074
 5280TIP3   OH237254   3.110   1.551  13.370 -0.2696 -0.1337  0.2919
 5280TIP3    H137255   3.157   1.471  13.391 -0.5364 -0.1766  0.7327
 5280TIP3    H237256   3.117   1.605  13.449 -0.3829  0.1329  0.1204
 5281TIP3   OH237257   0.337   5.171   1.772 -0.1418  0.1073 -0.0842
 5281TIP3    H137258   0.347   5.080   1.800  1.9329  0.6866  1.1730
 5281TIP3    H237259   0.281   5.210   1.840 -1.2517 -0.2899 -0.7672
 5282TIP3   OH237260   2.116   3.774  16.099  0.5746  0.2959  0.2377
 5282TIP3    H137261   2.120   3.864  16.068  1.5965  0.1425 -0.0902
 5282TIP3    H237262   2.022   3.754  16.102  0.3537  1.3019  0.1377
 5283TIP3   OH237263   2.193   0.456  12.656 -0.0822 -0.0739  0.0927
 5283TIP3    H137264   2.194   0.535  12.602  1.5432  0.3886  0.7552
 5283TIP3    H237265   2.128   0.399  12.615 -2.3319  2.1694  0.4489
 5284TIP3   OH237266   4.219   0.416   3.367  0.0601 -0.0920  0.1146
 5284TIP3    H137267   4.308   0.422   3.330 -0.3450  1.7512 -0.6077
 5284TIP3    H237268   4.172   0.361   3.305  0.2648  0.3097 -0.4096
 5285TIP3   OH237269   1.310   2.403  12.676 -0.1478 -0.4900  0.1943
 5285TIP3    H137270   1.393   2.373  12.714  0.0229 -0.8682 -0.4492
 5285TIP3    H237271   1.337   2.459  12.603 -0.4638  0.0646  0.5073
 5286TIP3   OH237272   4.289   5.623   0.213 -0.1409 -0.1768 -0.6386
 5286TIP3    H137273   4.325   5.544   0.254  1.0778  0.5751 -0.2257
 5286TIP3    H237274   4.351   5.645   0.144 -1.8667 -1.0840 -2.5135
 5287TIP3   OH237275   4.746   1.693   3.400  0.0133  0.3744  0.1904
 5287TIP3    H137276   4.835   1.678   3.368  0.0999  1.3162 -0.0291
 5287TIP3    H237277   4.754   1.697   3.495  0.2375  0.6166  0.1624
 5288TIP3   OH237278   3.336   1.383  14.380  0.3335  0.2747  0.0790
 5288TIP3    H137279   3.355   1.291  14.363 -0.0734 -0.6638  4.2851
 5288TIP3    H237280   3.266   1.405  14.319  0.6955 -2.0774 -1.2282
 5289TIP3   OH237281   0.582   5.290   3.242 -0.4725 -0.0885  0.4912
 5289TIP3    H137282   0.564   5.289   3.148 -0.0505  0.0583  0.4068
 5289TIP3    H237283   0.512   5.344   3.279 -0.3420  0.2865  0.1951
 5290TIP3   OH237284   3.449   1.693   5.473  0.3631  0.6069 -0.3500
 5290TIP3    H137285   3.453   1.642   5.554  1.8465  0.0374 -0.7647
 5290TIP3    H237286   3.473   1.631   5.405 -0.0144  1.3075 -1.1266
 5291TIP3   OH237287   2.105   3.142   0.218  0.0822  0.9776  0.1989
 5291TIP3    H137288   2.114   3.238   0.218 -0.0567  0.9886  0.8209
 5291TIP3    H237289   2.061   3.122   0.300 -0.8065  0.4652 -0.3883
 5292TIP3   OH237290   2.324   0.954   5.367 -0.1807 -0.7312 -0.1677
 5292TIP3    H137291   2.406   0.997   5.345  0.2256 -0.8691  1.0597
 5292TIP3    H237292   2.343   0.905   5.447 -2.0467  1.0528  1.4247
 5293TIP3   OH237293   4.482   1.088  16.955  0.2083 -0.2111 -0.4423
 5293TIP3    H137294   4.470   1.089  16.860 -2.2096  1.6580 -0.1792
 5293TIP3    H237295   4.423   1.020  16.986  0.4237 -0.2955 -0.2179
 5294TIP3   OH237296   0.019   0.149  15.485  0.1414 -0.3404 -0.8706
 5294TIP3    H137297   0.008   0.099  15.403 -0.8562 -0.2251 -0.8154
 5294TIP3    H237298  -0.012   0.089  15.553  0.8805 -0.3995 -0.5874
 5295TIP3   OH237299   3.823   0.617   4.066 -0.1508 -0.6203  0.1153
 5295TIP3    H137300   3.886   0.577   4.126 -1.5659 -1.0310  1.3609
 5295TIP3    H237301   3.741   0.617   4.115 -1.2198 -0.4992 -1.6599
 5296TIP3   OH237302   2.246   5.798   4.881 -0.1413 -0.6724  0.1827
 5296TIP3    H137303   2.167   5.840   4.845  0.7933  0.6080 -0.4252
 5296TIP3    H237304   2.258   5.840   4.966 -0.2143 -0.9927  0.3500
 5297TIP3   OH237305   0.125   0.933  15.503 -0.0595 -0.3367  0.0874
 5297TIP3    H137306   0.171   0.992  15.444 -1.1886  1.3045  0.8023
 5297TIP3    H237307   0.166   0.948  15.589  0.4207 -1.4373  0.0521
 5298TIP3   OH237308   1.364   6.205   3.991 -0.0041  0.6610  0.0956
 5298TIP3    H137309   1.312   6.166   4.061  2.7304 -1.9334  0.8224
 5298TIP3    H237310   1.402   6.284   4.031  0.8743 -0.3563  1.3275
 5299TIP3   OH237311   0.568   6.260   1.265 -0.1878 -0.1837  0.1434
 5299TIP3    H137312   0.500   6.272   1.330  0.2845  2.6396  0.1838
 5299TIP3    H237313   0.522   6.262   1.181 -0.1924  1.6462  0.1739
 5300TIP3   OH237314   5.801   4.605   1.031  0.3701  0.3679  0.0364
 5300TIP3    H137315   5.836   4.642   1.111  0.2864  0.7507 -0.1004
 5300TIP3    H237316   5.832   4.515   1.030  0.0682  0.2531  0.6813
 5301TIP3   OH237317   3.536   2.485   4.769  0.2029  0.2786  0.7184
 5301TIP3    H137318   3.544   2.429   4.846 -1.4698 -0.4187  0.4116
 5301TIP3    H237319   3.443   2.482   4.747  0.6876  0.2964 -1.4410
 5302TIP3   OH237320   1.362   3.376   4.177  0.2513  0.3020  0.4860
 5302TIP3    H137321   1.285   3.406   4.224  0.0127 -0.8123  0.8183
 5302TIP3    H237322   1.342   3.286   4.152  0.5063  0.7471 -1.4505
 5303TIP3   OH237323   2.597   6.047   3.607 -0.3890  0.4934  0.1436
 5303TIP3    H137324   2.611   5.957   3.578  1.0542  0.5868  0.5321
 5303TIP3    H237325   2.506   6.067   3.582 -0.5047 -0.8454 -0.5084
 5304TIP3   OH237326   2.206   0.064  12.627 -0.2335  0.0878  0.3519
 5304TIP3    H137327   2.256  -0.016  12.610  0.3000  0.0993  1.7381
 5304TIP3    H237328   2.134   0.035  12.683  0.2419  0.6364  1.2718
 5305TIP3   OH237329   5.161   3.930  16.008 -0.0136 -0.3882  0.7124
 5305TIP3    H137330   5.183   4.023  16.003  2.4631 -0.9997 -1.1677
 5305TIP3    H237331   5.122   3.910  15.923  1.0423 -1.3887  0.4347
 5306TIP3   OH237332   0.813   2.652   4.469 -0.0410  0.2389 -0.7681
 5306TIP3    H137333   0.811   2.606   4.385  0.7460  0.5771 -0.9759
 5306TIP3    H237334   0.729   2.630   4.510  0.5118 -1.7547 -0.6487
 5307TIP3   OH237335   3.602   3.471  12.460 -0.1175 -0.1350  0.0856
 5307TIP3    H137336   3.683   3.510  12.428  1.5432  0.4451  4.6713
 5307TIP3    H237337   3.615   3.376  12.449  2.1423 -0.1894  2.7117
 5308TIP3   OH237338   0.571   3.104   2.906  0.2662  0.0798  0.3535
 5308TIP3    H137339   0.576   3.010   2.889 -2.4521  0.4601 -3.1202
 5308TIP3    H237340   0.479   3.119   2.931  0.6086  1.8412  0.6306
 5309TIP3   OH237341   3.864   1.064   3.164 -0.4671 -0.0146 -0.6632
 5309TIP3    H137342   3.775   1.038   3.191 -0.5117  1.4282  0.6821
 5309TIP3    H237343   3.861   1.159   3.163  1.2453  0.0582 -0.0151
 5310TIP3   OH237344   4.894   6.290  16.658 -0.0099 -0.2033  0.1430
 5310TIP3    H137345   4.833   6.364  16.653 -3.0549 -2.6164  0.0515
 5310TIP3    H237346   4.930   6.294  16.747 -1.4288  0.4181  0.6933
 5311TIP3   OH237347   5.856   2.810   1.995 -0.0573  0.2493  0.6557
 5311TIP3    H137348   5.904   2.887   2.027 -1.2076  0.7062  1.3399
 5311TIP3    H237349   5.910   2.735   2.020  0.0073  0.7189  1.9522
 5312TIP3   OH237350   3.517   4.399  11.088 -0.1253  0.0519  0.1016
 5312TIP3    H137351   3.439   4.343  11.090 -0.5410  0.6483  1.0158
 5312TIP3    H237352   3.550   4.397  11.178 -0.2517  1.4136  0.1845
 5313TIP3   OH237353   5.372   6.440   5.373  0.1034 -0.5143 -0.5337
 5313TIP3    H137354   5.460   6.409   5.395 -0.7582 -1.3369  1.8658
 5313TIP3    H237355   5.336   6.371   5.317  0.4162 -0.8952 -0.2670
 5314TIP3   OH237356   0.719   2.684  13.964 -0.2503  0.0483  0.6249
 5314TIP3    H137357   0.687   2.723  14.045 -0.0094 -1.4291  1.4389
 5314TIP3    H237358   0.652   2.621  13.939 -0.0923  0.1486 -0.0709
 5315TIP3   OH237359   0.180   3.095   3.266 -0.1805  0.0295  0.0347
 5315TIP3    H137360   0.271   3.108   3.290 -0.6048 -2.2679  3.1428
 5315TIP3    H237361   0.146   3.183   3.251  2.0215  1.0398  0.7678
 5316TIP3   OH237362   1.198   6.596  16.441  0.0387 -0.4897 -0.3003
 5316TIP3    H137363   1.265   6.628  16.502  0.8670  0.1210 -1.4939
 5316TIP3    H237364   1.216   6.503  16.432 -0.2324 -0.6243  0.5729
 5317TIP3   OH237365   0.998   3.154  14.993 -0.6176  0.0033  0.1988
 5317TIP3    H137366   1.044   3.181  15.074 -0.8730  1.8060 -0.2352
 5317TIP3    H237367   1.041   3.072  14.968 -0.1296 -0.2724  1.8388
 5318TIP3   OH237368   5.068   6.219  13.519  0.4315 -0.6843 -0.1940
 5318TIP3    H137369   5.048   6.199  13.427 -0.6072  0.4967 -0.2290
 5318TIP3    H237370   5.158   6.189  13.530  0.7370 -0.4051 -1.7397
 5319TIP3   OH237371   0.565   5.172  15.313 -0.4094  0.7107  0.0340
 5319TIP3    H137372   0.605   5.121  15.243  0.3698 -0.1568  1.1060
 5319TIP3    H237373   0.490   5.215  15.272  0.9392  1.4290 -1.7063
 5320TIP3   OH237374   4.135   4.559  15.543 -0.0115  0.6017  0.3430
 5320TIP3    H137375   4.190   4.623  15.500 -0.2759  1.0017  0.5943
 5320TIP3    H237376   4.056   4.608  15.568 -2.4218 -0.8815 -3.8155
 5321TIP3   OH237377   1.607   0.684  12.803  0.0050  0.3249 -0.0945
 5321TIP3    H137378   1.622   0.625  12.729 -0.4131 -2.4022  1.8888
 5321TIP3    H237379   1.646   0.767  12.777  1.6894 -1.1834 -2.5362
 5322TIP3   OH237380   3.025   1.956   5.725 -0.7690  0.2461 -0.0117
 5322TIP3    H137381   2.935   1.985   5.709 -0.1209  2.9107  0.9221
 5322TIP3    H237382   3.050   1.912   5.643 -2.4652  0.6557 -0.7840
 5323TIP3   OH237383   0.103   0.673   3.490  0.3800  0.4340  0.5269
 5323TIP3    H137384   0.065   0.667   3.577 -0.5768  0.0109  0.0904
 5323TIP3    H237385   0.077   0.592   3.447  0.0202  1.0687 -0.4756
 5324TIP3   OH237386   0.916   2.898  15.889 -0.3448 -0.3606  0.4050
 5324TIP3    H137387   0.938   2.956  15.815 -1.6263  0.8720  0.9563
 5324TIP3    H237388   1.000   2.861  15.917  0.3746  0.5177 -0.5672
 5325TIP3   OH237389   0.122   2.380   1.014 -0.5556 -0.3827 -0.7192
 5325TIP3    H137390   0.152   2.471   1.005 -0.5219 -0.3162  0.0503
 5325TIP3    H237391   0.128   2.362   1.108 -0.7358 -1.1234 -0.8500
 5326TIP3   OH237392   6.150   4.584   2.422  0.1281  0.9982  0.4588
 5326TIP3    H137393   6.079   4.574   2.485 -2.4423 -0.2167 -2.5161
 5326TIP3    H237394   6.135   4.670   2.383 -0.4061  0.2634 -0.9775
 5327TIP3   OH237395   3.357   5.822   2.123 -0.1618 -0.3104  0.2657
 5327TIP3    H137396   3.300   5.767   2.069 -0.0494 -1.2038  1.0492
 5327TIP3    H237397   3.307   5.903   2.136 -0.2685 -0.1628 -1.0168
 5328TIP3   OH237398   1.835   6.653  11.580  0.1776 -0.4337  0.6188
 5328TIP3    H137399   1.858   6.567  11.544  0.3578  0.4345 -1.3612
 5328TIP3    H237400   1.917   6.687  11.615  0.6223 -0.0326 -0.7946
 5329TIP3   OH237401   4.842   4.614   5.038 -0.0913 -0.1430  0.0992
 5329TIP3    H137402   4.914   4.553   5.021  0.1582  0.1216  0.2031
 5329TIP3    H237403   4.785   4.568   5.100 -0.3485 -0.6090 -0.4814
 5330TIP3   OH237404   0.280   0.603  13.630  0.7088  0.0380  0.2118
 5330TIP3    H137405   0.356   0.561  13.589  0.5755 -1.4530  1.4215
 5330TIP3    H237406   0.205   0.568  13.582  0.6325 -0.6836  0.8446
 5331TIP3   OH237407   2.193   3.034   5.281  0.1393 -0.6400 -0.2029
 5331TIP3    H137408   2.209   2.969   5.350 -1.1106 -2.7526 -1.8636
 5331TIP3    H237409   2.098   3.042   5.277  0.2481  0.4625 -0.8036
 5332TIP3   OH237410   4.319   3.871  15.549  0.2424  0.7266 -0.1295
 5332TIP3    H137411   4.283   3.838  15.466  0.9983 -1.6721  0.4576
 5332TIP3    H237412   4.257   3.842  15.615  0.2442  1.6549  0.2907
 5333TIP3   OH237413   4.072   5.312   4.867  0.2784  0.3079 -0.2442
 5333TIP3    H137414   4.162   5.340   4.851  0.1605 -0.2154 -1.8950
 5333TIP3    H237415   4.053   5.342   4.956  1.8471  1.0192 -0.1357
 5334TIP3   OH237416   6.078   6.345   3.318  0.2771  0.0162 -0.2948
 5334TIP3    H137417   6.132   6.345   3.240 -1.1824  2.6367 -1.3523
 5334TIP3    H237418   6.114   6.415   3.373 -1.2576  0.9963 -0.4968
 5335TIP3   OH237419   0.516   1.473  13.983 -0.1730  0.7264  0.4100
 5335TIP3    H137420   0.544   1.500  14.071  2.0046 -3.7844  1.2099
 5335TIP3    H237421   0.456   1.400  13.998 -1.9197  1.6443 -1.8142
 5336TIP3   OH237422   5.834   0.370  16.093 -0.4852  0.0096  0.5144
 5336TIP3    H137423   5.906   0.396  16.035 -0.9441  0.3586  0.0977
 5336TIP3    H237424   5.792   0.297  16.047 -1.1465  0.5977  0.1633
 5337TIP3   OH237425   0.059   4.675   3.794  0.5056 -0.1154 -0.1124
 5337TIP3    H137426   0.105   4.598   3.829  0.1009 -0.6787 -0.7976
 5337TIP3    H237427   0.129   4.736   3.771  0.7741  0.3650  1.8561
 5338TIP3   OH237428   5.487   5.110  15.117  0.1330 -0.0040 -0.0678
 5338TIP3    H137429   5.482   5.197  15.078 -1.5162 -0.5152 -1.0451
 5338TIP3    H237430   5.396   5.087  15.137  0.3315 -2.1728 -1.4104
 5339TIP3   OH237431   1.598   5.775   4.296 -0.1002 -0.9283  0.4786
 5339TIP3    H137432   1.576   5.868   4.287  1.8558 -0.5955 -1.3551
 5339TIP3    H237433   1.580   5.738   4.209  0.1106 -2.0319  0.9041
 5340TIP3   OH237434   4.182   3.717   5.994  0.0661 -0.2753 -0.3065
 5340TIP3    H137435   4.148   3.733   5.906 -0.6457  0.9598  0.1866
 5340TIP3    H237436   4.262   3.769   5.998 -1.3355  1.8819  0.6943
 5341TIP3   OH237437   4.713   1.947  12.927  0.3193 -0.1465 -0.2060
 5341TIP3    H137438   4.784   1.914  12.872  0.9877 -0.3811  0.7822
 5341TIP3    H237439   4.659   1.870  12.946 -0.0202 -0.0288 -0.6927
 5342TIP3   OH237440   4.346   1.969   1.592  0.5069  0.0993  0.0763
 5342TIP3    H137441   4.276   1.961   1.527 -0.1639  0.5488  0.7369
 5342TIP3    H237442   4.424   1.936   1.547 -0.2754 -1.1181 -0.4196
 5343TIP3   OH237443   1.457   5.545   5.537  0.2401  0.1261  0.3757
 5343TIP3    H137444   1.490   5.616   5.591  1.2871  0.1489 -0.2771
 5343TIP3    H237445   1.362   5.559   5.534  0.3350  0.9244  1.0518
 5344TIP3   OH237446   3.614   0.011  13.371 -0.2561  0.0390 -0.3549
 5344TIP3    H137447   3.684  -0.046  13.339 -0.3310  1.1766 -2.6752
 5344TIP3    H237448   3.657   0.093  13.393 -0.2033 -0.7255  2.6645
 5345TIP3   OH237449   6.121   3.586  11.061 -0.5695 -0.3741 -0.3649
 5345TIP3    H137450   6.150   3.650  11.125 -0.1266  0.1505 -1.0944
 5345TIP3    H237451   6.039   3.552  11.097  1.4421 -2.6674  2.2474
 5346TIP3   OH237452   0.539   5.712   1.060  0.4730  0.5934 -0.4617
 5346TIP3    H137453   0.503   5.763   1.133  1.0927  3.0129 -1.7922
 5346TIP3    H237454   0.630   5.697   1.084 -0.2734 -1.9183  0.9753
 5347TIP3   OH237455   0.006   1.587  11.052  0.0840 -0.4993  0.0452
 5347TIP3    H137456   0.094   1.619  11.030 -0.0074  0.1177  0.5802
 5347TIP3    H237457  -0.042   1.591  10.969  1.0235 -2.3943 -0.6200
 5348TIP3   OH237458   2.048   0.180   2.735 -0.2135  0.2855 -0.0452
 5348TIP3    H137459   2.137   0.214   2.727 -0.0152 -0.5078 -1.2943
 5348TIP3    H237460   2.049   0.096   2.688 -0.9550 -0.9781  2.1013
 5349TIP3   OH237461   4.542   5.433  14.749 -0.5736  0.2809  0.6510
 5349TIP3    H137462   4.462   5.483  14.767 -0.5832  0.8695 -0.9395
 5349TIP3    H237463   4.608   5.471  14.808 -1.4794 -0.3026  2.0673
 5350TIP3   OH237464   5.220   6.241   3.286 -0.2457  0.0470 -0.0945
 5350TIP3    H137465   5.270   6.294   3.224  0.3830 -0.1906  0.2048
 5350TIP3    H237466   5.285   6.187   3.329 -0.8221 -0.5912 -0.0190
 5351TIP3   OH237467   0.927   2.442  16.827  0.2096  0.0898 -0.1694
 5351TIP3    H137468   0.855   2.493  16.789 -0.3937 -1.0762 -0.5999
 5351TIP3    H237469   0.957   2.495  16.901 -2.2608 -0.2421  1.1150
 5352TIP3   OH237470   3.293   6.155  13.778  0.4782  0.0382 -0.2900
 5352TIP3    H137471   3.387   6.168  13.763  0.6766 -1.1814 -0.1033
 5352TIP3    H237472   3.282   6.060  13.785 -1.0935  0.0520 -2.3149
 5353TIP3   OH237473   0.770   5.292   5.266  0.2470 -0.1584 -0.3253
 5353TIP3    H137474   0.718   5.288   5.346  0.0786 -3.5854 -0.5330
 5353TIP3    H237475   0.860   5.304   5.295  0.0294 -0.1344  0.3266
 5354TIP3   OH237476   2.867   3.014   6.117 -0.6215 -0.0286  0.3798
 5354TIP3    H137477   2.901   3.001   6.205  1.8732  2.2866 -0.2024
 5354TIP3    H237478   2.926   2.963   6.061 -1.0969 -0.0248 -0.1264
 5355TIP3   OH237479   4.912   2.970   5.414 -0.9152  0.4695  0.0472
 5355TIP3    H137480   4.830   2.934   5.449 -0.6940 -1.3003 -1.1624
 5355TIP3    H237481   4.959   2.894   5.380  0.5521  1.6568 -0.6489
 5356TIP3   OH237482   6.156   3.098  12.556 -0.2809  0.2128 -0.2788
 5356TIP3    H137483   6.247   3.111  12.530 -0.4126 -0.4763 -1.0805
 5356TIP3    H237484   6.123   3.030  12.497 -1.0997 -0.0704  0.4891
 5357TIP3   OH237485   2.867   0.552  10.331  0.2048  0.0050 -0.2249
 5357TIP3    H137486   2.862   0.648  10.328 -1.3021 -0.0223  0.4875
 5357TIP3    H237487   2.927   0.534  10.403 -2.1353  0.4541  1.9557
 5358TIP3   OH237488   5.067   2.036   2.638  0.4224  0.1110 -0.1839
 5358TIP3    H137489   5.125   1.961   2.649 -0.8507 -0.9327 -0.3947
 5358TIP3    H237490   5.044   2.036   2.545 -1.2330 -0.5147  0.2031
 5359TIP3   OH237491   6.727   1.345   3.091  0.3474  0.4035 -0.0881
 5359TIP3    H137492   6.747   1.426   3.138 -1.1393  0.1077  1.0776
 5359TIP3    H237493   6.719   1.278   3.159  1.6231 -0.7718 -1.0442
 5360TIP3   OH237494   4.527   2.833   5.809 -0.3097 -0.5247  0.3260
 5360TIP3    H137495   4.480   2.880   5.740 -0.0787  0.9090  1.1224
 5360TIP3    H237496   4.466   2.833   5.883 -0.1895 -1.2255  0.4297
 5361TIP3   OH237497   0.403   1.386  13.219 -0.0062 -0.1613 -0.0277
 5361TIP3    H137498   0.356   1.338  13.287 -0.4640 -1.9598 -1.5618
 5361TIP3    H237499   0.400   1.477  13.248 -0.1243 -0.8911  2.3777
 5362TIP3   OH237500   2.576   3.872  12.655 -0.2838 -0.4625 -0.2468
 5362TIP3    H137501   2.608   3.962  12.665 -0.3421 -0.2918 -1.4406
 5362TIP3    H237502   2.538   3.850  12.740  0.4244  0.3623  0.2964
 5363TIP3   OH237503   6.710   0.236   4.181 -0.8284 -0.0231 -0.0413
 5363TIP3    H137504   6.697   0.312   4.237 -1.5998  0.7444 -1.2429
 5363TIP3    H237505   6.696   0.161   4.239  0.8517  0.7059  1.3794
 5364TIP3   OH237506   4.844   4.826  13.826 -0.6451 -0.3669 -0.4213
 5364TIP3    H137507   4.828   4.911  13.867 -0.7178 -0.9223  0.7333
 5364TIP3    H237508   4.938   4.826  13.808 -0.2356 -0.8996  1.5986
 5365TIP3   OH237509   6.776   3.161   0.024  0.6584 -0.4166  0.2394
 5365TIP3    H137510   6.861   3.135  -0.012  0.7823 -0.1883  0.3686
 5365TIP3    H237511   6.755   3.243  -0.021  0.0502 -0.9698 -0.5121
 5366TIP3   OH237512   2.625   0.896  11.901  0.1521 -0.1841  0.1222
 5366TIP3    H137513   2.713   0.919  11.873 -0.1457  3.0121  1.5392
 5366TIP3    H237514   2.635   0.866  11.991 -0.4066  2.2027  1.0130
 5367TIP3   OH237515   4.043   0.561  13.121 -0.4802 -0.1508  0.4809
 5367TIP3    H137516   3.991   0.482  13.137 -0.2117 -0.6190 -0.8989
 5367TIP3    H237517   4.054   0.600  13.208 -0.4341 -1.7497  1.2191
 5368TIP3   OH237518   1.513   0.883   1.074 -0.1700 -0.2036 -0.0895
 5368TIP3    H137519   1.536   0.793   1.049  0.1208 -0.9020  2.5020
 5368TIP3    H237520   1.588   0.935   1.047  0.2280 -0.9611 -0.4729
 5369TIP3   OH237521   0.411   4.529  16.674 -0.1656 -0.1295  0.3373
 5369TIP3    H137522   0.412   4.619  16.641 -2.8921 -0.5087 -0.8731
 5369TIP3    H237523   0.417   4.475  16.595 -2.3763 -1.0129  0.7418
 5370TIP3   OH237524   0.599   6.378   6.258  0.7192  0.2669 -0.1804
 5370TIP3    H137525   0.634   6.461   6.291  2.7266 -0.4817 -0.3420
 5370TIP3    H237526   0.511   6.400   6.227  1.6248  2.5963 -1.2599
 5371TIP3   OH237527   4.576   4.229  12.862 -0.3521  0.4918 -0.3978
 5371TIP3    H137528   4.643   4.244  12.929 -0.1716 -0.4671 -0.3603
 5371TIP3    H237529   4.495   4.217  12.911 -0.3857  0.7057 -0.4003
 5372TIP3   OH237530   3.580   2.025  12.816 -0.0504  0.3692  0.5485
 5372TIP3    H137531   3.593   2.090  12.746  1.2077  0.2126  0.6186
 5372TIP3    H237532   3.491   1.992  12.802  1.1964 -1.8926 -2.9101
 5373TIP3   OH237533   6.635   6.300   3.373  0.0128 -0.0799 -0.2194
 5373TIP3    H137534   6.712   6.275   3.323  0.6483  0.1618  0.6270
 5373TIP3    H237535   6.583   6.353   3.312  0.7059  0.0874 -0.6669
 5374TIP3   OH237536   5.920   4.325  13.575 -0.0809  0.4577 -0.2201
 5374TIP3    H137537   5.961   4.303  13.491  0.3343  0.3596  0.0066
 5374TIP3    H237538   5.878   4.409  13.560  0.2006  0.5563 -0.4590
 5375TIP3   OH237539   3.774   2.006   5.285 -0.5499  0.1268  0.2993
 5375TIP3    H137540   3.813   1.920   5.272  2.4301  1.2337  1.6267
 5375TIP3    H237541   3.790   2.026   5.377 -2.0048  1.7300  0.2302
 5376TIP3   OH237542   6.137   0.460   1.945 -0.1095  0.1426 -0.7523
 5376TIP3    H137543   6.230   0.445   1.961  0.0103  0.4917 -1.1331
 5376TIP3    H237544   6.124   0.436   1.853 -0.2129  0.9733 -0.9549
 5377TIP3   OH237545   0.084   4.224   0.089  0.0965  0.4648  0.5711
 5377TIP3    H137546   0.008   4.245   0.145  0.7484  1.1404  1.2166
 5377TIP3    H237547   0.077   4.284   0.016 -0.0546  0.4525  0.5759
 5378TIP3   OH237548   1.734   3.021   1.739  0.3784  0.1039 -0.2778
 5378TIP3    H137549   1.822   3.058   1.739  0.6109 -0.3910  1.0138
 5378TIP3    H237550   1.737   2.950   1.675  1.5643 -1.3096  1.2856
 5379TIP3   OH237551   3.122   5.981  16.161 -0.0489  0.1686 -0.0350
 5379TIP3    H137552   3.192   5.989  16.096  0.6507  0.8418  0.7776
 5379TIP3    H237553   3.152   5.911  16.220 -0.0728  0.4417  0.3009
 5380TIP3   OH237554   4.489   4.016   1.723 -0.2506  0.4506  0.2491
 5380TIP3    H137555   4.413   4.001   1.668  0.5848 -0.2058 -0.7468
 5380TIP3    H237556   4.518   4.105   1.700 -0.9810  0.8881  0.9757
 5381TIP3   OH237557   2.267   0.407  11.175 -0.1722 -0.1349 -0.1355
 5381TIP3    H137558   2.270   0.319  11.214  2.1781  0.0427  0.1508
 5381TIP3    H237559   2.354   0.420  11.137 -1.1019  1.3319 -1.8737
 5382TIP3   OH237560   5.909   3.339   5.991 -0.7291 -0.1812  0.3933
 5382TIP3    H137561   5.857   3.270   5.949 -2.8989  2.4619 -1.4541
 5382TIP3    H237562   5.845   3.398   6.029  0.9627  2.2193 -0.3526
 5383TIP3   OH237563   5.534   2.121  15.183 -0.2569  0.2490  0.0417
 5383TIP3    H137564   5.481   2.077  15.116 -0.2931  0.6893 -0.2154
 5383TIP3    H237565   5.498   2.089  15.266 -1.0535  0.6970 -0.1311
 5384TIP3   OH237566   4.299   1.463  13.191  0.5479  0.7023 -0.4534
 5384TIP3    H137567   4.287   1.371  13.213  1.0984  0.8391  0.4587
 5384TIP3    H237568   4.211   1.499  13.186  0.2768 -0.1025 -1.8671
 5385TIP3   OH237569   3.215   3.346  13.785  0.2480 -0.3254  0.0407
 5385TIP3    H137570   3.208   3.362  13.879 -0.6584 -1.5661  0.1978
 5385TIP3    H237571   3.199   3.252  13.775  1.2295 -0.3770 -1.2651
 5386TIP3   OH237572   5.472   3.699   1.329  0.8520 -0.6267  0.2388
 5386TIP3    H137573   5.548   3.753   1.308  0.8708 -1.1879 -1.1755
 5386TIP3    H237574   5.470   3.632   1.261 -0.5722 -0.9623  0.5856
 5387TIP3   OH237575   6.449   1.642  12.288  0.3087  0.8846 -0.5359
 5387TIP3    H137576   6.385   1.631  12.218 -0.7165  1.2811  0.3220
 5387TIP3    H237577   6.519   1.582  12.265  0.0712  1.1373 -1.9925
 5388TIP3   OH237578   4.319   4.514  17.201  0.1946 -0.2254 -0.0446
 5388TIP3    H137579   4.346   4.426  17.173  0.0105  0.1154 -1.3147
 5388TIP3    H237580   4.261   4.544  17.131 -0.2652  0.6429  0.7157
 5389TIP3   OH237581   6.076   0.914  14.975 -0.1745 -1.0444 -0.6101
 5389TIP3    H137582   6.118   0.939  14.893  1.7652 -1.1388  0.3406
 5389TIP3    H237583   6.017   0.842  14.950  0.1683 -0.8708 -1.9591
 5390TIP3   OH237584   2.875   5.698   3.281 -0.4482 -0.0530  0.1056
 5390TIP3    H137585   2.837   5.680   3.367  3.4528 -3.4545  1.3165
 5390TIP3    H237586   2.862   5.617   3.232  0.0208  0.8003 -1.4556
 5391TIP3   OH237587   4.958   3.704   5.552  0.6239  0.7439 -0.1400
 5391TIP3    H137588   5.032   3.740   5.600  0.8381 -0.2015  0.2599
 5391TIP3    H237589   4.921   3.638   5.612  0.0402  0.5469 -0.7107
 5392TIP3   OH237590   3.311   6.536   5.729 -0.2170 -0.0834  0.1561
 5392TIP3    H137591   3.393   6.553   5.777  0.3686  1.8044 -1.4109
 5392TIP3    H237592   3.337   6.477   5.658 -0.6388 -1.1526  0.8950
 5393TIP3   OH237593   3.392   3.356  16.047  0.0982  0.7205 -0.3959
 5393TIP3    H137594   3.380   3.421  15.977 -2.0424 -0.0066 -0.7192
 5393TIP3    H237595   3.418   3.276  16.000  0.4336  0.7053 -0.1870
 5394TIP3   OH237596   5.907   0.360   3.960 -0.3476 -0.0663 -0.1058
 5394TIP3    H137597   5.886   0.276   4.001  0.0224  0.8876  2.1036
 5394TIP3    H237598   5.871   0.426   4.020  0.4473  1.3822 -1.1852
 5395TIP3   OH237599   6.273   5.696  13.932  0.5156 -0.0366  0.0351
 5395TIP3    H137600   6.295   5.734  14.017  2.3846  2.1681 -1.3717
 5395TIP3    H237601   6.204   5.752  13.898 -0.4316 -1.0871  0.2014
 5396TIP3   OH237602   2.577   0.732  12.592 -0.5232 -0.1502  0.4080
 5396TIP3    H137603   2.627   0.683  12.658 -1.7105  0.7410  1.9891
 5396TIP3    H237604   2.577   0.675  12.515  1.3426 -0.9718  0.9940
 5397TIP3   OH237605   1.817   4.362   2.410 -0.3457  0.1676 -0.8874
 5397TIP3    H137606   1.785   4.294   2.350  0.8039 -0.8196 -0.4178
 5397TIP3    H237607   1.912   4.358   2.402 -0.1159 -0.7309  1.7619
 5398TIP3   OH237608   5.427   2.176  14.117  0.6627 -1.0593  0.7680
 5398TIP3    H137609   5.361   2.147  14.054 -0.3138  2.1572  0.2152
 5398TIP3    H237610   5.510   2.173  14.069  0.0103  0.8233 -0.5258
 5399TIP3   OH237611   5.603   0.825  17.220  0.7323  0.3440 -0.5402
 5399TIP3    H137612   5.642   0.902  17.261 -0.1552  1.4142 -1.6874
 5399TIP3    H237613   5.652   0.813  17.139  2.0904 -1.4219  0.4911
 5400TIP3   OH237614   2.765   1.476   2.405  0.3539  0.0674 -0.2997
 5400TIP3    H137615   2.757   1.569   2.430 -0.1293  0.4642 -1.8966
 5400TIP3    H237616   2.682   1.437   2.431  0.0822  0.3524 -0.7250
 5401TIP3   OH237617   1.362   2.896  17.129 -0.4086 -0.6245  0.3886
 5401TIP3    H137618   1.377   2.854  17.045 -0.2284  0.1236  0.0440
 5401TIP3    H237619   1.279   2.942  17.118 -1.5973 -2.4745  1.3900
 5402TIP3   OH237620   2.389   2.416  14.804 -0.5508  0.6411 -0.6242
 5402TIP3    H137621   2.380   2.390  14.712 -0.5358  1.0166 -0.7327
 5402TIP3    H237622   2.402   2.511  14.800 -2.0301  0.8778 -0.1489
 5403TIP3   OH237623   5.471   4.534   0.879 -0.1471 -0.1094  0.1717
 5403TIP3    H137624   5.540   4.481   0.840  0.9463  0.6267  1.1014
 5403TIP3    H237625   5.486   4.529   0.973  0.3143  2.2882  0.2567
 5404TIP3   OH237626   3.930   6.058   5.181  0.6885  0.0647 -0.9267
 5404TIP3    H137627   3.970   6.136   5.143 -2.8865  2.6860  0.4232
 5404TIP3    H237628   3.939   6.070   5.275 -4.8450  1.8921 -0.4083
 5405TIP3   OH237629   3.146   4.136  16.845 -0.0281  0.1663 -0.0630
 5405TIP3    H137630   3.170   4.130  16.753 -1.0423 -1.3289 -0.2461
 5405TIP3    H237631   3.185   4.058  16.885  0.4986  0.8639  0.8002
 5406TIP3   OH237632   0.500   3.487  14.312  0.2102  0.5964  0.0809
 5406TIP3    H137633   0.406   3.474  14.321  0.2801  0.8861  1.2925
 5406TIP3    H237634   0.510   3.581  14.296  0.1876  0.3105 -1.6779
 5407TIP3   OH237635   0.310   3.548  16.986  0.2378  0.3142 -0.1626
 5407TIP3    H137636   0.268   3.629  17.014  0.6114  0.6573 -0.6002
 5407TIP3    H237637   0.402   3.559  17.010 -0.0836 -0.8406  1.7048
 5408TIP3   OH237638   5.221   5.602   4.557  0.6318 -0.4497  0.2095
 5408TIP3    H137639   5.201   5.539   4.488  0.4471 -0.4442  0.2570
 5408TIP3    H237640   5.164   5.577   4.630 -0.0446  0.2854 -0.0689
 5409TIP3   OH237641   0.383   4.284   3.437  0.2272 -0.1463  0.1670
 5409TIP3    H137642   0.322   4.218   3.404 -0.6098  1.9668 -2.6857
 5409TIP3    H237643   0.414   4.248   3.521 -2.0714 -2.9749 -0.1155
 5410TIP3   OH237644   1.678   6.497   3.465  0.2178  0.2384  0.1900
 5410TIP3    H137645   1.689   6.575   3.520 -2.3918  1.5048 -0.9696
 5410TIP3    H237646   1.727   6.516   3.385  2.0894 -0.6137  1.1268
 5411TIP3   OH237647   3.965   2.899  11.333  0.1426 -0.5408 -0.3902
 5411TIP3    H137648   3.948   2.900  11.427 -1.5077 -1.5478 -0.6440
 5411TIP3    H237649   4.056   2.926  11.324  0.4602 -0.9185  1.5311
 5412TIP3   OH237650   5.363   6.283  13.610  0.1473 -0.4328  0.7141
 5412TIP3    H137651   5.452   6.316  13.597  0.2511  0.2910  3.0322
 5412TIP3    H237652   5.374   6.198  13.651 -0.2123 -1.4730 -1.2856
 5413TIP3   OH237653   2.470   3.984  14.512  0.0547  0.3165 -0.0835
 5413TIP3    H137654   2.492   3.964  14.603 -1.4452 -2.3088 -0.2523
 5413TIP3    H237655   2.422   3.908  14.481 -0.4996  1.6660 -2.7450
 5414TIP3   OH237656   1.122   3.252   2.031  0.0959  0.2758  0.2636
 5414TIP3    H137657   1.120   3.262   2.126  0.4688 -2.4588  0.5891
 5414TIP3    H237658   1.031   3.232   2.008  0.2758 -0.5662  0.2520
 5415TIP3   OH237659   1.828   2.535  15.567 -0.1034 -0.0788  0.0821
 5415TIP3    H137660   1.898   2.473  15.586  0.1737  0.4359  0.7406
 5415TIP3    H237661   1.757   2.481  15.532 -0.6552 -1.0671  2.6090
 5416TIP3   OH237662   3.517   1.390   1.077 -0.3285 -0.1393  0.1291
 5416TIP3    H137663   3.524   1.425   1.166 -4.7885 -0.3881  0.7114
 5416TIP3    H237664   3.545   1.299   1.086 -0.5828 -0.1182  1.2515
 5417TIP3   OH237665   1.064   1.383  11.549  0.6982  0.0005  0.5329
 5417TIP3    H137666   1.116   1.407  11.625 -0.7889  0.1893  1.5130
 5417TIP3    H237667   1.061   1.287  11.550 -2.3430  0.0187  2.8790
 5418TIP3   OH237668   0.422   4.663  16.084 -0.6041  0.4518  0.4745
 5418TIP3    H137669   0.359   4.593  16.074  1.4332 -1.2781 -0.6956
 5418TIP3    H237670   0.417   4.712  16.002  0.1516 -0.2039  0.0272
 5419TIP3   OH237671   6.538   6.763   1.522 -0.1718 -0.4080  0.0750
 5419TIP3    H137672   6.511   6.671   1.514 -3.5290  0.5013  0.0667
 5419TIP3    H237673   6.578   6.783   1.437  0.5584 -1.8253  0.0626
 5420TIP3   OH237674   3.001   5.888  16.996 -0.3998 -0.0228 -0.2743
 5420TIP3    H137675   3.084   5.839  16.997 -1.2377 -1.5313 -1.9148
 5420TIP3    H237676   2.934   5.820  17.006 -1.5362  0.9560 -1.2510
 5421TIP3   OH237677   3.467   6.322   0.016  0.4416 -0.9192 -0.0253
 5421TIP3    H137678   3.418   6.257  -0.033 -0.5131  0.2553 -0.6622
 5421TIP3    H237679   3.527   6.360  -0.048  1.5192 -1.6689  0.5195
 5422TIP3   OH237680   4.868   3.691   4.923  0.1513 -0.2682  0.6780
 5422TIP3    H137681   4.936   3.758   4.930  1.0407 -1.2139  1.3254
 5422TIP3    H237682   4.917   3.610   4.908 -0.8444 -0.9532  1.1310
 5423TIP3   OH237683   6.280   0.090  15.999  0.1736  0.2043  0.0812
 5423TIP3    H137684   6.291  -0.004  16.010  0.0331  0.1989  0.1830
 5423TIP3    H237685   6.198   0.099  15.951  0.2525  0.2690 -0.0415
 5424TIP3   OH237686   5.304   4.624  16.651  0.2673 -0.1978 -0.1160
 5424TIP3    H137687   5.322   4.540  16.609 -0.4507 -0.4148 -0.0001
 5424TIP3    H237688   5.214   4.644  16.626  1.1496  1.5905 -1.9102
 5425TIP3   OH237689   5.071   5.685  16.473  0.0862 -0.4079 -0.5362
 5425TIP3    H137690   4.992   5.716  16.518 -0.2816 -1.3651 -0.5090
 5425TIP3    H237691   5.086   5.750  16.404 -3.2806 -2.4412 -3.3900
 5426TIP3   OH237692   5.912   4.156  13.804 -0.2499  0.5038  0.4789
 5426TIP3    H137693   5.982   4.208  13.843 -0.0001  0.5460 -0.0271
 5426TIP3    H237694   5.916   4.176  13.711 -0.6402  0.1566  0.3858
 5427TIP3   OH237695   5.717   4.659   3.181 -0.3346  0.5967  0.2659
 5427TIP3    H137696   5.797   4.628   3.224 -0.6900 -0.3337  0.2668
 5427TIP3    H237697   5.744   4.738   3.135  0.2080  1.2291  1.6503
 5428TIP3   OH237698   0.417   3.335   5.834  0.0431  0.7810 -0.1101
 5428TIP3    H137699   0.465   3.252   5.843 -0.4710  0.4414 -0.5269
 5428TIP3    H237700   0.426   3.377   5.920  1.0894  0.7212 -0.1854
 5429TIP3   OH237701   1.812   0.310  14.348  0.0620 -0.9035  0.4530
 5429TIP3    H137702   1.752   0.237  14.332  1.3412 -2.1020  1.0026
 5429TIP3    H237703   1.877   0.303  14.277  0.6951 -0.8574  1.0210
 5430TIP3   OH237704   1.694   2.620  14.481  0.0455  0.0227 -0.3693
 5430TIP3    H137705   1.769   2.663  14.439  1.0292 -0.2103  1.0943
 5430TIP3    H237706   1.618   2.648  14.430  0.9471  1.5151 -0.9275
 5431TIP3   OH237707   4.918   4.063  12.587 -0.1984 -0.4059 -0.2820
 5431TIP3    H137708   4.983   4.056  12.517 -0.0594 -0.2313 -0.1744
 5431TIP3    H237709   4.962   4.028  12.664 -0.1364 -0.0448 -0.1482
 5432TIP3   OH237710   3.455   1.215  11.307 -0.1484  0.7232  0.6194
 5432TIP3    H137711   3.369   1.253  11.327 -0.9540 -1.6634  1.9663
 5432TIP3    H237712   3.435   1.131  11.266  1.5575  0.3287  0.5641
 5433TIP3   OH237713   1.571   3.063   4.026  0.2430  0.2253  0.1181
 5433TIP3    H137714   1.628   3.010   3.969  0.3231  0.8592 -0.3911
 5433TIP3    H237715   1.623   3.140   4.048 -0.2268  0.5581  0.0734
 5434TIP3   OH237716   3.084   3.173   0.361 -0.2421 -0.1008  0.1946
 5434TIP3    H137717   3.022   3.113   0.404  0.6635 -1.4169 -0.3093
 5434TIP3    H237718   3.160   3.118   0.340  1.4043  1.6596  1.4419
 5435TIP3   OH237719   2.561   3.120   5.433  0.3380 -0.5106 -0.0775
 5435TIP3    H137720   2.482   3.084   5.393 -1.0135 -0.7405  2.6911
 5435TIP3    H237721   2.566   3.077   5.519  2.2642  1.1366  0.6685
 5436TIP3   OH237722   4.323   6.436  11.864 -0.4510  0.1567  0.6887
 5436TIP3    H137723   4.318   6.352  11.911 -2.3154  0.2949  0.7534
 5436TIP3    H237724   4.359   6.413  11.778 -1.0483 -0.7174  0.6683
 5437TIP3   OH237725   0.721   1.160  17.176  0.0538  0.3702  0.3845
 5437TIP3    H137726   0.755   1.093  17.118 -1.4667 -1.4535  1.5212
 5437TIP3    H237727   0.771   1.149  17.257  0.9454  1.7166  0.0189
 5438TIP3   OH237728   2.461   3.748   2.405  0.2641  0.2504  0.4102
 5438TIP3    H137729   2.416   3.774   2.486  2.3688  0.9281  1.3981
 5438TIP3    H237730   2.442   3.655   2.395  0.5400  0.0060  2.0549
 5439TIP3   OH237731   3.824   5.739   2.114  0.2994  0.2314  0.1034
 5439TIP3    H137732   3.815   5.815   2.056 -0.1916 -0.2499 -0.4589
 5439TIP3    H237733   3.784   5.767   2.196  0.1625  0.5922 -0.0827
 5440TIP3   OH237734   4.740   3.248  14.135  0.4540  0.1738  0.4469
 5440TIP3    H137735   4.649   3.276  14.144  0.2403  0.0647 -1.2572
 5440TIP3    H237736   4.737   3.179  14.069  1.5897 -0.7948  1.3891
 5441TIP3   OH237737   2.442   0.257  13.096  0.4323 -0.2799  0.0026
 5441TIP3    H137738   2.381   0.305  13.152  0.3561 -0.0258 -0.2937
 5441TIP3    H237739   2.521   0.312  13.093  1.3826 -1.5021  1.8934
 5442TIP3   OH237740   4.350   0.567   2.621  0.2872  0.0144  0.0316
 5442TIP3    H137741   4.255   0.578   2.614  0.2715 -1.1270 -2.0564
 5442TIP3    H237742   4.381   0.650   2.655 -1.1938  1.3849 -1.8756
 5443TIP3   OH237743   5.742   1.779   2.793 -0.1145 -0.3899  0.0475
 5443TIP3    H137744   5.710   1.724   2.721 -0.6451 -0.0817  0.0358
 5443TIP3    H237745   5.674   1.847   2.801  1.4825  1.4393 -1.2943
 5444TIP3   OH237746   6.072   0.564   0.007 -0.9256  0.8505 -0.1675
 5444TIP3    H137747   6.117   0.585  -0.075  0.1088 -1.8614 -0.3417
 5444TIP3    H237748   5.989   0.526  -0.021 -0.0831 -1.1495 -0.0119
 5445TIP3   OH237749   4.231   4.095  15.169  0.1266 -0.7168 -0.3960
 5445TIP3    H137750   4.244   4.075  15.262 -0.8738 -1.4269 -0.3920
 5445TIP3    H237751   4.252   4.013  15.124  1.2501 -0.1755 -0.8497
 5446TIP3   OH237752   5.144   6.313   3.637  0.1979  0.1836 -0.2370
 5446TIP3    H137753   5.053   6.335   3.615  0.4715  0.0145 -1.5756
 5446TIP3    H237754   5.136   6.246   3.704 -0.7175 -1.3053 -1.7675
 5447TIP3   OH237755   5.383   1.384   5.334 -0.2970  0.1944  0.5431
 5447TIP3    H137756   5.366   1.301   5.379  2.1520 -0.7845 -0.2794
 5447TIP3    H237757   5.423   1.439   5.401 -1.5327  0.5964  0.9715
 5448TIP3   OH237758   4.437   6.436  14.716  0.9373  0.5157  0.1535
 5448TIP3    H137759   4.493   6.511  14.735  1.4442  0.2979 -0.4563
 5448TIP3    H237760   4.421   6.441  14.622  1.2200 -0.3027  0.0559
 5449TIP3   OH237761   6.480   4.545  15.279 -0.3077  0.1951  0.1122
 5449TIP3    H137762   6.457   4.454  15.297 -0.3587  0.1586 -0.1387
 5449TIP3    H237763   6.575   4.548  15.287 -0.2935  0.0911 -0.0163
 5450TIP3   OH237764   3.074   2.297   1.709 -0.5306 -0.2406 -0.3753
 5450TIP3    H137765   3.091   2.391   1.700 -1.3168 -0.0565  0.0489
 5450TIP3    H237766   3.140   2.267   1.772  2.3865 -0.7746 -3.5242
 5451TIP3   OH237767   4.286   5.369  13.013  0.5125  0.5802 -0.2329
 5451TIP3    H137768   4.245   5.412  12.938  1.9323  3.3174  0.5022
 5451TIP3    H237769   4.213   5.345  13.070 -0.3186  2.0505 -0.6536
 5452TIP3   OH237770   3.050   1.182   1.768 -0.5672 -0.7047 -0.4907
 5452TIP3    H137771   3.116   1.250   1.780  1.6082 -3.1395  2.2290
 5452TIP3    H237772   2.969   1.221   1.800  0.8526  0.3310  2.0146
 5453TIP3   OH237773   5.560   2.449   1.267  0.4390  0.0799 -0.7231
 5453TIP3    H137774   5.641   2.400   1.282  0.5997  0.3375 -0.7520
 5453TIP3    H237775   5.531   2.420   1.181 -0.1327 -0.9052 -0.1985
 5454TIP3   OH237776   3.239   4.887   5.028  0.2651  0.0329  0.4625
 5454TIP3    H137777   3.331   4.912   5.016 -0.5998  2.8492 -0.9204
 5454TIP3    H237778   3.233   4.856   5.118  2.8711 -1.7181  0.0679
 5455TIP3   OH237779   1.884   4.090  15.575  0.2026 -0.0369  0.2030
 5455TIP3    H137780   1.793   4.096  15.547  0.3936 -0.1988 -0.4521
 5455TIP3    H237781   1.881   4.107  15.669 -0.5755 -0.6091  0.2885
 5456TIP3   OH237782   4.974   6.684  13.721  0.0806 -0.0477 -0.1876
 5456TIP3    H137783   4.976   6.598  13.679  1.8259 -0.2606  0.3080
 5456TIP3    H237784   4.979   6.746  13.648 -0.3183 -0.3680 -0.4923
 5457TIP3   OH237785   1.019   3.297  14.743  0.4047  0.3227  0.3450
 5457TIP3    H137786   0.983   3.251  14.667 -0.4925  2.2336 -0.4329
 5457TIP3    H237787   1.040   3.228  14.806  0.2130 -1.2129 -1.2464
 5458TIP3   OH237788   1.409   0.962  13.325  0.0113 -0.3673 -0.9496
 5458TIP3    H137789   1.323   0.937  13.291 -0.1732  1.0498 -1.5466
 5458TIP3    H237790   1.470   0.938  13.256 -0.2839  1.7986 -2.0161
 5459TIP3   OH237791   2.503   1.498  15.456 -0.4849  0.4071  0.2265
 5459TIP3    H137792   2.533   1.588  15.465 -0.6516  0.4470  0.3857
 5459TIP3    H237793   2.422   1.504  15.405  0.4486  0.1844 -1.3188
 5460TIP3   OH237794   3.294   5.036  11.833  0.4044 -0.0288 -0.0627
 5460TIP3    H137795   3.322   5.109  11.887 -0.7123  0.4474 -0.1246
 5460TIP3    H237796   3.352   4.964  11.858  0.7767  0.5675  0.7959
 5461TIP3   OH237797   5.330   5.404  12.399 -0.2310 -0.0952 -0.4528
 5461TIP3    H137798   5.242   5.370  12.420 -1.3163  1.8235 -1.7433
 5461TIP3    H237799   5.357   5.448  12.479 -0.3858 -0.8007 -0.0026
 5462TIP3   OH237800   2.148   2.516  10.853 -0.6185 -0.4807  0.1674
 5462TIP3    H137801   2.082   2.467  10.901 -1.3644  1.8163  1.5517
 5462TIP3    H237802   2.150   2.602  10.895  0.8119  0.6202 -2.0501
 5463TIP3   OH237803   5.613   6.119   4.859 -0.0962  0.6449 -0.3985
 5463TIP3    H137804   5.659   6.188   4.907  0.7373 -1.1468  1.4647
 5463TIP3    H237805   5.546   6.088   4.920 -0.3761 -0.2838 -1.1622
 5464TIP3   OH237806   1.037   3.646   2.362 -0.3545 -0.1109 -0.0937
 5464TIP3    H137807   1.120   3.646   2.314 -1.0593 -0.2599 -1.3313
 5464TIP3    H237808   1.032   3.558   2.400 -0.8700 -0.7590 -1.6482
 5465TIP3   OH237809   6.087   4.173   6.247 -0.0574 -0.2535 -0.0784
 5465TIP3    H137810   6.076   4.150   6.340 -1.1250  0.1985 -0.0847
 5465TIP3    H237811   6.149   4.245   6.248 -1.6500  1.1477  0.4749
 5466TIP3   OH237812   6.485   3.024   1.728  0.4379  0.5413  0.4382
 5466TIP3    H137813   6.558   3.070   1.687  1.6998 -0.3626  1.5932
 5466TIP3    H237814   6.485   3.056   1.819 -1.3341  1.3775  0.1687
 5467TIP3   OH237815   5.080   4.149   1.331 -0.4983  0.1102 -0.1475
 5467TIP3    H137816   5.124   4.124   1.250 -1.1358 -1.7283  0.0429
 5467TIP3    H237817   5.152   4.170   1.391  0.0005  0.5266 -0.8843
 5468TIP3   OH237818   1.804   3.358  16.185  0.3050 -0.1118  0.0385
 5468TIP3    H137819   1.807   3.350  16.090  1.1283 -0.2433  0.0662
 5468TIP3    H237820   1.895   3.375  16.210  0.3386 -1.5423  0.9269
 5469TIP3   OH237821   2.115   0.534  13.448 -0.5252  0.3310  0.0726
 5469TIP3    H137822   2.074   0.477  13.383  1.1285 -0.9760  0.1153
 5469TIP3    H237823   2.046   0.550  13.512 -1.2571 -1.0328 -0.3330
 5470TIP3   OH237824   5.175   2.734  16.378  0.0080 -0.3741 -0.1456
 5470TIP3    H137825   5.184   2.681  16.458  0.1229 -0.8642 -0.4799
 5470TIP3    H237826   5.193   2.823  16.407 -0.9703 -0.4015  0.5889
 5471TIP3   OH237827   2.586   3.391   3.108  0.0085  0.4876 -0.2986
 5471TIP3    H137828   2.645   3.316   3.117 -0.4008  0.0554 -1.1847
 5471TIP3    H237829   2.512   3.371   3.166 -0.6496 -0.3385 -1.4201
 5472TIP3   OH237830   3.895   5.742  13.400 -0.6883  0.2880  0.1143
 5472TIP3    H137831   3.946   5.805  13.348 -0.5359  1.0109  1.1299
 5472TIP3    H237832   3.899   5.775  13.489 -1.2320 -0.7707  0.5463
 5473TIP3   OH237833   2.967   2.261  13.989  0.0504  0.1507 -0.1131
 5473TIP3    H137834   2.948   2.171  14.019 -0.8139  0.7531  1.2149
 5473TIP3    H237835   2.897   2.281  13.928  0.2136 -0.0487 -0.3697
 5474TIP3   OH237836   5.965   2.965   2.897  0.6914  0.2916  0.5168
 5474TIP3    H137837   5.978   3.028   2.826  0.3590  0.1224  0.3065
 5474TIP3    H237838   5.979   2.879   2.857 -1.0324  0.1040  0.2845
 5475TIP3   OH237839   6.687   5.705   4.140  0.1322 -0.3801 -0.3088
 5475TIP3    H137840   6.708   5.631   4.197 -0.0188 -0.9519 -1.0066
 5475TIP3    H237841   6.617   5.675   4.084 -1.2506  0.9178  0.6833
 5476TIP3   OH237842   3.713   6.281  11.008 -0.5108  0.4193  0.0618
 5476TIP3    H137843   3.712   6.376  11.020 -0.6779  0.5263 -0.7679
 5476TIP3    H237844   3.803   6.261  10.985 -0.5530  0.4189 -0.1015
 5477TIP3   OH237845   5.662   5.459  12.038  0.4053 -0.2223  0.1022
 5477TIP3    H137846   5.582   5.471  12.089 -0.2499 -2.1227 -0.4639
 5477TIP3    H237847   5.701   5.379  12.073  1.4907  0.0831 -0.3939
 5478TIP3   OH237848   5.657   5.432  13.583 -0.2409 -0.0150 -0.5111
 5478TIP3    H137849   5.621   5.504  13.635 -0.7035 -0.5276 -0.1191
 5478TIP3    H237850   5.750   5.453  13.575 -0.4025  0.7232 -0.5594
 5479TIP3   OH237851   4.375   0.148  16.427  0.1832 -0.5270 -0.5321
 5479TIP3    H137852   4.388   0.202  16.349  0.9791 -0.6208 -0.4683
 5479TIP3    H237853   4.319   0.201  16.484  2.1407  0.8590  0.1531
 5480TIP3   OH237854   0.688   1.793   2.928 -0.1360  0.2303  0.3696
 5480TIP3    H137855   0.659   1.812   2.839 -1.8808 -0.5940  0.7401
 5480TIP3    H237856   0.777   1.827   2.932 -0.2297  0.7512 -1.5236
 5481TIP3   OH237857   0.722   2.494   5.663 -0.2249  0.7690  0.5270
 5481TIP3    H137858   0.800   2.527   5.617  0.2136 -0.0160  0.7106
 5481TIP3    H237859   0.752   2.477   5.752 -0.7203  0.8813  0.7180
 5482TIP3   OH237860   0.773   6.034  16.222  0.1908  0.1528  0.0213
 5482TIP3    H137861   0.756   6.019  16.129  1.3148 -0.5344 -0.0842
 5482TIP3    H237862   0.776   6.129  16.230 -0.7666  0.2335 -0.4784
 5483TIP3   OH237863   0.226   1.475  16.224 -0.1682 -0.1561  0.5770
 5483TIP3    H137864   0.182   1.433  16.298 -0.2122 -0.3126  0.4634
 5483TIP3    H237865   0.319   1.473  16.247 -0.3209  1.4283  1.4680
 5484TIP3   OH237866   4.007   0.969  12.826 -0.2790 -0.4650 -0.0760
 5484TIP3    H137867   4.062   0.930  12.894  0.8306 -1.1252 -1.3236
 5484TIP3    H237868   4.042   1.057  12.816 -0.0275 -0.5805 -0.2299
 5485TIP3   OH237869   5.898   1.887  10.956 -0.5701  0.5011 -0.1878
 5485TIP3    H137870   5.895   1.900  10.861  1.7934  0.2355 -0.3190
 5485TIP3    H237871   5.972   1.828  10.970 -1.2564  0.0722  1.7836
 5486TIP3   OH237872   0.121   4.664  14.242  0.1980 -0.1278  0.6071
 5486TIP3    H137873   0.060   4.599  14.277 -0.8373  1.2776  1.4677
 5486TIP3    H237874   0.138   4.636  14.152 -0.4218 -1.4373  0.8840
 5487TIP3   OH237875   4.911   4.742   6.267  0.4996  0.0324 -0.3282
 5487TIP3    H137876   4.844   4.785   6.214  0.1087 -1.6170 -1.2068
 5487TIP3    H237877   4.863   4.678   6.319  1.4120 -1.4418 -1.2559
 5488TIP3   OH237878   6.312   4.095   1.363  0.0598  0.3866 -0.1762
 5488TIP3    H137879   6.345   4.185   1.368  0.5176  0.3204 -1.8487
 5488TIP3    H237880   6.372   4.045   1.418  0.3702  0.9389 -0.0027
 5489TIP3   OH237881   6.689   5.686  14.976 -0.2102  0.0295 -0.3330
 5489TIP3    H137882   6.671   5.755  14.914  0.4099 -1.0951 -1.7947
 5489TIP3    H237883   6.773   5.649  14.947  0.1184 -0.4735  1.1912
 5490TIP3   OH237884   5.621   5.561  15.303 -0.0557 -0.3576 -0.5287
 5490TIP3    H137885   5.698   5.569  15.246  0.5277  0.5218  0.3656
 5490TIP3    H237886   5.640   5.485  15.357 -0.7087 -1.3265 -1.6350
 5491TIP3   OH237887   3.160   2.700   2.824 -0.2315 -0.7601 -0.2638
 5491TIP3    H137888   3.079   2.652   2.807 -1.2351  0.4181  1.0310
 5491TIP3    H237889   3.179   2.682   2.916 -0.4399  1.0180  0.1497
 5492TIP3   OH237890   0.096   6.103  15.113  0.0803 -0.3226 -0.4083
 5492TIP3    H137891   0.136   6.061  15.188 -0.4706  0.3853  0.2908
 5492TIP3    H237892   0.169   6.129  15.057  0.4581 -1.4113 -0.4216
 5493TIP3   OH237893   6.083   0.124  13.092 -0.1975  0.6785  0.3266
 5493TIP3    H137894   6.007   0.146  13.145  0.1708 -0.9872  1.5810
 5493TIP3    H237895   6.046   0.091  13.010 -0.8563 -0.9922  1.2779
 5494TIP3   OH237896   1.369   4.132  16.002  0.0699 -0.0933 -0.2466
 5494TIP3    H137897   1.330   4.137  15.914  0.1504 -0.5480 -0.3044
 5494TIP3    H237898   1.305   4.082  16.053 -0.6030  1.2780  0.2920
 5495TIP3   OH237899   5.983   3.775  16.343 -0.0953 -0.0920 -0.2613
 5495TIP3    H137900   5.985   3.691  16.389  0.3901  0.4612  0.7371
 5495TIP3    H237901   6.075   3.793  16.321 -0.1187  0.4394  0.0394
 5496TIP3   OH237902   1.508   0.627   2.724 -0.2222 -0.2904 -0.3541
 5496TIP3    H137903   1.583   0.679   2.696  0.5864 -0.8796  0.6887
 5496TIP3    H237904   1.461   0.684   2.786 -0.5221  0.0025 -0.8522
 5497TIP3   OH237905   2.610   3.148  14.639 -0.3381  0.4192 -0.0308
 5497TIP3    H137906   2.674   3.202  14.687 -0.2709 -1.1459  1.6782
 5497TIP3    H237907   2.659   3.069  14.615 -1.0327  0.1752 -0.6491
 5498TIP3   OH237908   0.656   4.695   3.469  0.2880 -0.3039  0.3364
 5498TIP3    H137909   0.670   4.775   3.418  0.2077 -1.0277 -0.8327
 5498TIP3    H237910   0.563   4.696   3.491 -0.4913 -1.8203 -2.6865
 5499TIP3   OH237911   6.211   4.202   4.352  0.5162 -0.3978  0.9836
 5499TIP3    H137912   6.162   4.232   4.429  0.4472 -0.1127  0.8317
 5499TIP3    H237913   6.160   4.235   4.277 -0.3396 -2.1467  0.7815
 5500TIP3   OH237914   4.450   4.904  14.380 -0.1241 -0.2887 -0.0683
 5500TIP3    H137915   4.506   4.885  14.304 -0.8979  1.2433 -1.0482
 5500TIP3    H237916   4.362   4.907  14.345 -0.2858  2.6815  0.4245
 5501TIP3   OH237917   0.613   0.486  12.993  0.1036 -0.1399 -0.0067
 5501TIP3    H137918   0.534   0.532  12.965 -0.6462 -1.5011 -0.1916
 5501TIP3    H237919   0.667   0.480  12.914  0.4998  1.0007  0.1753
 5502TIP3   OH237920   3.785   2.246   2.493  0.3730  0.1699  0.4942
 5502TIP3    H137921   3.799   2.340   2.503 -0.0724  0.2676  0.1975
 5502TIP3    H237922   3.855   2.217   2.434 -0.0506  0.4769 -0.1614
 5503TIP3   OH237923   0.084   0.095  11.347 -0.3934  0.0220 -0.2771
 5503TIP3    H137924   0.175   0.125  11.357  0.4074 -1.6212 -2.3275
 5503TIP3    H237925   0.039   0.169  11.305 -0.0816  0.9163  0.9187
 5504TIP3   OH237926   0.481   3.559   4.283 -0.2886 -0.4561 -0.1762
 5504TIP3    H137927   0.482   3.541   4.377  1.4760 -0.3597 -0.1527
 5504TIP3    H237928   0.478   3.472   4.242 -1.6498 -0.4826 -0.0429
 5505TIP3   OH237929   2.262   2.800   1.160 -0.2474 -0.4238  0.0948
 5505TIP3    H137930   2.313   2.763   1.232  1.3831  1.5594  0.0243
 5505TIP3    H237931   2.321   2.796   1.085 -1.0952 -0.3510 -0.5755
 5506TIP3   OH237932   0.151   2.126  16.792 -0.1299  0.5056 -0.2542
 5506TIP3    H137933   0.144   2.113  16.887  1.8219  1.6669  0.0800
 5506TIP3    H237934   0.070   2.089  16.757 -1.1992  0.6735  1.9327
 5507TIP3   OH237935   5.377   4.443  14.430  0.1573  0.1523 -0.5579
 5507TIP3    H137936   5.285   4.423  14.447  0.3692 -0.1767  0.2098
 5507TIP3    H237937   5.417   4.358  14.411  0.9645 -0.1501  2.2537
 5508TIP3   OH237938   1.403   3.568  15.985 -0.2740 -0.3165  0.4242
 5508TIP3    H137939   1.333   3.608  15.933 -0.2486 -0.9009 -0.0566
 5508TIP3    H237940   1.396   3.612  16.071 -1.6586 -0.8487  0.6050
 5509TIP3   OH237941   3.535   5.132   0.016 -0.3951  0.0166 -0.0317
 5509TIP3    H137942   3.628   5.144  -0.004 -0.7909  0.9494 -1.3825
 5509TIP3    H237943   3.491   5.146  -0.067 -2.0087  2.7990  1.2256
 5510TIP3   OH237944   1.316   0.176  17.013 -0.1975 -0.5357  0.0514
 5510TIP3    H137945   1.275   0.177  17.100 -1.3287  0.4999 -0.4763
 5510TIP3    H237946   1.250   0.213  16.955  1.8115  2.0619 -0.6793
 5511TIP3   OH237947   2.408   1.534  16.388 -0.4219 -0.3005 -0.0881
 5511TIP3    H137948   2.502   1.546  16.382 -0.7744  2.6384 -0.5856
 5511TIP3    H237949   2.386   1.562  16.477 -0.6845 -1.9971  0.3806
 5512TIP3   OH237950   5.139   1.733   2.437  0.0137  0.0920 -0.0044
 5512TIP3    H137951   5.175   1.703   2.353 -3.4197 -0.4633 -1.3614
 5512TIP3    H237952   5.169   1.823   2.445  0.8019 -0.0126 -1.6017
 5513TIP3   OH237953   1.550   2.145   2.814 -0.2918  0.2449 -0.1387
 5513TIP3    H137954   1.463   2.170   2.782 -1.3248 -0.7683  1.7946
 5513TIP3    H237955   1.568   2.207   2.885  0.0119 -0.3362  0.2966
 5514TIP3   OH237956   5.495   3.771  12.294  0.0351 -0.0889 -0.3382
 5514TIP3    H137957   5.531   3.851  12.255  0.9238 -0.7870 -0.9591
 5514TIP3    H237958   5.545   3.761  12.375 -0.3062  0.1670 -0.0952
 5515TIP3   OH237959   3.481   4.223  14.876  0.2069 -0.5722 -0.5044
 5515TIP3    H137960   3.401   4.186  14.914  1.3288 -0.0652  2.4518
 5515TIP3    H237961   3.523   4.150  14.832 -0.2122 -1.6383  0.8378
 5516TIP3   OH237962   0.959   4.168   1.457  0.3955 -0.4738  0.3740
 5516TIP3    H137963   0.907   4.100   1.499  0.9922 -0.6922  0.7688
 5516TIP3    H237964   0.917   4.183   1.373 -0.3667 -0.5728  0.7369
 5517TIP3   OH237965   1.849   0.297   3.433 -0.4917 -0.3261  0.4161
 5517TIP3    H137966   1.899   0.334   3.505  0.8805  0.6872 -1.0107
 5517TIP3    H237967   1.912   0.243   3.385 -0.8586  0.5903 -1.1311
 5518TIP3   OH237968   6.651   4.629  14.020  0.4018  0.4590 -0.0737
 5518TIP3    H137969   6.740   4.626  13.984  0.3025 -0.3356 -0.2703
 5518TIP3    H237970   6.595   4.649  13.945  0.5187  2.1027  0.2572
 5519TIP3   OH237971   3.716   0.178  14.224  0.4098  0.2823  0.0512
 5519TIP3    H137972   3.705   0.087  14.196 -0.2159  0.8629 -1.6786
 5519TIP3    H237973   3.627   0.215  14.223  0.7476  1.1101  0.0348
 5520TIP3   OH237974   4.896   2.995   0.229 -0.2257  0.0069  0.0305
 5520TIP3    H137975   4.939   2.910   0.221  0.4757  0.3355  0.1727
 5520TIP3    H237976   4.960   3.057   0.192 -0.7387  0.4634 -0.0935
 5521TIP3   OH237977   4.020   4.516   4.274 -0.2700 -0.2073  0.2161
 5521TIP3    H137978   3.963   4.575   4.323 -0.3981  0.2960 -0.5201
 5521TIP3    H237979   3.964   4.441   4.254 -1.3067  1.1375 -2.1827
 5522TIP3   OH237980   2.402   6.675   2.875  0.0095  0.1347 -0.0438
 5522TIP3    H137981   2.410   6.733   2.799  2.4593 -2.0294 -1.5526
 5522TIP3    H237982   2.311   6.685   2.904 -0.9194  1.2334 -3.1064
 5523TIP3   OH237983   1.161   5.781   6.352  0.0692 -0.8409  0.0958
 5523TIP3    H137984   1.212   5.805   6.429  0.1244 -2.5356  0.6172
 5523TIP3    H237985   1.136   5.689   6.367  1.5322 -1.7572 -2.6549
 5524TIP3   OH237986   6.435   4.757  11.862 -0.3285  0.2053  0.0168
 5524TIP3    H137987   6.504   4.802  11.812 -0.1151 -0.6327 -0.4544
 5524TIP3    H237988   6.396   4.826  11.916  1.3889  0.5363  0.8712
 5525TIP3   OH237989   3.449   1.339  16.467 -0.1351  0.0109 -0.2479
 5525TIP3    H137990   3.382   1.360  16.532  1.7872  0.6069  1.5566
 5525TIP3    H237991   3.530   1.330  16.517  1.1832 -0.5448 -2.4274
 5526TIP3   OH237992   0.151   2.009   4.738  0.5267  0.5753  0.6900
 5526TIP3    H137993   0.062   1.973   4.739  0.5388  0.4739 -0.4901
 5526TIP3    H237994   0.200   1.949   4.680  0.9868  1.4563  0.1597
 5527TIP3   OH237995   3.411   0.755  15.976 -0.7544  0.1899 -0.1990
 5527TIP3    H137996   3.443   0.682  16.029 -0.8820  0.1177 -0.2208
 5527TIP3    H237997   3.380   0.714  15.895 -0.6827  0.2851 -0.2750
 5528TIP3   OH237998   6.465   2.385  11.432  0.0707 -0.2408 -0.4784
 5528TIP3    H137999   6.387   2.424  11.393  0.0009  0.0290 -0.0739
 5528TIP3    H238000   6.538   2.430  11.389  0.0092 -0.7691 -1.1375
 5529TIP3   OH238001   5.090   4.199  12.154  0.3671 -0.7368 -0.4515
 5529TIP3    H138002   5.081   4.109  12.124  0.0222 -0.6701 -0.5488
 5529TIP3    H238003   5.168   4.198  12.209  1.7108 -0.6403 -2.2745
 5530TIP3   OH238004   1.524   2.220   4.805  0.0592 -0.4494  0.6477
 5530TIP3    H138005   1.470   2.156   4.852  0.5007 -1.0578  0.3400
 5530TIP3    H238006   1.574   2.167   4.743 -0.9524  0.4087 -0.9196
 5531TIP3   OH238007   0.792   5.677  12.100  0.5318  0.2160 -0.6074
 5531TIP3    H138008   0.751   5.619  12.036  1.1123 -0.5107 -0.3168
 5531TIP3    H238009   0.737   5.756  12.098 -2.4526 -1.6573  1.5915
 5532TIP3   OH238010   3.204   5.621   2.273 -0.2747 -0.3303  0.0855
 5532TIP3    H138011   3.133   5.580   2.223 -1.2835 -0.3714  1.5230
 5532TIP3    H238012   3.277   5.625   2.211 -2.0745  1.3799 -1.9931
 5533TIP3   OH238013   1.510   3.196  10.681  0.0513 -1.0455 -0.0109
 5533TIP3    H138014   1.558   3.278  10.672 -0.4520 -0.9256 -1.6037
 5533TIP3    H238015   1.489   3.192  10.775  0.9415  0.1405  0.2587
 5534TIP3   OH238016   5.738   6.083   4.293 -0.1475  0.1881  0.1435
 5534TIP3    H138017   5.709   6.166   4.255 -0.1777 -0.1881 -0.6592
 5534TIP3    H238018   5.677   6.068   4.366 -1.7778 -0.4186 -1.3053
 5535TIP3   OH238019   6.634   6.496  14.504  0.3656 -0.0375 -0.1365
 5535TIP3    H138020   6.560   6.496  14.444  0.1352  0.9952  0.1233
 5535TIP3    H238021   6.704   6.452  14.456 -0.0176  0.1840 -0.9115
 5536TIP3   OH238022   5.225   6.296   1.873  0.6277 -0.4367  0.0600
 5536TIP3    H138023   5.316   6.323   1.882  1.1777 -2.2852  0.2577
 5536TIP3    H238024   5.217   6.267   1.782  0.4727 -1.0688  0.2696
 5537TIP3   OH238025   6.217   2.249  14.785 -0.0420  0.7572 -0.0689
 5537TIP3    H138026   6.144   2.308  14.803 -0.1728  0.9525 -1.1753
 5537TIP3    H238027   6.251   2.279  14.700 -0.2516 -0.9133 -0.7486
 5538TIP3   OH238028   0.608   4.565   2.928  0.4619  0.0602 -0.3343
 5538TIP3    H138029   0.515   4.556   2.947  0.2241 -0.5352 -1.6912
 5538TIP3    H238030   0.611   4.608   2.842  1.4017 -0.7143 -0.7024
 5539TIP3   OH238031   1.958   4.250   1.900 -0.1725 -0.3768 -0.2980
 5539TIP3    H138032   1.919   4.231   1.815  2.5434 -1.3464 -1.3765
 5539TIP3    H238033   1.986   4.165   1.933  0.4693  0.2197  0.7190
 5540TIP3   OH238034   1.685   0.878   2.328  0.7382 -0.2911 -0.2869
 5540TIP3    H138035   1.732   0.881   2.412  0.2317  0.5501 -0.0221
 5540TIP3    H238036   1.595   0.857   2.353  0.3362  1.1178 -0.5035
 5541TIP3   OH238037   1.757   1.879   5.022  0.3438 -0.1450 -0.2455
 5541TIP3    H138038   1.804   1.875   4.939 -0.9782 -0.4588 -0.9886
 5541TIP3    H238039   1.727   1.969   5.030 -0.8194 -0.4621 -0.8520
 5542TIP3   OH238040   4.040   0.666  12.777 -0.1409  0.2039 -0.7310
 5542TIP3    H138041   4.119   0.719  12.787  0.0709 -0.3843  0.8658
 5542TIP3    H238042   3.968   0.729  12.771  0.2302  0.6927 -0.0029
 5543TIP3   OH238043   3.874   3.376   5.551 -0.0692  0.3009 -0.5155
 5543TIP3    H138044   3.910   3.464   5.545  1.1687 -0.0013  1.6984
 5543TIP3    H238045   3.779   3.389   5.549  0.0656  1.8436  1.2010
 5544TIP3   OH238046   4.315   2.810   1.937 -0.2448  0.4203 -0.2185
 5544TIP3    H138047   4.380   2.852   1.993  0.4074  0.3480 -0.9169
 5544TIP3    H238048   4.266   2.753   1.996  1.2592 -0.6169  0.0426
 5545TIP3   OH238049   3.297   5.726   3.766 -0.0347 -0.0146  0.3905
 5545TIP3    H138050   3.287   5.652   3.706  0.3696 -1.5885  2.2040
 5545TIP3    H238051   3.234   5.708   3.836  0.5537  1.0038  1.1913
 5546TIP3   OH238052   5.137   0.017  13.885  0.5557  0.4068 -0.1188
 5546TIP3    H138053   5.088   0.097  13.865  1.1703  0.7137 -0.4032
 5546TIP3    H238054   5.087  -0.053  13.843  1.2419  0.9149 -1.8231
 5547TIP3   OH238055   1.092   5.675   3.155  0.1833  0.3146  0.1121
 5547TIP3    H138056   1.159   5.665   3.087  0.6841 -0.3939  0.6965
 5547TIP3    H238057   1.130   5.737   3.217 -1.0543  2.4373 -1.1972
 5548TIP3   OH238058   2.491   5.776  13.882  0.4793 -0.0534 -1.3330
 5548TIP3    H138059   2.397   5.772  13.867 -0.0346 -0.2707  1.7108
 5548TIP3    H238060   2.518   5.860  13.845 -0.7666 -0.3190 -2.8603
 5549TIP3   OH238061   4.649   5.865   2.481  0.5284  0.2065 -0.9195
 5549TIP3    H138062   4.707   5.875   2.556 -0.9131  0.7411  0.1539
 5549TIP3    H238063   4.707   5.859   2.406  1.9538  0.8519  0.1146
 5550TIP3   OH238064   0.040   3.727   0.803 -0.1390 -0.0915 -0.0666
 5550TIP3    H138065  -0.014   3.799   0.836 -0.5629  0.1153 -1.1777
 5550TIP3    H238066   0.067   3.679   0.882 -0.9491  0.5085  0.5877
 5551TIP3   OH238067   0.102   6.473  13.023  0.3873  0.2795 -0.0134
 5551TIP3    H138068   0.158   6.434  13.090  1.1636  0.6331 -0.4540
 5551TIP3    H238069   0.161   6.491  12.950 -0.0670  1.8090 -0.0058
 5552TIP3   OH238070   3.106   2.929   6.002 -0.1034  0.6208 -0.2726
 5552TIP3    H138071   3.151   2.955   6.082  0.6383  1.9956 -1.1079
 5552TIP3    H238072   3.159   2.967   5.932 -0.4955 -0.9383 -1.4331
 5553TIP3   OH238073   2.470   1.318   4.891  0.2518  0.7426  0.2818
 5553TIP3    H138074   2.498   1.377   4.960 -0.7596  0.2701  1.0937
 5553TIP3    H238075   2.552   1.284   4.854  0.7866  0.9637  1.2624
 5554TIP3   OH238076   5.611   5.222  10.588  0.7367 -0.6062  0.2783
 5554TIP3    H138077   5.648   5.307  10.565  1.8893 -0.7970  1.3881
 5554TIP3    H238078   5.686   5.161  10.585  0.2502 -1.2612  1.1299
 5555TIP3   OH238079   4.419   4.793  17.140 -0.5443 -0.7372  0.3391
 5555TIP3    H138080   4.359   4.734  17.186 -1.7326 -0.4425 -0.7761
 5555TIP3    H238081   4.482   4.820  17.206 -0.6948 -2.3049  1.1660
 5556TIP3   OH238082   3.718   5.722   1.672 -0.0172  0.2859  0.1147
 5556TIP3    H138083   3.743   5.704   1.763  0.5848  1.5214  0.2138
 5556TIP3    H238084   3.756   5.651   1.621  1.5878  0.7907  0.5731
 5557TIP3   OH238085   4.897   5.908  12.094 -0.3213 -0.4243  0.7847
 5557TIP3    H138086   4.897   5.863  12.179  0.1927  1.4970  1.8277
 5557TIP3    H238087   4.891   6.001  12.116 -1.1903  0.0484 -1.3250
 5558TIP3   OH238088   5.812   4.079   2.774 -0.4591 -0.6394  0.6189
 5558TIP3    H138089   5.829   4.040   2.860  0.1855 -1.1699  0.2560
 5558TIP3    H238090   5.717   4.091   2.771 -0.4583 -0.3650  1.5116
 5559TIP3   OH238091   6.688   5.978   6.034 -0.4964 -0.4013 -0.1417
 5559TIP3    H138092   6.615   5.918   6.050  1.3696 -1.9554  2.7398
 5559TIP3    H238093   6.759   5.923   6.003 -0.1580  0.9870 -1.9594
 5560TIP3   OH238094   4.893   2.837  12.697 -0.3529 -0.0982 -0.2032
 5560TIP3    H138095   4.898   2.864  12.788 -1.3652 -1.7786  0.3788
 5560TIP3    H238096   4.874   2.743  12.701  1.6761 -0.6344 -2.1309
 5561TIP3   OH238097   3.100   6.092  11.901 -0.0645  0.3098 -0.1217
 5561TIP3    H138098   3.055   6.033  11.840 -1.1032  0.4442  0.5023
 5561TIP3    H238099   3.148   6.034  11.960 -0.5436  0.1061  0.0724
 5562TIP3   OH238100   6.475   4.479   5.019 -0.0703 -0.0004 -0.5508
 5562TIP3    H138101   6.571   4.471   5.025 -0.1806 -0.7597  0.2646
 5562TIP3    H238102   6.457   4.569   5.044  0.6764  1.1430 -3.7772
 5563TIP3   OH238103   1.573   1.532  16.181 -0.3435 -0.2762 -0.0617
 5563TIP3    H138104   1.604   1.521  16.091 -0.4551 -2.0848  0.1026
 5563TIP3    H238105   1.551   1.625  16.187  0.0246 -0.0507 -1.7872
 5564TIP3   OH238106   5.701   2.661   2.293  0.2380 -0.1890  0.6638
 5564TIP3    H138107   5.660   2.684   2.210  0.3516 -1.4136  0.2628
 5564TIP3    H238108   5.741   2.743   2.324  1.0426  0.0374 -0.9515
 5565TIP3   OH238109   3.123   6.499   1.237 -0.0843 -0.3574  0.1472
 5565TIP3    H138110   3.195   6.437   1.225 -0.4225 -0.6984 -0.1226
 5565TIP3    H238111   3.046   6.444   1.253 -0.0946  0.0362  1.4501
 5566TIP3   OH238112   2.868   4.480   4.929 -0.2779  0.2679 -0.1570
 5566TIP3    H138113   2.853   4.573   4.913 -0.0383  0.0363 -1.9325
 5566TIP3    H238114   2.782   4.440   4.917  0.0692 -0.0215 -1.9571
 5567TIP3   OH238115   2.854   4.092  13.021  0.0218  0.1943 -0.5868
 5567TIP3    H138116   2.822   4.156  13.084  0.0856  0.1004 -0.4592
 5567TIP3    H238117   2.871   4.143  12.941  1.7061  0.6565  0.0360
 5568TIP3   OH238118   3.005   1.794   0.450 -0.4920 -0.2737 -0.0483
 5568TIP3    H138119   2.971   1.862   0.509  1.6966  1.2854 -0.5026
 5568TIP3    H238120   2.958   1.808   0.368 -1.1292 -0.2758  0.3101
 5569TIP3   OH238121   5.319   5.368  13.788 -0.0726 -0.1463  0.0089
 5569TIP3    H138122   5.385   5.310  13.825 -0.3615 -0.9394 -0.6906
 5569TIP3    H238123   5.236   5.322  13.802 -0.3722  0.3952  0.0220
 5570TIP3   OH238124   6.222   5.519   1.377  0.4557 -0.2625  0.1245
 5570TIP3    H138125   6.298   5.489   1.327  1.8039  0.4333  1.7016
 5570TIP3    H238126   6.157   5.449   1.366  0.5758  0.0135 -2.7980
 5571TIP3   OH238127   5.770   3.265   6.303 -0.0603 -0.6120 -0.0924
 5571TIP3    H138128   5.804   3.339   6.254  2.0372 -2.1608 -1.0390
 5571TIP3    H238129   5.701   3.229   6.248 -0.6033  0.2047  0.0491
 5572TIP3   OH238130   4.852   2.931   6.213  0.0932  0.0767  0.4326
 5572TIP3    H138131   4.812   3.016   6.234  0.6957  0.5553 -0.2960
 5572TIP3    H238132   4.946   2.950   6.206  0.1827 -0.5548 -0.1728
 5573TIP3   OH238133   2.821   5.825  12.172 -0.1307  0.2008  0.0373
 5573TIP3    H138134   2.821   5.889  12.100  0.6869  0.5023  0.2983
 5573TIP3    H238135   2.870   5.868  12.242 -0.2099 -0.4252  0.4797
 5574TIP3   OH238136   4.142   2.349   6.487  0.3445  0.0853 -0.0285
 5574TIP3    H138137   4.070   2.328   6.427  0.7211 -0.8979 -0.1479
 5574TIP3    H238138   4.210   2.387   6.431  0.3388  0.0225 -0.0779
 5575TIP3   OH238139   6.773   4.661   0.732 -0.0356  0.4411  0.9450
 5575TIP3    H138140   6.819   4.578   0.728 -1.7471 -0.6839  3.3365
 5575TIP3    H238141   6.693   4.648   0.682  0.6540  1.3379 -0.4267
 5576TIP3   OH238142   5.776   4.178   2.323 -0.2371  0.2310 -0.0884
 5576TIP3    H138143   5.781   4.083   2.335 -2.2255  0.1104  0.0101
 5576TIP3    H238144   5.733   4.209   2.403 -1.4715  0.9644 -1.0176
 5577TIP3   OH238145   0.782   3.434   2.385  0.3905 -0.6367 -0.4466
 5577TIP3    H138146   0.784   3.427   2.289 -0.3639 -0.1402 -0.5042
 5577TIP3    H238147   0.689   3.439   2.407  0.5672 -0.5644  0.3001
 5578TIP3   OH238148   0.303   2.892   1.460 -0.0473 -0.4301 -1.0145
 5578TIP3    H138149   0.354   2.825   1.414  0.3068 -1.1867  0.4314
 5578TIP3    H238150   0.214   2.857   1.461  0.1841 -1.0296 -0.0388
 5579TIP3   OH238151   5.042   4.620  11.359 -0.1369 -0.6400 -0.5490
 5579TIP3    H138152   5.001   4.545  11.317  1.3720 -1.5811 -0.3793
 5579TIP3    H238153   5.053   4.684  11.289 -3.7037  0.4643 -0.1989
 5580TIP3   OH238154   2.802   2.245   4.052 -0.2279  0.1469  0.2173
 5580TIP3    H138155   2.761   2.167   4.014  0.7549 -0.3484  0.1814
 5580TIP3    H238156   2.761   2.253   4.138  0.4851 -1.0664  0.6842
 5581TIP3   OH238157   3.746   2.432  17.105 -0.1690 -0.3007  0.4931
 5581TIP3    H138158   3.714   2.514  17.144 -0.3904  0.9327 -2.2155
 5581TIP3    H238159   3.836   2.424  17.137 -0.6949  0.0910  2.1359
 5582TIP3   OH238160   3.140   5.044   0.148  0.2971 -0.3319  0.4774
 5582TIP3    H138161   3.163   5.046   0.241 -1.4016  0.0554  0.8996
 5582TIP3    H238162   3.109   4.954   0.133 -0.0607 -0.2042  0.4474
 5583TIP3   OH238163   1.965   0.729   6.579 -0.4649  0.2363 -0.4605
 5583TIP3    H138164   1.889   0.677   6.550 -0.8069  0.0780  0.7183
 5583TIP3    H238165   2.032   0.664   6.600  0.4048  0.4037 -2.5442
 5584TIP3   OH238166   5.005   0.834   4.372  0.2517 -0.1560  0.0577
 5584TIP3    H138167   4.956   0.910   4.341 -0.2183 -0.2145  0.6587
 5584TIP3    H238168   5.047   0.864   4.453 -0.1961 -0.6390  0.4686
 5585TIP3   OH238169   0.137   5.314   6.455  0.0128  0.5044 -0.4723
 5585TIP3    H138170   0.152   5.354   6.541 -0.6792 -0.3041  0.0409
 5585TIP3    H238171   0.047   5.338   6.433  0.3600  1.1451 -1.2200
 5586TIP3   OH238172   3.883   2.755  16.847  0.0375  0.2768 -0.5585
 5586TIP3    H138173   3.956   2.783  16.791  1.6654 -0.9494  0.8817
 5586TIP3    H238174   3.922   2.746  16.934 -1.7186 -0.9681  0.1227
 5587TIP3   OH238175   4.562   3.820   0.921 -0.1570 -0.4501  0.2221
 5587TIP3    H138176   4.593   3.736   0.889  1.6741  0.0738  0.5438
 5587TIP3    H238177   4.570   3.879   0.846 -1.6418 -0.5941 -0.0667
 5588TIP3   OH238178   5.825   1.317  17.179  0.5452 -0.1923  0.3086
 5588TIP3    H138179   5.739   1.355  17.199  0.0677 -0.6549 -0.8042
 5588TIP3    H238180   5.865   1.379  17.118  1.2560  0.3165  1.2768
 5589TIP3   OH238181   5.306   1.824  13.951  0.1486 -0.5354  0.4756
 5589TIP3    H138182   5.278   1.899  13.899  0.7060 -1.0336 -0.5393
 5589TIP3    H238183   5.397   1.808  13.925  0.5326 -0.6056  1.8045
 5590TIP3   OH238184   5.993   4.003   0.173  0.0951 -0.3628  0.6245
 5590TIP3    H138185   5.954   4.083   0.208  0.2338 -0.7765  1.7372
 5590TIP3    H238186   6.031   4.030   0.089 -2.2509  0.1199 -0.3129
 5591TIP3   OH238187   5.126   4.058  10.136 -0.0968  0.1894 -0.7089
 5591TIP3    H138188   5.096   4.149  10.143  1.3701  0.6597 -0.3140
 5591TIP3    H238189   5.206   4.064  10.084  0.3380 -0.7995 -0.1586
 5592TIP3   OH238190   4.714   5.954   5.616 -1.0743 -0.3683  0.4553
 5592TIP3    H138191   4.645   5.985   5.675 -0.1449 -1.8247  2.3781
 5592TIP3    H238192   4.670   5.939   5.533 -2.0563  3.6643  0.1158
 5593TIP3   OH238193   5.218   3.426  12.016  0.4541 -0.1796  0.4521
 5593TIP3    H138194   5.286   3.390  12.074  0.2114 -1.1339  0.1570
 5593TIP3    H238195   5.146   3.363  12.023  0.2073  0.0012 -0.4518
 5594TIP3   OH238196   3.296   0.498  16.428 -0.4732  0.4510 -0.8211
 5594TIP3    H138197   3.280   0.580  16.382  0.0488  0.6918 -0.5722
 5594TIP3    H238198   3.311   0.433  16.359  0.3810  0.8239 -0.9901
 5595TIP3   OH238199   1.478   3.293  13.118  0.3414 -0.4073 -0.3440
 5595TIP3    H138200   1.561   3.309  13.073  0.4203 -2.2274 -0.8843
 5595TIP3    H238201   1.418   3.358  13.082  1.0734 -0.2274 -1.2553
 5596TIP3   OH238202   5.962   0.629  11.444  0.7078 -0.1898 -0.1812
 5596TIP3    H138203   5.985   0.645  11.352  0.6938 -0.6471 -0.2641
 5596TIP3    H238204   6.035   0.576  11.478  0.1474 -1.0099 -0.2417
 5597TIP3   OH238205   1.438   6.504   3.913 -0.5620 -0.4134 -0.6317
 5597TIP3    H138206   1.514   6.556   3.889  0.0177 -1.7297 -1.7062
 5597TIP3    H238207   1.368   6.535   3.854 -1.0290  1.1528  0.7018
 5598TIP3   OH238208   3.360   5.814   0.575  0.2601  0.1878  0.1358
 5598TIP3    H138209   3.419   5.740   0.558  2.3056  1.3401  1.9651
 5598TIP3    H238210   3.386   5.881   0.512  0.7144  0.5933  0.7517
 5599TIP3   OH238211   1.207   5.974   0.293  0.0776  0.2863  0.4491
 5599TIP3    H138212   1.111   5.977   0.299 -0.0168 -0.9259 -0.2361
 5599TIP3    H238213   1.237   6.033   0.362 -1.1500  0.1087  1.1574
 5600TIP3   OH238214   4.003   4.879  17.058  0.0206 -0.2837  0.9943
 5600TIP3    H138215   4.032   4.925  16.979 -0.3710 -1.2345  0.2796
 5600TIP3    H238216   3.996   4.947  17.124  0.2583  0.5499  0.1814
 5601TIP3   OH238217   4.674   0.725   6.036 -0.2272 -0.7944  0.2897
 5601TIP3    H138218   4.600   0.665   6.037  0.3075 -1.4563  0.0031
 5601TIP3    H238219   4.657   0.784   6.110 -0.1128 -2.0901  1.3841
 5602TIP3   OH238220   3.629   5.779  10.969  0.5666  0.0118  0.2609
 5602TIP3    H138221   3.672   5.862  10.948  1.9135 -0.4907  0.9436
 5602TIP3    H238222   3.563   5.802  11.034  1.1847  0.5005  0.7242
 5603TIP3   OH238223   4.278   1.715   6.532  0.6359  0.2507  0.0235
 5603TIP3    H138224   4.273   1.620   6.535  0.8171  0.2414 -0.0032
 5603TIP3    H238225   4.250   1.739   6.444 -1.8054  0.3575  0.7775
 5604TIP3   OH238226   4.424   6.585   1.509  0.1866  0.5116  0.0853
 5604TIP3    H138227   4.392   6.606   1.421  0.9797 -0.9161 -0.5578
 5604TIP3    H238228   4.344   6.576   1.562 -0.3280  0.5623 -0.6725
 5605TIP3   OH238229   0.538   3.426  15.444 -0.6659 -0.3429  0.1853
 5605TIP3    H138230   0.457   3.388  15.478  0.6106 -0.3112  3.4118
 5605TIP3    H238231   0.600   3.421  15.517  2.6744 -1.5660 -2.5463
 5606TIP3   OH238232   3.983   1.267  13.324  0.3864  0.5594  0.5238
 5606TIP3    H138233   3.975   1.360  13.301 -1.2523 -0.3312 -2.7951
 5606TIP3    H238234   3.893   1.240  13.345  0.3116 -1.0099 -1.6659
 5607TIP3   OH238235   0.904   0.389   1.589  0.0140 -0.1680 -0.2197
 5607TIP3    H138236   0.845   0.397   1.664  1.6507 -0.0164  1.0632
 5607TIP3    H238237   0.872   0.312   1.542 -1.3927  0.0862  0.2772
 5608TIP3   OH238238   1.383   2.109  13.270  0.1778  0.6403 -0.5862
 5608TIP3    H138239   1.326   2.185  13.268  2.8050  2.8522  2.8009
 5608TIP3    H238240   1.466   2.141  13.234  0.9236 -1.0165 -0.3769
 5609TIP3   OH238241   1.741   0.279  10.999 -0.5474  0.1429 -0.2307
 5609TIP3    H138242   1.712   0.359  10.955 -1.3548 -0.0412 -0.0471
 5609TIP3    H238243   1.805   0.309  11.063 -1.7607  0.8200  0.7058
 5610TIP3   OH238244   5.741   5.470   3.489  0.0042 -0.2120 -0.1866
 5610TIP3    H138245   5.653   5.433   3.501 -0.4498  1.2299  1.0866
 5610TIP3    H238246   5.763   5.507   3.575  0.9800  1.2755 -1.0574
 5611TIP3   OH238247   3.038   6.786   1.874 -0.7264  0.0490 -0.0703
 5611TIP3    H138248   2.992   6.752   1.797 -0.6471 -0.4139  0.0825
 5611TIP3    H238249   3.004   6.874   1.885 -0.7379  0.1194 -0.6375
 5612TIP3   OH238250   3.558   4.338  12.462  0.4014 -0.4008 -0.3606
 5612TIP3    H138251   3.613   4.266  12.430  1.7501  0.4647 -0.0452
 5612TIP3    H238252   3.617   4.414  12.463 -0.7823  0.5218  0.0871
 5613TIP3   OH238253   6.098   6.034  10.517  0.2173  0.1034 -0.3036
 5613TIP3    H138254   6.056   6.105  10.469  0.1749 -0.0169 -0.4452
 5613TIP3    H238255   6.095   5.959  10.457 -0.4555 -0.2354  0.1504
 5614TIP3   OH238256   5.835   3.595   0.925  0.1498  1.0059  0.1303
 5614TIP3    H138257   5.788   3.537   0.985 -0.0776  0.6659 -0.3733
 5614TIP3    H238258   5.913   3.545   0.899 -0.4666  0.5745 -0.9551
 5615TIP3   OH238259   0.914   5.915  14.935 -0.0613 -0.0117  0.1011
 5615TIP3    H138260   0.851   5.843  14.942  0.7026 -0.6051  0.9235
 5615TIP3    H238261   0.887   5.976  15.004  0.2805 -0.2851  0.4809
 5616TIP3   OH238262   5.559   4.683  13.490 -0.9939  0.1159 -0.6722
 5616TIP3    H138263   5.511   4.757  13.527 -0.6102  0.4800 -0.8974
 5616TIP3    H238264   5.497   4.641  13.431 -1.8142 -0.8473  0.8480
 5617TIP3   OH238265   3.035   0.519  10.526 -0.1384 -1.1055  0.1995
 5617TIP3    H138266   3.083   0.600  10.540 -0.5330 -0.9316  0.5603
 5617TIP3    H238267   3.103   0.453  10.509  0.3424 -1.2365  2.4953
 5618TIP3   OH238268   5.576   1.590   3.095  0.2303  0.3785 -0.1093
 5618TIP3    H138269   5.595   1.501   3.122  0.3408  0.2232 -0.6800
 5618TIP3    H238270   5.661   1.627   3.073  0.1922  0.6468  0.1940
 5619TIP3   OH238271   4.567   6.507   4.137  0.8295 -0.0351  0.3691
 5619TIP3    H138272   4.550   6.597   4.111  1.8185  0.3508  1.0137
 5619TIP3    H238273   4.601   6.465   4.058  1.5779  0.5064  0.3882
 5620TIP3   OH238274   6.718   1.172  10.775  0.4869  0.3376 -0.5497
 5620TIP3    H138275   6.638   1.178  10.722  0.7470 -0.9125 -1.0932
 5620TIP3    H238276   6.742   1.263  10.791 -0.6808  0.7308 -0.9405
 5621TIP3   OH238277   4.334   3.094   4.607 -0.3291 -0.3849 -0.0681
 5621TIP3    H138278   4.288   3.010   4.613  0.3132 -0.6895  0.7178
 5621TIP3    H238279   4.265   3.157   4.585 -0.7767 -1.1484 -0.9018
 5622TIP3   OH238280   5.983   2.911  14.227  0.1803  0.1263  0.3666
 5622TIP3    H138281   5.920   2.934  14.158 -0.3069  0.0849  0.7939
 5622TIP3    H238282   6.023   2.995  14.251  0.1417  0.1823  0.2396
 5623TIP3   OH238283   1.773   4.410   2.727  0.1916  0.4457  0.1546
 5623TIP3    H138284   1.799   4.489   2.774  1.6756  0.7535 -1.1331
 5623TIP3    H238285   1.806   4.423   2.638 -0.1809 -1.3149 -0.2652
 5624TIP3   OH238286   3.426   0.926  13.607  0.2208 -0.6046  0.0273
 5624TIP3    H138287   3.487   0.870  13.560  1.3422 -1.0649  2.0068
 5624TIP3    H238288   3.434   0.900  13.698 -1.1873  0.9702  0.6309
 5625TIP3   OH238289   5.860   3.790  12.072  0.5136 -0.0681 -0.2016
 5625TIP3    H138290   5.939   3.825  12.112  0.9782 -0.1233 -1.0821
 5625TIP3    H238291   5.825   3.863  12.021  1.4822 -0.8799 -2.0344
 5626TIP3   OH238292   2.762   6.753  11.469 -0.4434  0.0582  0.1649
 5626TIP3    H138293   2.838   6.698  11.451 -1.2108 -0.6916 -0.7871
 5626TIP3    H238294   2.799   6.835  11.503  0.8307  0.0895 -1.2833
 5627TIP3   OH238295   3.056   2.960   2.283  0.1439  0.3098  0.4407
 5627TIP3    H138296   3.149   2.953   2.266  0.1995  1.2591  0.3664
 5627TIP3    H238297   3.046   3.040   2.334 -0.3791 -0.8839  2.2845
 5628TIP3   OH238298   1.458   2.714   3.146  0.4649  0.1325  0.8815
 5628TIP3    H138299   1.496   2.672   3.069 -0.6649 -0.0889  0.4328
 5628TIP3    H238300   1.526   2.773   3.178  2.2754 -2.3721  1.8105
 5629TIP3   OH238301   0.768   4.095  12.280  0.3461  0.7593  0.0215
 5629TIP3    H138302   0.764   4.067  12.371  0.1775  0.9786  0.0830
 5629TIP3    H238303   0.760   4.014  12.229 -0.8232  0.7662  0.1855
 5630TIP3   OH238304   5.206   1.654   4.750 -0.2345  0.4142  0.6961
 5630TIP3    H138305   5.238   1.632   4.837 -0.1400 -1.1977  0.2683
 5630TIP3    H238306   5.114   1.627   4.751 -0.9774  2.8124  1.1343
 5631TIP3   OH238307   3.921   3.431   1.055  0.4269  0.0937  0.1627
 5631TIP3    H138308   3.895   3.341   1.073  0.5525 -0.0581 -0.4137
 5631TIP3    H238309   3.889   3.481   1.130 -1.3365 -0.1118 -0.4352
 5632TIP3   OH238310   5.856   0.149   4.095  0.3334  0.6090  0.1200
 5632TIP3    H138311   5.923   0.137   4.163  1.5540 -0.5277 -1.2413
 5632TIP3    H238312   5.825   0.060   4.076  1.0556  0.7406 -1.8131
 5633TIP3   OH238313   1.635   6.749  16.100 -0.1189 -0.3477 -0.4445
 5633TIP3    H138314   1.629   6.745  16.004 -0.0745  0.4128 -0.4870
 5633TIP3    H238315   1.728   6.742  16.119 -0.0200  0.6469 -0.5278
 5634TIP3   OH238316   1.516   2.972  14.467  0.3762  0.0030  0.0924
 5634TIP3    H138317   1.487   3.057  14.500  0.6110  1.3136 -2.9217
 5634TIP3    H238318   1.437   2.919  14.464  0.0823  0.3538  1.1924
 5635TIP3   OH238319   6.097   4.938  13.158 -0.7251  0.5011 -0.6193
 5635TIP3    H138320   6.021   4.880  13.165  0.0666 -0.3753  1.2220
 5635TIP3    H238321   6.153   4.896  13.093 -0.1092 -0.8947  0.7729
 5636TIP3   OH238322   5.149   3.646   4.350 -0.4889 -0.1975  0.1343
 5636TIP3    H138323   5.075   3.619   4.405 -1.0535  0.4113 -0.3253
 5636TIP3    H238324   5.216   3.673   4.412 -0.6765 -0.6771  0.5541
 5637TIP3   OH238325   4.583   6.416  12.071  0.2633  0.5659  0.1070
 5637TIP3    H138326   4.651   6.482  12.055  1.1390  0.1231  1.8349
 5637TIP3    H238327   4.504   6.452  12.030  1.2831  1.5882 -1.0042
 5638TIP3   OH238328   6.512   1.643   4.302  0.1733  0.2837  0.2741
 5638TIP3    H138329   6.519   1.593   4.383 -1.4043  1.5382  1.2331
 5638TIP3    H238330   6.446   1.597   4.250  1.9799 -1.1451 -0.8034
 5639TIP3   OH238331   0.607   2.335   0.177 -0.7666  0.2631 -0.0599
 5639TIP3    H138332   0.664   2.405   0.144  0.8666 -0.9852 -0.0157
 5639TIP3    H238333   0.568   2.297   0.098  0.9356 -0.8895 -0.3810
 5640TIP3   OH238334   2.667   5.873   3.225  0.4522  0.0519  0.1017
 5640TIP3    H138335   2.738   5.835   3.277  1.4049  1.4639 -0.1141
 5640TIP3    H238336   2.592   5.816   3.240  1.5276 -1.2342  0.6704
 5641TIP3   OH238337   3.074   0.416   1.621  0.1151 -0.3719  0.1708
 5641TIP3    H138338   3.106   0.370   1.543  1.3879 -1.6784  1.4298
 5641TIP3    H238339   2.983   0.387   1.629 -0.2919  0.4515 -1.3136
 5642TIP3   OH238340   5.425   5.341   4.464 -0.0972  0.0915 -0.1396
 5642TIP3    H138341   5.441   5.392   4.543 -0.6294  0.2082 -0.1071
 5642TIP3    H238342   5.451   5.399   4.392 -0.9375  0.5120 -0.1162
 5643TIP3   OH238343   0.922   6.330  12.586  0.0751  0.5424 -0.3498
 5643TIP3    H138344   0.853   6.322  12.521  0.2699  0.5807 -0.5636
 5643TIP3    H238345   0.876   6.338  12.669 -0.1903  1.3803 -0.5718
 5644TIP3   OH238346   1.343   4.146  16.625 -0.3943  0.3984  0.3543
 5644TIP3    H138347   1.432   4.110  16.619 -0.0999  1.1970 -0.0927
 5644TIP3    H238348   1.355   4.236  16.655 -1.0580  0.5093  0.2990
 5645TIP3   OH238349   4.235   6.565   2.768  0.0912 -0.5501  0.1348
 5645TIP3    H138350   4.262   6.650   2.803 -1.1917 -0.0500 -0.0518
 5645TIP3    H238351   4.316   6.515   2.760  0.8595  0.6633  0.2218
 5646TIP3   OH238352   6.048   2.786   6.537 -0.2831  0.3056  0.1547
 5646TIP3    H138353   6.106   2.712   6.516  1.2141  1.7851 -1.0467
 5646TIP3    H238354   6.103   2.845   6.588 -1.0806  1.2096 -0.0346
 5647TIP3   OH238355   4.634   1.895  16.340 -0.7412  0.1249  0.2514
 5647TIP3    H138356   4.577   1.972  16.337 -1.3789 -0.3219  0.6601
 5647TIP3    H238357   4.722   1.930  16.333 -1.0924  0.7790 -1.0874
 5648TIP3   OH238358   4.263   4.931  12.572 -0.2841  0.4046  0.5602
 5648TIP3    H138359   4.349   4.890  12.572 -1.0167 -1.1981 -1.0591
 5648TIP3    H238360   4.271   5.004  12.510 -0.7402 -1.2235 -1.4585
 5649TIP3   OH238361   1.309   4.065  15.733  0.2443 -0.1195  0.1769
 5649TIP3    H138362   1.296   4.154  15.700  1.2149  0.1826  0.5906
 5649TIP3    H238363   1.361   4.022  15.665  0.1317 -0.2405  0.1683
 5650TIP3   OH238364   5.634   6.470   4.474 -0.2812 -0.2129 -0.4646
 5650TIP3    H138365   5.649   6.454   4.568 -1.2335 -1.9660 -0.5857
 5650TIP3    H238366   5.573   6.544   4.471 -0.8080 -0.6123  0.3171
 5651TIP3   OH238367   4.082   4.607  14.655 -0.2925  0.3899 -0.7714
 5651TIP3    H138368   4.126   4.605  14.570  0.7589 -0.3560 -0.2271
 5651TIP3    H238369   4.137   4.552  14.711 -1.1479  0.6224  0.3069
 5652TIP3   OH238370   5.569   4.289   3.066  0.2346  0.2911  0.5731
 5652TIP3    H138371   5.525   4.371   3.047 -1.7048 -0.8122  0.2334
 5652TIP3    H238372   5.574   4.286   3.162 -0.3922  0.4371  0.6097
 5653TIP3   OH238373   3.083   3.277  14.694 -0.0982 -0.0435  0.1594
 5653TIP3    H138374   3.036   3.359  14.681  0.3294  0.4563  1.5934
 5653TIP3    H238375   3.015   3.212  14.711 -0.3821  0.2274  0.0593
 5654TIP3   OH238376   2.358   5.143   1.537  0.0375  0.5295  0.2058
 5654TIP3    H138377   2.306   5.067   1.510 -0.4637  0.9578 -0.0455
 5654TIP3    H238378   2.399   5.174   1.457 -0.2207  0.8727  0.2046
 5655TIP3   OH238379   0.070   5.226  16.790 -0.1925 -0.2496 -0.0084
 5655TIP3    H138380   0.066   5.136  16.760 -1.2403  0.3633 -1.7334
 5655TIP3    H238381   0.153   5.259  16.755 -0.0732 -0.3795  0.1518
 5656TIP3   OH238382   0.241   3.056  11.582 -0.5175  0.4154 -0.0460
 5656TIP3    H138383   0.223   2.973  11.539  0.6404 -0.6581  1.4812
 5656TIP3    H238384   0.201   3.122  11.526 -1.4208 -1.1731 -1.2860
 5657TIP3   OH238385   0.587   3.411   5.646 -0.6687  0.1594  0.0341
 5657TIP3    H138386   0.553   3.488   5.599 -2.0032  0.5762  1.6578
 5657TIP3    H238387   0.519   3.389   5.709  0.8929 -0.7058  1.4509
 5658TIP3   OH238388   0.729   5.261   6.438  0.4552 -0.4288 -0.5520
 5658TIP3    H138389   0.638   5.231   6.440  0.7100 -1.2133 -0.5995
 5658TIP3    H238390   0.741   5.297   6.351  0.3514 -0.8352 -0.7337
 5659TIP3   OH238391   0.754   3.084   6.600 -0.0243  0.6467 -0.4616
 5659TIP3    H138392   0.782   3.011   6.656 -0.9950 -0.2923 -1.1841
 5659TIP3    H238393   0.732   3.154   6.661  3.0146  1.1324  0.1903
 5660TIP3   OH238394   5.181   0.418   2.156 -0.3576  0.1307 -0.2331
 5660TIP3    H138395   5.157   0.444   2.068 -0.2105 -1.5873 -0.7889
 5660TIP3    H238396   5.246   0.348   2.145 -1.5660 -1.2698  1.2050
 5661TIP3   OH238397   2.457   2.653   4.214 -0.1705  0.2416 -0.8459
 5661TIP3    H138398   2.486   2.673   4.303  0.2200  0.9586 -1.1273
 5661TIP3    H238399   2.366   2.682   4.211 -0.4426 -0.5339 -0.4445
 5662TIP3   OH238400   4.567   2.984  16.693  0.0154  0.2740 -0.3263
 5662TIP3    H138401   4.560   2.954  16.784  1.6427 -0.0796 -0.2987
 5662TIP3    H238402   4.490   3.039  16.680 -0.6461 -0.2986  1.0266
 5663TIP3   OH238403   5.446   5.303   4.050  0.1100  0.2027 -0.9384
 5663TIP3    H138404   5.364   5.336   4.013 -0.3747  0.2429  0.1374
 5663TIP3    H238405   5.419   5.249   4.124  1.1136  2.7289  1.3862
 5664TIP3   OH238406   0.392   3.405   3.094  0.0351  0.3206 -0.8686
 5664TIP3    H138407   0.399   3.359   3.177 -2.0471 -0.1404 -0.9225
 5664TIP3    H238408   0.483   3.418   3.066  0.7197 -0.8041  0.7482
 5665TIP3   OH238409   4.298   2.983  12.510  0.0489  0.2424 -0.3049
 5665TIP3    H138410   4.313   2.970  12.604  0.0591  0.5383 -0.2655
 5665TIP3    H238411   4.384   3.001  12.473 -0.0689  0.9732 -0.2333
 5666TIP3   OH238412   4.805   2.954  10.730 -0.1425  0.4224 -0.0845
 5666TIP3    H138413   4.893   2.991  10.728  0.0541 -0.0491 -0.0780
 5666TIP3    H238414   4.757   3.003  10.663 -0.3108  1.7749  0.9863
 5667TIP3   OH238415   3.875   4.097   0.061 -0.0493 -0.0327 -0.0142
 5667TIP3    H138416   3.889   4.095  -0.033 -0.2675  1.2266 -0.0808
 5667TIP3    H238417   3.782   4.079   0.072  0.2952 -1.8463  0.0642
 5668TIP3   OH238418   1.228   0.662  13.534 -0.4562 -0.1710 -0.3375
 5668TIP3    H138419   1.173   0.604  13.586 -0.1183  0.1985  0.4291
 5668TIP3    H238420   1.190   0.658  13.446 -1.4176 -0.2956  0.0776
 5669TIP3   OH238421   6.415   0.287   0.828  0.4506 -0.2672 -0.2395
 5669TIP3    H138422   6.462   0.209   0.857  2.2284  0.7408 -0.3197
 5669TIP3    H238423   6.381   0.264   0.742  1.4943 -0.7586 -0.5282
 5670TIP3   OH238424   0.619   6.331   3.802  0.0668  0.0932  0.0505
 5670TIP3    H138425   0.528   6.303   3.795  0.3042 -0.2938 -1.8005
 5670TIP3    H238426   0.635   6.338   3.896 -2.2420  1.4089  0.3718
 5671TIP3   OH238427   2.575   5.303   5.242 -0.5653  0.2563  0.2457
 5671TIP3    H138428   2.606   5.311   5.152  0.6041 -0.9297  0.5334
 5671TIP3    H238429   2.650   5.329   5.296 -1.0188  0.2312  0.8949
 5672TIP3   OH238430   2.386   4.468  17.154 -0.0789  0.0636 -0.2113
 5672TIP3    H138431   2.342   4.504  17.076 -0.3092 -2.1262 -1.1379
 5672TIP3    H238432   2.315   4.453  17.216  0.1120  1.8715  0.4666
 5673TIP3   OH238433   0.304   2.617   1.304  0.0157 -0.4867 -0.0470
 5673TIP3    H138434   0.219   2.638   1.267  1.4072  1.4037 -2.3483
 5673TIP3    H238435   0.287   2.547   1.367 -3.2701  0.2122 -0.1076
 5674TIP3   OH238436   3.340   0.231  14.679  0.4480  0.0398 -0.8201
 5674TIP3    H138437   3.396   0.233  14.601  1.9744 -0.4536  0.2485
 5674TIP3    H238438   3.277   0.161  14.661  1.0597 -0.3622 -1.4355
 5675TIP3   OH238439   6.531   1.144  16.545  0.0971 -0.5190 -0.1292
 5675TIP3    H138440   6.466   1.212  16.561 -0.2412 -0.8796  0.0218
 5675TIP3    H238441   6.500   1.068  16.594  0.7084 -0.6445  0.0649
 5676TIP3   OH238442   2.377   2.101  14.303  0.0529 -0.1206 -0.1831
 5676TIP3    H138443   2.355   2.144  14.221  2.9351 -1.3662 -1.7025
 5676TIP3    H238444   2.294   2.066  14.336 -0.8518 -1.3932 -3.6426
 5677TIP3   OH238445   3.895   0.344  14.824 -0.3231 -0.5490 -0.2602
 5677TIP3    H138446   3.946   0.304  14.753  1.9869  0.6660  0.6840
 5677TIP3    H238447   3.924   0.299  14.903 -1.1208 -0.2174  0.2283
 5678TIP3   OH238448   0.476   3.087   6.185  0.3857 -0.1893 -0.0559
 5678TIP3    H138449   0.507   3.031   6.257 -1.3223  0.6939  1.4081
 5678TIP3    H238450   0.547   3.150   6.172  0.4157  0.0835  1.3469
 5679TIP3   OH238451   5.809   4.966   2.512 -0.2073 -0.7514  0.0254
 5679TIP3    H138452   5.779   4.997   2.426 -0.4602  1.8408  0.9922
 5679TIP3    H238453   5.730   4.964   2.566  0.0650 -1.6443  0.3874
 5680TIP3   OH238454   3.330   2.162   3.865  0.0585 -0.4321  0.2580
 5680TIP3    H138455   3.359   2.224   3.798  1.1979 -2.5937 -1.3380
 5680TIP3    H238456   3.334   2.210   3.947  0.1274  1.8165 -1.0434
 5681TIP3   OH238457   0.989   2.887  12.184 -0.3106  0.0241  0.5683
 5681TIP3    H138458   0.899   2.916  12.198  0.0776  0.4370  2.3015
 5681TIP3    H238459   1.015   2.848  12.267  1.3612  0.5984  0.3281
 5682TIP3   OH238460   2.416   1.592   3.396 -0.0891  0.0602  0.7924
 5682TIP3    H138461   2.478   1.544   3.451 -0.0741 -0.6637  0.1349
 5682TIP3    H238462   2.461   1.603   3.313 -0.3898  0.5568  0.6934
 5683TIP3   OH238463   1.738   1.663  13.339  0.1354 -0.3299 -0.1110
 5683TIP3    H138464   1.823   1.638  13.374  0.1564 -0.8184 -0.5090
 5683TIP3    H238465   1.676   1.606  13.382  0.1098 -0.6023 -0.5014
 5684TIP3   OH238466   1.048   4.325   0.213  0.0500  0.3844 -0.0500
 5684TIP3    H138467   1.110   4.368   0.271  0.9729 -0.1744 -0.6142
 5684TIP3    H238468   1.090   4.326   0.127 -0.5268 -0.3882 -0.3538
 5685TIP3   OH238469   0.206   2.353  13.976 -0.4479 -0.1930  0.2248
 5685TIP3    H138470   0.122   2.308  13.968 -0.6444  0.4274 -1.2107
 5685TIP3    H238471   0.185   2.435  14.021 -0.7210  0.2566 -0.7134
 5686TIP3   OH238472   1.507   6.278   1.505  0.0310 -0.1943 -0.1260
 5686TIP3    H138473   1.518   6.183   1.498  2.2059 -0.1603  2.1981
 5686TIP3    H238474   1.594   6.313   1.486 -1.1171  1.4590 -2.5349
 5687TIP3   OH238475   1.476   3.269   4.673  0.3346  0.4662  0.6136
 5687TIP3    H138476   1.508   3.309   4.592  2.4710 -1.3488  0.5066
 5687TIP3    H238477   1.462   3.177   4.650 -0.8899  0.3424  1.8194
 5688TIP3   OH238478   2.881   6.270   6.512  0.1025 -0.0330 -0.0449
 5688TIP3    H138479   2.902   6.359   6.482  1.0273 -0.6946 -1.4517
 5688TIP3    H238480   2.957   6.244   6.564  0.5495 -0.5791 -0.9619
 5689TIP3   OH238481   3.589   3.570   3.195 -0.3378 -0.4029 -0.1481
 5689TIP3    H138482   3.588   3.514   3.117  2.1276 -0.3000 -0.2928
 5689TIP3    H238483   3.682   3.581   3.215 -0.9358 -0.0037  2.5185
 5690TIP3   OH238484   1.341   0.106  14.458  0.6297 -0.9096 -0.1445
 5690TIP3    H138485   1.322   0.123  14.366  1.0027  3.1684  0.4427
 5690TIP3    H238486   1.256   0.092  14.499  0.0509  1.9066 -0.3152
 5691TIP3   OH238487   0.718   3.010   5.669  0.0872  0.1097 -0.0707
 5691TIP3    H138488   0.699   2.927   5.713 -2.6814  0.9769  0.4785
 5691TIP3    H238489   0.705   3.076   5.736  4.3883  0.9244  0.0772
 5692TIP3   OH238490   1.522   0.470   0.219 -0.5688 -0.2706 -0.2029
 5692TIP3    H138491   1.430   0.491   0.233 -0.2582  0.7285  0.3615
 5692TIP3    H238492   1.521   0.384   0.176 -1.7891  0.1789 -1.0947
 5693TIP3   OH238493   4.202   1.154   3.509 -0.1086  0.0946 -0.8464
 5693TIP3    H138494   4.273   1.184   3.453  0.8426  1.1567  0.8890
 5693TIP3    H238495   4.245   1.102   3.577 -0.9620  0.6726  0.1682
 5694TIP3   OH238496   5.426   6.095  14.623  0.5236 -0.1540 -0.1963
 5694TIP3    H138497   5.364   6.082  14.695  0.7984  0.0002  0.0681
 5694TIP3    H238498   5.508   6.058  14.655  1.2710  2.0169  0.4892
 5695TIP3   OH238499   5.650   1.514  12.434 -0.0989  0.0769 -0.1907
 5695TIP3    H138500   5.618   1.469  12.512 -3.9341  1.8577 -0.5894
 5695TIP3    H238501   5.708   1.451  12.392 -1.3848 -2.5808  1.8441
 5696TIP3   OH238502   3.326   4.847   0.499  0.3311 -0.4812 -0.3261
 5696TIP3    H138503   3.402   4.893   0.463  1.1369 -0.1511  1.7532
 5696TIP3    H238504   3.362   4.787   0.564 -0.9218 -2.4814 -1.4331
 5697TIP3   OH238505   4.613   3.971  15.531  0.2383  0.4141 -0.3468
 5697TIP3    H138506   4.625   4.040  15.466  0.7166  0.7340  0.0797
 5697TIP3    H238507   4.532   3.927  15.505 -0.0788  1.1508 -0.5937
 5698TIP3   OH238508   4.638   1.353   1.564 -0.5486 -0.2581  0.2768
 5698TIP3    H138509   4.628   1.410   1.641  0.5634  0.9528 -0.4674
 5698TIP3    H238510   4.558   1.300   1.564 -1.7483  1.4947  0.8142
 5699TIP3   OH238511   1.846   2.597  10.739  0.7016 -0.0018  0.1131
 5699TIP3    H138512   1.786   2.671  10.722 -1.5214 -1.9562 -0.8258
 5699TIP3    H238513   1.928   2.624  10.698 -0.4142  1.5007 -1.2385
 5700TIP3   OH238514   6.128   0.191   6.542  0.4573  0.6068 -0.4086
 5700TIP3    H138515   6.100   0.257   6.606  1.9199  0.5280  0.3409
 5700TIP3    H238516   6.178   0.241   6.477 -0.4960  0.5929 -1.1561
 5701TIP3   OH238517   2.623   3.004  15.975  0.1938  0.2061  0.1433
 5701TIP3    H138518   2.668   3.089  15.980  0.1047  0.2343  0.4716
 5701TIP3    H238519   2.688   2.940  16.002  0.2646  0.1685 -0.1168
 5702TIP3   OH238520   6.207   2.263  13.396  0.1492 -0.3300  0.6032
 5702TIP3    H138521   6.257   2.281  13.475  0.8170  1.8827 -0.2721
 5702TIP3    H238522   6.181   2.350  13.364 -0.2297 -1.1903 -1.5101
 5703TIP3   OH238523   1.855   2.789   1.627 -0.2690  0.5506  0.1139
 5703TIP3    H138524   1.927   2.774   1.565 -1.2010  4.3166 -2.0056
 5703TIP3    H238525   1.895   2.772   1.713  2.6015  0.6068 -1.1293
 5704TIP3   OH238526   0.810   1.212   0.424  0.3987 -0.1965 -0.3481
 5704TIP3    H138527   0.822   1.305   0.446 -1.0216  0.4775 -2.2498
 5704TIP3    H238528   0.879   1.167   0.472 -0.1751  1.6103  2.2915
 5705TIP3   OH238529   5.608   2.872   0.737 -0.5458  0.6031 -0.1493
 5705TIP3    H138530   5.672   2.811   0.702  0.5411  1.5767  0.1032
 5705TIP3    H238531   5.656   2.922   0.803 -2.2925 -0.5067  1.9979
 5706TIP3   OH238532   0.519   6.760  13.907 -0.5909  0.4236 -0.4926
 5706TIP3    H138533   0.556   6.709  13.979  1.6657  0.4308 -1.6167
 5706TIP3    H238534   0.579   6.747  13.834 -1.5137  2.3921 -1.6627
 5707TIP3   OH238535   0.403   6.021   4.303  0.5835 -0.0183  0.7776
 5707TIP3    H138536   0.308   6.009   4.303  0.4579  0.6591 -1.5052
 5707TIP3    H238537   0.418   6.102   4.351 -0.0285 -0.0330  0.9887
 5708TIP3   OH238538   1.161   6.469   1.349  0.0350  0.5896  0.3729
 5708TIP3    H138539   1.122   6.549   1.312 -0.3212  0.2043 -0.0887
 5708TIP3    H238540   1.178   6.414   1.273  0.9717  0.5267  0.6282
 5709TIP3   OH238541   0.867   5.212   0.227 -0.0604 -0.2416 -0.2560
 5709TIP3    H138542   0.897   5.129   0.190 -0.7612  0.1257 -1.6540
 5709TIP3    H238543   0.941   5.243   0.279 -0.0982 -2.1621  1.0118
 5710TIP3   OH238544   5.772   5.631   4.966 -0.1828  0.3053  0.1816
 5710TIP3    H138545   5.838   5.662   5.028  0.8650 -1.0731 -0.2314
 5710TIP3    H238546   5.785   5.685   4.888  1.7845 -1.2923 -0.6177
 5711TIP3   OH238547   2.822   4.025  16.114  0.6556  0.0276  0.5623
 5711TIP3    H138548   2.888   3.968  16.076  0.9855  0.6350  0.2178
 5711TIP3    H238549   2.840   4.024  16.208  1.2603  0.3226  0.4525
 5712TIP3   OH238550   2.265   3.544  13.902  0.4675 -0.1101  0.4338
 5712TIP3    H138551   2.297   3.633  13.908 -1.0097  0.4814 -0.1544
 5712TIP3    H238552   2.240   3.533  13.810 -1.6700 -0.2896  1.0089
 5713TIP3   OH238553   5.471   2.239  13.401 -0.4654  0.0592 -0.1964
 5713TIP3    H138554   5.489   2.196  13.317 -0.2237  0.0014 -0.1140
 5713TIP3    H238555   5.411   2.310  13.379 -0.1109  0.2754 -0.4739
 5714TIP3   OH238556   0.961   5.031   2.534 -0.0914 -0.0032 -0.2284
 5714TIP3    H138557   0.964   5.014   2.440 -2.1144 -1.4675 -0.0662
 5714TIP3    H238558   0.872   5.065   2.549 -0.0839 -0.6384  1.2817
 5715TIP3   OH238559   1.115   0.066  14.858 -0.3583 -0.5968 -0.3073
 5715TIP3    H138560   1.207   0.085  14.880  0.3215 -1.4603 -2.2862
 5715TIP3    H238561   1.075   0.152  14.847 -0.2081 -0.1772  2.1065
 5716TIP3   OH238562   3.813   4.692   4.368 -0.0907 -0.3990  0.3693
 5716TIP3    H138563   3.794   4.786   4.371 -1.3448 -0.4831 -2.5626
 5716TIP3    H238564   3.783   4.659   4.452 -1.2986  1.5712  0.7666
 5717TIP3   OH238565   3.789   6.418   2.996 -0.7885  0.5102 -0.0038
 5717TIP3    H138566   3.738   6.498   3.009 -0.6133  0.1931  3.0520
 5717TIP3    H238567   3.880   6.449   2.991 -0.6919  0.5340  1.4649
 5718TIP3   OH238568   1.966   2.131   6.507 -0.1781 -0.0594  0.9982
 5718TIP3    H138569   2.045   2.113   6.558 -0.3869 -1.8119  0.7145
 5718TIP3    H238570   1.905   2.062   6.532 -0.4479 -0.6656 -1.3060
 5719TIP3   OH238571   3.824   5.856   2.520  0.0130 -0.0895  0.4402
 5719TIP3    H138572   3.768   5.868   2.443  0.2133  2.2489  0.6242
 5719TIP3    H238573   3.912   5.846   2.485 -0.2641 -1.9212  0.2392
 5720TIP3   OH238574   2.726   3.371  16.547  0.3391  0.4624 -0.0905
 5720TIP3    H138575   2.737   3.402  16.637  1.2155 -1.9046  0.6630
 5720TIP3    H238576   2.761   3.282  16.548 -1.2730 -0.2459 -2.3672
 5721TIP3   OH238577   1.519   2.529  15.135  0.0979  0.0313  0.2946
 5721TIP3    H138578   1.489   2.619  15.151  0.3180  0.1542  0.0157
 5721TIP3    H238579   1.598   2.520  15.188  0.6281  0.3220 -0.4501
 5722TIP3   OH238580   6.128   5.789  10.362 -0.0151 -0.9310  0.4165
 5722TIP3    H138581   6.177   5.712  10.334  0.6810 -0.2389 -0.2777
 5722TIP3    H238582   6.051   5.753  10.407 -1.2083 -2.1056 -2.3895
 5723TIP3   OH238583   5.153   3.035  12.712 -0.0317  0.4792  0.2009
 5723TIP3    H138584   5.161   3.130  12.708  1.7133  0.2627 -2.2604
 5723TIP3    H238585   5.122   3.010  12.625  0.6040 -1.2978  0.4686
 5724TIP3   OH238586   2.390   4.365  12.774 -0.0712 -0.2305  0.1359
 5724TIP3    H138587   2.416   4.298  12.837  0.0219 -0.4436 -0.1249
 5724TIP3    H238588   2.357   4.316  12.699 -2.1979  0.0567  0.8687
 5725TIP3   OH238589   0.473   4.003   0.801 -0.3872  0.0300  0.6211
 5725TIP3    H138590   0.427   3.992   0.717 -0.5833 -0.2415  0.7629
 5725TIP3    H238591   0.404   4.027   0.863 -0.2959 -0.1275  0.7824
 5726TIP3   OH238592   0.965   3.221  12.454  0.0519  0.4801 -0.6805
 5726TIP3    H138593   0.913   3.264  12.523  1.2490  1.9572 -0.6841
 5726TIP3    H238594   0.923   3.247  12.372 -0.3384  0.1287 -0.5916
 5727TIP3   OH238595   1.103   1.796  13.958  0.0159 -0.3861 -0.0009
 5727TIP3    H138596   1.070   1.857  14.024 -2.9211 -0.7704 -1.0532
 5727TIP3    H238597   1.180   1.839  13.922 -1.3751  2.2323  0.0249
 5728TIP3   OH238598   4.080   4.794  13.514 -0.3110  0.0096  0.1412
 5728TIP3    H138599   4.067   4.886  13.491  0.6755  0.4413  1.3070
 5728TIP3    H238600   4.101   4.795  13.607 -1.0111 -1.4631  0.3279
 5729TIP3   OH238601   2.547   0.681   0.337 -0.2027 -0.8345 -0.2118
 5729TIP3    H138602   2.546   0.610   0.273 -1.1436  0.4786 -1.6961
 5729TIP3    H238603   2.499   0.647   0.412  0.1289 -2.0793 -0.5574
 5730TIP3   OH238604   0.184   5.372   3.729 -0.2214 -0.7170  0.4764
 5730TIP3    H138605   0.156   5.308   3.795 -1.1129  1.5306  2.3902
 5730TIP3    H238606   0.106   5.426   3.715  0.2163 -0.6621 -1.8625
 5731TIP3   OH238607   1.280   1.667  16.414  0.0328  0.1389  0.0627
 5731TIP3    H138608   1.238   1.738  16.462  0.2785 -0.7550  1.6609
 5731TIP3    H238609   1.373   1.691  16.413 -0.1010  0.6258 -0.8059
 5732TIP3   OH238610   2.495   0.380   5.656  0.3655  0.0805  0.4935
 5732TIP3    H138611   2.402   0.357   5.659  1.0294 -3.0908 -0.9426
 5732TIP3    H238612   2.503   0.438   5.580 -0.5230  0.9329  1.0349
 5733TIP3   OH238613   5.111   6.594   0.464 -0.1764 -0.3777  0.3507
 5733TIP3    H138614   5.180   6.547   0.418 -0.8421 -0.4206 -0.6019
 5733TIP3    H238615   5.085   6.664   0.404  0.0382  0.5395  1.3045
 5734TIP3   OH238616   0.441   1.657   2.997 -0.6227  0.0905  0.2839
 5734TIP3    H138617   0.474   1.589   3.055 -0.6674 -0.1155  0.0669
 5734TIP3    H238618   0.519   1.698   2.960 -0.6169 -0.7704 -0.6640
 5735TIP3   OH238619   0.865   5.257  16.715 -0.0659 -0.6040 -0.1789
 5735TIP3    H138620   0.921   5.222  16.645  1.8749 -0.3322  1.2027
 5735TIP3    H238621   0.776   5.240  16.685  0.6877  0.8062 -3.3974
 5736TIP3   OH238622   4.028   4.074  13.830  0.5323  0.0202  0.2103
 5736TIP3    H138623   4.057   3.993  13.872  1.5754  0.2919  0.0208
 5736TIP3    H238624   3.945   4.094  13.872  0.5725 -0.8129  0.7041
 5737TIP3   OH238625   1.012   4.473   1.090  0.0327 -0.7610  0.3284
 5737TIP3    H138626   1.023   4.519   1.173 -2.9517 -0.3577  0.5740
 5737TIP3    H238627   0.950   4.528   1.041  0.5079 -1.8193 -1.5174
 5738TIP3   OH238628   0.588   0.081  12.342  0.2281 -0.4861 -0.3706
 5738TIP3    H138629   0.584  -0.004  12.385 -1.5073  0.0920  0.6802
 5738TIP3    H238630   0.678   0.111  12.355  1.5284 -3.1726 -2.8213
 5739TIP3   OH238631   5.519   0.642  14.052 -0.1066 -0.4187 -0.0576
 5739TIP3    H138632   5.429   0.614  14.067 -0.4277  0.7334  0.1782
 5739TIP3    H238633   5.555   0.575  13.993 -1.2724 -0.5890 -0.5928
 5740TIP3   OH238634   4.147   1.925  14.958  0.2237 -0.1373  0.5835
 5740TIP3    H138635   4.069   1.910  14.906  0.2784 -0.9826  0.7311
 5740TIP3    H238636   4.196   1.842  14.952  1.1894  0.4431  0.3395
 5741TIP3   OH238637   1.836   4.713  14.969  0.6501  0.2288 -0.2383
 5741TIP3    H138638   1.794   4.705  15.055 -1.1872  1.0957 -1.0276
 5741TIP3    H238639   1.908   4.650  14.971 -1.9355 -2.8289  0.4531
 5742TIP3   OH238640   3.226   3.008  14.672 -0.0763  0.2561  0.7267
 5742TIP3    H138641   3.221   3.058  14.753  1.3277 -0.5871  1.3656
 5742TIP3    H238642   3.158   2.941  14.681  0.1356  0.1075  1.2507
 5743TIP3   OH238643   0.088   5.137  11.106  0.6822  0.0675  0.5338
 5743TIP3    H138644   0.136   5.156  11.187  0.7888 -0.0948  0.5099
 5743TIP3    H238645  -0.000   5.170  11.122  0.7249  0.1100  0.6856
 5744TIP3   OH238646   2.704   5.650   5.629 -0.7093 -0.2104 -0.0488
 5744TIP3    H138647   2.763   5.716   5.666  1.0184 -1.0769 -1.1593
 5744TIP3    H238648   2.707   5.666   5.535 -0.8000 -1.4310 -0.2703
 5745TIP3   OH238649   0.188   4.707   2.864  0.3880 -0.0560  0.1791
 5745TIP3    H138650   0.116   4.689   2.803  0.4932 -1.0017  0.3275
 5745TIP3    H238651   0.218   4.795   2.840  0.3294 -0.3583 -1.0269
 5746TIP3   OH238652   4.592   2.695   6.719 -0.3918  0.0076  0.4279
 5746TIP3    H138653   4.657   2.761   6.693 -0.8352  0.7046  1.0651
 5746TIP3    H238654   4.515   2.746   6.745 -1.4459 -0.8281 -0.9798
 5747TIP3   OH238655   4.140   6.377  12.431  0.9254  0.5466 -0.2143
 5747TIP3    H138656   4.157   6.466  12.401  2.6510 -0.1593 -1.4570
 5747TIP3    H238657   4.100   6.333  12.356  0.7534  0.0968  0.1369
 5748TIP3   OH238658   5.193   2.213  13.938 -0.3699  0.2410 -0.2305
 5748TIP3    H138659   5.220   2.297  13.975 -0.3649 -0.1341  0.6469
 5748TIP3    H238660   5.130   2.235  13.870 -0.7453  0.9360  0.3348
 5749TIP3   OH238661   0.595   6.713  15.972  0.1731  0.1503 -0.4990
 5749TIP3    H138662   0.578   6.720  15.879  0.9011  1.4099 -0.5480
 5749TIP3    H238663   0.658   6.783  15.991  0.6805 -0.6173  0.7682
 5750TIP3   OH238664   4.249   3.325  14.488  0.1589 -0.0591  0.0394
 5750TIP3    H138665   4.182   3.393  14.497 -1.7259 -1.8955  0.3959
 5750TIP3    H238666   4.330   3.373  14.468 -1.1074  2.2614  0.2865
 5751TIP3   OH238667   5.641   4.498   2.684 -0.0326 -0.5919  0.6342
 5751TIP3    H138668   5.669   4.495   2.775 -0.4996  0.9488  0.8420
 5751TIP3    H238669   5.548   4.523   2.688  0.2662  0.7318 -0.3005
 5752TIP3   OH238670   5.321   5.728   1.693 -0.0720  0.4571  0.6144
 5752TIP3    H138671   5.334   5.733   1.598 -3.3737 -0.2655  0.0614
 5752TIP3    H238672   5.359   5.809   1.727  0.6208  0.9930 -1.3913
 5753TIP3   OH238673   6.647   3.588  11.411 -0.4173  0.4373 -0.6498
 5753TIP3    H138674   6.660   3.584  11.317 -1.4617  0.1344 -0.7893
 5753TIP3    H238675   6.567   3.640  11.422  0.8519  2.2510  0.1656
 5754TIP3   OH238676   2.239   0.501  16.653  0.4518 -0.0576  0.1708
 5754TIP3    H138677   2.222   0.590  16.624 -1.0468  0.0847  1.4526
 5754TIP3    H238678   2.182   0.446  16.599  0.0167 -0.0676  0.6347
 5755TIP3   OH238679   4.532   5.944  16.360  0.3674 -0.0581  0.3293
 5755TIP3    H138680   4.554   6.001  16.286 -1.5798 -0.3046 -0.4871
 5755TIP3    H238681   4.532   5.855  16.323  0.5853 -0.3121  0.9225
 5756TIP3   OH238682   3.939   1.853   4.548  0.4592  0.2815 -0.3300
 5756TIP3    H138683   3.871   1.920   4.538  1.1065  0.7297 -1.8905
 5756TIP3    H238684   4.021   1.901   4.537  0.9525 -0.6600 -0.7778
 5757TIP3   OH238685   0.548   1.776   5.646 -0.3051 -0.5284 -0.1276
 5757TIP3    H138686   0.570   1.868   5.632 -1.1284 -0.5297 -1.5275
 5757TIP3    H238687   0.465   1.764   5.600 -0.2965 -1.9247  0.1958
 5758TIP3   OH238688   0.778   3.722  12.904 -0.1564  0.0474  0.1045
 5758TIP3    H138689   0.694   3.749  12.867 -0.2123 -0.4058 -0.1064
 5758TIP3    H238690   0.782   3.764  12.990  0.3406  1.8057 -0.7536
 5759TIP3   OH238691   5.976   4.946   0.241  0.2550  0.0866 -0.9516
 5759TIP3    H138692   6.068   4.931   0.219  0.6438  1.5251 -0.3755
 5759TIP3    H238693   5.928   4.930   0.160  0.7307 -3.0162 -0.6986
 5760TIP3   OH238694   0.306   3.112   2.978 -0.1350 -0.6544  0.1702
 5760TIP3    H138695   0.251   3.141   3.050  0.9314 -0.5992  0.9729
 5760TIP3    H238696   0.280   3.167   2.904 -0.6499 -0.1469  0.7270
 5761TIP3   OH238697   1.332   2.473  14.362  0.9094  0.1746 -0.1568
 5761TIP3    H138698   1.313   2.399  14.419 -2.0192 -0.4249 -1.7956
 5761TIP3    H238699   1.424   2.463  14.339  1.1953 -1.5310  1.6461
 5762TIP3   OH238700   2.556   5.212  15.663  0.1809 -0.8313 -0.2514
 5762TIP3    H138701   2.569   5.180  15.573 -0.4597 -1.4803 -0.1177
 5762TIP3    H238702   2.464   5.237  15.666 -0.1362 -2.0669  0.6114
 5763TIP3   OH238703   2.088   1.283   1.078  0.2979  0.0778 -0.5266
 5763TIP3    H138704   2.133   1.301   0.995  0.6651 -0.4618 -0.4448
 5763TIP3    H238705   2.135   1.209   1.115 -0.5466 -0.3741 -0.3476
 5764TIP3   OH238706   3.882   3.923   0.331 -0.1788  0.2887  0.1810
 5764TIP3    H138707   3.921   3.959   0.251  0.4607 -1.2560 -0.2199
 5764TIP3    H238708   3.791   3.908   0.308  0.0434 -0.3123 -0.3187
 5765TIP3   OH238709   6.128   5.698   3.727  0.6296  0.4090  0.5045
 5765TIP3    H138710   6.092   5.694   3.816  0.5524  3.1121  0.6342
 5765TIP3    H238711   6.060   5.661   3.672 -0.6308  1.5814  1.2398
 5766TIP3   OH238712   6.786   5.351   2.639  0.3413  0.2240 -0.0769
 5766TIP3    H138713   6.741   5.267   2.635 -1.0340  0.9211  0.5093
 5766TIP3    H238714   6.851   5.347   2.569 -2.4208  0.2164 -2.7480
 5767TIP3   OH238715   3.628   2.156  17.123 -0.5500  0.0482 -0.0844
 5767TIP3    H138716   3.673   2.239  17.110  0.1868 -0.5014 -1.1202
 5767TIP3    H238717   3.619   2.147  17.218 -1.0324  1.5159  0.0205
 5768TIP3   OH238718   3.124   3.782  14.707  0.3344 -0.0134  0.2326
 5768TIP3    H138719   3.189   3.763  14.776  2.7090 -0.0640 -1.9386
 5768TIP3    H238720   3.177   3.810  14.632 -2.2337  0.5249 -1.4167
 5769TIP3   OH238721   0.197   5.978  11.578 -0.4351 -0.0908  0.3611
 5769TIP3    H138722   0.213   6.060  11.530  1.6884 -1.8608 -2.0667
 5769TIP3    H238723   0.140   5.927  11.521 -1.7283 -0.3412  1.8555
 5770TIP3   OH238724   6.614   6.683   0.218  0.1447 -0.1495 -0.9448
 5770TIP3    H138725   6.650   6.634   0.292 -0.8874  0.4121 -0.0716
 5770TIP3    H238726   6.630   6.775   0.240 -0.6948  0.0440 -1.1462
 5771TIP3   OH238727   2.728   3.077  16.294  0.5619 -0.1249 -0.6042
 5771TIP3    H138728   2.746   3.017  16.221 -0.0133 -1.1477  0.0887
 5771TIP3    H238729   2.774   3.158  16.270  1.4369 -0.8703 -1.4907
 5772TIP3   OH238730   4.929   5.056   4.435 -0.4422  0.4890  0.1255
 5772TIP3    H138731   4.912   4.975   4.387 -2.4608  2.2318 -2.2468
 5772TIP3    H238732   5.025   5.062   4.437 -0.2765 -1.3450 -0.7315
 5773TIP3   OH238733   2.567   3.155  13.264  0.4104  0.0431 -0.1439
 5773TIP3    H138734   2.588   3.136  13.172 -2.2246 -0.3033 -0.7007
 5773TIP3    H238735   2.544   3.248  13.264 -0.6801 -0.2177 -0.0645
 5774TIP3   OH238736   5.853   1.755  15.626 -0.2918  0.2861  0.1073
 5774TIP3    H138737   5.809   1.697  15.564 -0.9306  0.9158 -0.0358
 5774TIP3    H238738   5.882   1.698  15.697  0.1739 -0.3885 -0.6290
 5775TIP3   OH238739   6.500   1.970  17.033 -0.2440  0.6228 -0.3912
 5775TIP3    H138740   6.442   1.982  16.958  0.1142 -0.2051 -0.8006
 5775TIP3    H238741   6.588   1.987  16.998 -0.1999  1.5221  0.1447
 5776TIP3   OH238742   3.168   4.224   4.765  0.1326 -0.3335  0.3532
 5776TIP3    H138743   3.187   4.223   4.859  1.3484 -0.5659  0.1036
 5776TIP3    H238744   3.076   4.196   4.760  0.7467 -2.6713  1.3190
 5777TIP3   OH238745   3.979   0.559  16.925 -0.4655 -0.2826  0.1425
 5777TIP3    H138746   3.945   0.533  16.840  2.5276  0.9457 -1.5002
 5777TIP3    H238747   3.964   0.653  16.930  2.4721  0.2728 -0.5776
 5778TIP3   OH238748   6.593   5.131   6.169 -0.1912 -0.3680  0.2914
 5778TIP3    H138749   6.689   5.133   6.159 -0.0293  0.8556  1.8323
 5778TIP3    H238750   6.570   5.221   6.192 -1.5717 -0.9310  1.1621
 5779TIP3   OH238751   3.869   4.975  13.219 -0.3971  0.6241 -0.2297
 5779TIP3    H138752   3.951   4.993  13.172  0.3622 -0.0769  0.8028
 5779TIP3    H238753   3.801   5.007  13.160  0.5968  0.8937 -1.2687
 5780TIP3   OH238754   0.426   1.683   3.593  0.1865 -0.5408 -0.3621
 5780TIP3    H138755   0.477   1.660   3.670  1.4217 -1.7725 -1.5280
 5780TIP3    H238756   0.339   1.646   3.610  1.1268 -2.9459 -0.6125
 5781TIP3   OH238757   0.312   1.191  11.822 -0.8940 -0.5538  0.2030
 5781TIP3    H138758   0.267   1.146  11.893  0.6496 -1.4839  0.6030
 5781TIP3    H238759   0.291   1.140  11.744  0.1251 -1.4782  0.5195
 5782TIP3   OH238760   3.574   3.738  13.258  0.2536 -0.4786  0.2398
 5782TIP3    H138761   3.617   3.667  13.210  1.3425 -0.5980  1.3524
 5782TIP3    H238762   3.481   3.721  13.248  0.4713 -0.7880 -1.3907
 5783TIP3   OH238763   5.190   5.099   1.750  0.3759 -0.1616 -0.1566
 5783TIP3    H138764   5.263   5.069   1.696 -0.8876 -0.8406 -1.5150
 5783TIP3    H238765   5.155   5.019   1.790 -3.2593 -0.7428 -4.1084
 5784TIP3   OH238766   0.761   2.212  14.323 -0.2789 -0.1393  0.6058
 5784TIP3    H138767   0.748   2.262  14.243 -0.8113 -0.3172  0.5782
 5784TIP3    H238768   0.844   2.244  14.358  1.5547 -2.2505 -1.6183
 5785TIP3   OH238769   3.762   1.237   3.403 -0.2238  0.1576  0.0223
 5785TIP3    H138770   3.804   1.253   3.487 -0.0201  0.2329 -0.0929
 5785TIP3    H238771   3.670   1.258   3.418 -0.3941 -0.9590  0.5312
 5786TIP3   OH238772   3.103   3.371   5.306 -0.5729 -0.2868 -0.1342
 5786TIP3    H138773   3.048   3.367   5.228  1.2148 -0.4972 -1.4196
 5786TIP3    H238774   3.170   3.437   5.285  0.7536 -1.3457  0.6738
 5787TIP3   OH238775   3.064   5.865  11.494 -0.4894 -0.7522 -0.4721
 5787TIP3    H138776   2.987   5.815  11.522 -1.1102 -0.2831 -1.3108
 5787TIP3    H238777   3.036   5.910  11.414 -0.3167  1.8606  0.8750
 5788TIP3   OH238778   4.151   6.729   0.741 -1.1111  0.1733 -0.1572
 5788TIP3    H138779   4.172   6.715   0.834  0.7809  1.5110 -0.3522
 5788TIP3    H238780   4.077   6.789   0.742 -0.7596  0.6096  0.4911
 5789TIP3   OH238781   2.212   5.815  12.329  0.0103  0.2833 -0.2239
 5789TIP3    H138782   2.304   5.790  12.318 -0.5941 -2.1609  0.0474
 5789TIP3    H238783   2.196   5.877  12.258  1.5307 -0.2649 -1.0689
 5790TIP3   OH238784   4.630   3.539  10.938  0.0919  0.2476  0.2564
 5790TIP3    H138785   4.563   3.603  10.915 -1.7728 -1.5389  0.4608
 5790TIP3    H238786   4.697   3.547  10.870 -1.2716  0.7690 -1.0482
 5791TIP3   OH238787   3.636   4.759   2.608  0.5254  0.4572  0.7254
 5791TIP3    H138788   3.639   4.755   2.513  1.3055  0.2090  0.7649
 5791TIP3    H238789   3.727   4.771   2.636  0.3930 -0.2500  1.4761
 5792TIP3   OH238790   2.331   3.202  14.052  0.0453 -0.5845  0.0148
 5792TIP3    H138791   2.260   3.235  14.107  0.4306  0.7426 -0.2743
 5792TIP3    H238792   2.370   3.131  14.103 -1.6012 -1.4492  0.0901
 5793TIP3   OH238793   2.153   2.582   2.089  0.1569  0.3220  0.3105
 5793TIP3    H138794   2.091   2.513   2.066  1.0804 -0.6026  0.5507
 5793TIP3    H238795   2.182   2.560   2.178  0.7668  0.7839  0.2331
 5794TIP3   OH238796   2.589   1.826  17.034  0.0185 -0.7065  0.4708
 5794TIP3    H138797   2.559   1.916  17.022  0.2048 -0.7907 -0.6446
 5794TIP3    H238798   2.508   1.775  17.042 -0.0832 -0.4108  1.3587
 5795TIP3   OH238799   6.662   5.151   4.520  0.1078  0.5926  1.0202
 5795TIP3    H138800   6.685   5.239   4.549 -1.8634  1.2471  0.6829
 5795TIP3    H238801   6.574   5.160   4.483  0.1620 -1.3837  0.3416
 5796TIP3   OH238802   3.658   3.096  14.192  0.5785 -0.0854 -0.0188
 5796TIP3    H138803   3.628   3.161  14.256 -0.7256 -0.3879 -0.2969
 5796TIP3    H238804   3.714   3.037  14.243  1.5688  1.0936  0.2894
 5797TIP3   OH238805   3.606   0.971  11.622 -0.2871  0.1080  0.2491
 5797TIP3    H138806   3.681   0.933  11.576 -1.5495 -0.6620 -1.2541
 5797TIP3    H238807   3.585   0.907  11.691 -1.1649 -0.9819 -1.0021
 5798TIP3   OH238808   1.104   5.382  15.147  0.1053 -0.4209  0.4307
 5798TIP3    H138809   1.020   5.366  15.190  0.3413 -0.6941  0.7921
 5798TIP3    H238810   1.085   5.377  15.053  0.1296 -2.5705  0.5259
 5799TIP3   OH238811   6.095   3.635  10.557  0.2824 -0.8257 -0.3413
 5799TIP3    H138812   6.076   3.727  10.539 -1.9073 -1.3586 -0.8781
 5799TIP3    H238813   6.175   3.617  10.507  1.1959  0.9786  0.4215
 5800TIP3   OH238814   2.385   1.779   5.743  0.0267  0.2381  0.0093
 5800TIP3    H138815   2.421   1.691   5.741 -1.3582 -0.3264 -0.9421
 5800TIP3    H238816   2.293   1.767   5.767 -0.1515  1.4259 -0.0448
 5801TIP3   OH238817   2.292   4.678   3.345 -0.5051  0.0744  0.5512
 5801TIP3    H138818   2.266   4.595   3.385  1.1568  0.2211  1.9761
 5801TIP3    H238819   2.282   4.743   3.415 -1.6818  1.0737 -0.5197
 5802TIP3   OH238820   6.567   3.300   1.867  0.5741  0.3168 -0.0193
 5802TIP3    H138821   6.637   3.299   1.933  1.6610 -3.1157 -1.1236
 5802TIP3    H238822   6.488   3.278   1.916  0.7128  1.4230  0.7340
 5803TIP3   OH238823   6.109   1.889  15.208  0.4707 -0.3619  0.5809
 5803TIP3    H138824   6.079   1.818  15.265 -1.9083  1.3201  1.5423
 5803TIP3    H238825   6.042   1.894  15.139  0.1718  1.4400  0.9738
 5804TIP3   OH238826   0.690   0.514  12.454 -0.0046  0.6184  0.0755
 5804TIP3    H138827   0.599   0.509  12.483  0.3352 -0.9694  0.9393
 5804TIP3    H238828   0.688   0.485  12.363 -0.5423  1.8850 -0.3231
 5805TIP3   OH238829   4.952   2.660   4.297 -0.5520 -0.1317 -0.3814
 5805TIP3    H138830   4.998   2.591   4.345  0.7400  1.2852  0.4531
 5805TIP3    H238831   4.960   2.634   4.205 -0.7465 -1.4885 -0.0213
 5806TIP3   OH238832   1.915   3.353   3.518  0.4325  0.6878 -0.4550
 5806TIP3    H138833   1.929   3.272   3.470 -1.1143  0.4850 -0.6011
 5806TIP3    H238834   1.850   3.401   3.466 -0.1594  1.1171  0.6514
 5807TIP3   OH238835   6.611   5.184  16.930 -0.0096 -0.1620  0.8678
 5807TIP3    H138836   6.659   5.244  16.873 -1.9694  0.8543  0.2188
 5807TIP3    H238837   6.537   5.237  16.963 -1.6501 -2.1456  0.4773
 5808TIP3   OH238838   0.526   5.325   4.053  0.3462 -0.6864  0.0197
 5808TIP3    H138839   0.549   5.377   4.130  0.8372 -0.3590 -0.3450
 5808TIP3    H238840   0.431   5.318   4.056  0.0425  2.2634 -1.2335
 5809TIP3   OH238841   4.744   2.487   0.170 -0.6138 -0.1628  0.0383
 5809TIP3    H138842   4.756   2.437   0.090 -1.0245  1.5652 -1.1442
 5809TIP3    H238843   4.743   2.578   0.141  0.9436  0.5867  2.2215
 5810TIP3   OH238844   1.260   2.588   0.557 -0.1489  0.1916  0.2664
 5810TIP3    H138845   1.249   2.553   0.645  2.8071 -0.4542  0.4309
 5810TIP3    H238846   1.248   2.512   0.499 -0.9220  0.3806  0.1733
 5811TIP3   OH238847   6.713   5.312   0.459  0.6071 -0.7139  1.1137
 5811TIP3    H138848   6.798   5.284   0.426  0.0471 -1.3933  0.2285
 5811TIP3    H238849   6.695   5.253   0.533  1.2358 -0.0802  1.7825
 5812TIP3   OH238850   3.311   1.641  16.509 -0.1279  0.2758  0.1149
 5812TIP3    H138851   3.375   1.646  16.580 -0.1362 -0.7548  0.2104
 5812TIP3    H238852   3.362   1.658  16.430  0.0032  0.8083  0.3140
 5813TIP3   OH238853   1.761   3.261  12.546  0.3984 -0.3173 -0.1720
 5813TIP3    H138854   1.833   3.218  12.591  0.1875 -0.1703  0.3009
 5813TIP3    H238855   1.702   3.189  12.522 -0.4778 -0.1886  1.5588
 5814TIP3   OH238856   5.046   3.575  17.083 -0.3920 -0.1779 -0.0905
 5814TIP3    H138857   5.050   3.670  17.094 -3.3005  0.0078  0.0018
 5814TIP3    H238858   5.057   3.540  17.171 -2.0650  0.2542  0.3188
 5815TIP3   OH238859   1.238   3.656   3.666 -0.2861  0.2497  0.3511
 5815TIP3    H138860   1.202   3.567   3.659  3.1270 -1.1158 -1.0729
 5815TIP3    H238861   1.299   3.652   3.739  2.3682  0.4495 -1.7906
 5816TIP3   OH238862   4.809   4.688   4.089 -0.3153 -0.2644 -0.2218
 5816TIP3    H138863   4.731   4.643   4.122 -0.8191  1.5142  1.1396
 5816TIP3    H238864   4.779   4.730   4.008 -0.7012  0.1141  0.1081
 5817TIP3   OH238865   6.379   6.583  12.554  0.1450 -0.5899  0.0811
 5817TIP3    H138866   6.361   6.506  12.499 -0.9258 -1.1721  1.2034
 5817TIP3    H238867   6.337   6.655  12.509  0.4644 -0.8043 -0.5722
 5818TIP3   OH238868   2.890   1.569  16.746  0.3923  0.2141 -0.0774
 5818TIP3    H138869   2.942   1.638  16.787 -0.8347  1.0189  0.1267
 5818TIP3    H238870   2.950   1.530  16.682  1.1524  1.3573 -0.0853
 5819TIP3   OH238871   2.828   1.619  13.462  0.3467  0.0070  0.2495
 5819TIP3    H138872   2.838   1.532  13.425 -2.2158 -1.0075  1.7886
 5819TIP3    H238873   2.916   1.644  13.490  1.4476 -1.2031 -2.0256
 5820TIP3   OH238874   2.362   5.811  14.900  0.4309  0.4421  0.2913
 5820TIP3    H138875   2.448   5.769  14.904  0.2029 -0.3707 -2.5337
 5820TIP3    H238876   2.368   5.870  14.824 -1.4087  0.6253  0.2722
 5821TIP3   OH238877   3.547   4.985   0.879  0.4673  0.3458 -0.1231
 5821TIP3    H138878   3.641   4.992   0.893  0.6551  0.6065 -1.4107
 5821TIP3    H238879   3.512   5.068   0.910  0.6496  0.2325  0.3970
 5822TIP3   OH238880   3.412   5.476   2.968 -0.1048  0.0895 -0.0693
 5822TIP3    H138881   3.408   5.568   2.995 -0.1548 -0.2378  1.0543
 5822TIP3    H238882   3.449   5.479   2.880 -0.6092  1.2249 -0.2575
 5823TIP3   OH238883   4.357   0.311  11.457 -0.0811  0.0706 -0.5816
 5823TIP3    H138884   4.365   0.315  11.362  2.6530  0.5854 -0.3755
 5823TIP3    H238885   4.318   0.226  11.474  0.9968 -0.7633 -2.1101
 5824TIP3   OH238886   1.060   6.007   1.105  0.0786  0.5842  0.0340
 5824TIP3    H138887   1.026   5.981   1.190  0.4909 -0.9138 -0.2244
 5824TIP3    H238888   1.102   5.927   1.072 -2.4344  0.3032 -2.7435
 5825TIP3   OH238889   1.313   4.903  12.287  0.7957  0.1938 -0.3864
 5825TIP3    H138890   1.286   4.820  12.326 -0.1978  0.7629  0.1835
 5825TIP3    H238891   1.331   4.960  12.362 -0.7250  1.1678 -0.7360
 5826TIP3   OH238892   1.205   0.043   3.273 -0.8963  0.2813 -0.3967
 5826TIP3    H138893   1.273  -0.022   3.286 -0.6051  0.9732  1.6237
 5826TIP3    H238894   1.222   0.078   3.185  0.7676 -0.2132 -0.2797
 5827TIP3   OH238895   5.965   2.480   0.658  0.7101  0.1462  0.8410
 5827TIP3    H138896   5.935   2.390   0.645  2.0788 -0.1504 -0.3574
 5827TIP3    H238897   6.057   2.479   0.632  0.1629  2.3992 -1.3544
 5828TIP3   OH238898   4.424   4.945  13.412  0.1852 -0.3234 -0.1775
 5828TIP3    H138899   4.404   5.018  13.354  0.0559 -0.3308 -0.1416
 5828TIP3    H238900   4.372   4.962  13.491 -0.4464 -0.8609 -0.4706
 5829TIP3   OH238901   2.750   0.945   2.106  0.0422 -0.6532  0.2098
 5829TIP3    H138902   2.765   0.896   2.025  1.9371  1.1214 -0.5799
 5829TIP3    H238903   2.838   0.973   2.133 -1.0299  3.3023 -0.0447
 5830TIP3   OH238904   4.472   4.306   5.553 -0.3496  0.0537  0.1060
 5830TIP3    H138905   4.397   4.366   5.548 -1.2467 -1.0609  0.1384
 5830TIP3    H238906   4.509   4.320   5.640 -1.5305 -0.5957  0.7181
 5831TIP3   OH238907   4.297   3.945   1.049 -0.2458  0.0000  0.1273
 5831TIP3    H138908   4.391   3.925   1.045 -0.2079  0.0807  0.5738
 5831TIP3    H238909   4.268   3.939   0.958 -0.3708 -2.7882  0.2878
 5832TIP3   OH238910   1.253   2.799  13.088 -0.0907  0.0321 -0.2411
 5832TIP3    H138911   1.326   2.845  13.048  0.4051  0.3913  1.0888
 5832TIP3    H238912   1.205   2.866  13.136  0.7118 -0.8304  1.8137
 5833TIP3   OH238913   1.400   1.287   3.111  0.6181  0.1858 -0.1594
 5833TIP3    H138914   1.468   1.319   3.169  0.8284 -0.7498  0.1228
 5833TIP3    H238915   1.330   1.352   3.116  1.0975  0.6620  0.2834
 5834TIP3   OH238916   4.947   5.263  15.676  0.4700  0.1583  0.6218
 5834TIP3    H138917   4.854   5.250  15.693 -0.0511  1.4188 -1.1678
 5834TIP3    H238918   4.990   5.231  15.756 -1.3956 -1.5348  0.9895
 5835TIP3   OH238919   4.266   5.869   3.901 -0.2469 -0.0024  0.0360
 5835TIP3    H138920   4.303   5.782   3.888 -0.2797 -0.0054 -0.0357
 5835TIP3    H238921   4.322   5.928   3.850  1.9582  0.5302  2.9648
 5836TIP3   OH238922   0.448   0.528  14.304  0.1325  0.0805  0.1084
 5836TIP3    H138923   0.396   0.537  14.224 -2.0574  1.9880  1.6738
 5836TIP3    H238924   0.539   0.525  14.273 -0.5234  2.8698 -2.3527
 5837TIP3   OH238925   3.392   3.773   5.762  0.2635  0.0516  0.5740
 5837TIP3    H138926   3.365   3.865   5.764 -0.5361 -0.0791 -2.0997
 5837TIP3    H238927   3.474   3.773   5.712  0.6640 -0.6030  1.2225
 5838TIP3   OH238928   4.653   6.229   5.243 -0.5760  0.5169 -0.2799
 5838TIP3    H138929   4.745   6.244   5.218  0.2008  0.1435  2.2406
 5838TIP3    H238930   4.626   6.311   5.284 -1.3779  0.6128 -0.9912
 5839TIP3   OH238931   4.669   2.996  13.253 -0.4317  0.9410  0.5626
 5839TIP3    H138932   4.748   2.941  13.253 -1.2722 -0.2791  0.0819
 5839TIP3    H238933   4.699   3.080  13.216  0.3904  0.1059 -0.7332
 5840TIP3   OH238934   0.495   2.763  12.896  0.1628 -0.4385 -0.5305
 5840TIP3    H138935   0.499   2.855  12.868  0.3904  0.5195  2.4985
 5840TIP3    H238936   0.409   2.755  12.938 -0.1122 -1.7945 -1.3289
 5841TIP3   OH238937   0.401   1.685  16.399 -0.2917  0.5542  0.3997
 5841TIP3    H138938   0.425   1.593  16.408 -0.9823  0.3188 -0.1178
 5841TIP3    H238939   0.306   1.686  16.411 -0.3855  1.0984 -0.3514
 5842TIP3   OH238940   0.105   2.723   5.471  0.3692  0.1793  0.3250
 5842TIP3    H138941   0.180   2.678   5.432  0.6379  0.5267  0.4394
 5842TIP3    H238942   0.104   2.694   5.562 -0.7465 -1.2707 -0.1252
 5843TIP3   OH238943   4.905   6.457   0.870 -0.3144 -0.5217 -0.9301
 5843TIP3    H138944   4.960   6.382   0.848 -0.0337 -0.3829 -0.7065
 5843TIP3    H238945   4.908   6.462   0.966 -0.7395 -0.5318 -0.9148
 5844TIP3   OH238946   1.293   0.587  12.225  0.0286 -0.2516  0.2360
 5844TIP3    H138947   1.208   0.551  12.251 -0.1729 -0.2093 -0.3760
 5844TIP3    H238948   1.333   0.614  12.308 -1.1210  1.0021  0.4110
 5845TIP3   OH238949   2.008   0.124   1.239 -0.0615 -0.1048 -0.1008
 5845TIP3    H138950   1.948   0.194   1.265  0.6328  0.9784 -1.2980
 5845TIP3    H238951   2.095   0.163   1.249  0.3912 -1.2423  0.4435
 5846TIP3   OH238952   4.365   3.639   1.039 -0.7126  0.1967  0.7071
 5846TIP3    H138953   4.298   3.701   1.069  0.1414  1.0277  0.9088
 5846TIP3    H238954   4.435   3.694   1.004  0.1398 -0.6493  1.0654
 5847TIP3   OH238955   4.127   0.996   4.119  0.2062  0.0813 -0.3701
 5847TIP3    H138956   4.184   0.926   4.088  1.2585  0.9518 -0.4566
 5847TIP3    H238957   4.071   0.955   4.185 -1.0934 -1.4557 -2.3810
 5848TIP3   OH238958   0.894   4.208   1.754  0.7553 -0.1855 -0.5688
 5848TIP3    H138959   0.859   4.280   1.808  1.3701 -0.0829 -0.2937
 5848TIP3    H238960   0.859   4.225   1.667  1.4815  0.8786 -0.6715
 5849TIP3   OH238961   1.150   5.891   3.951 -0.2366 -0.8939  0.3099
 5849TIP3    H138962   1.215   5.875   3.882  0.2815 -1.8595  1.0012
 5849TIP3    H238963   1.173   5.977   3.986  1.2757 -1.6395  1.1917
 5850TIP3   OH238964   2.008   0.862   2.001 -0.1042  0.0988  0.2547
 5850TIP3    H138965   1.938   0.802   1.974 -1.1779  0.9166  1.1582
 5850TIP3    H238966   1.967   0.948   2.001  1.5180  0.8991 -1.3374
 5851TIP3   OH238967   3.646   2.932   2.323  0.1542 -0.2265 -0.4562
 5851TIP3    H138968   3.730   2.899   2.292  0.4614 -0.6329  0.7984
 5851TIP3    H238969   3.660   2.951   2.415 -1.1620 -0.3646 -0.2170
 5852TIP3   OH238970   3.539   6.369   5.138  0.4694 -0.4755 -0.6146
 5852TIP3    H138971   3.451   6.390   5.107 -0.4660 -0.6833  1.8134
 5852TIP3    H238972   3.560   6.438   5.200  0.9305 -1.8547  0.8025
 5853TIP3   OH238973   6.417   2.466   5.154  0.2040  0.2351  0.5984
 5853TIP3    H138974   6.507   2.447   5.128  0.4273  4.3946 -2.1474
 5853TIP3    H238975   6.363   2.413   5.097  0.8662 -0.7583  0.8807
 5854TIP3   OH238976   3.920   4.103  15.711 -0.3183  0.3520  0.4884
 5854TIP3    H138977   3.891   4.057  15.633 -1.4992 -0.1800  1.2242
 5854TIP3    H238978   3.840   4.144  15.745 -0.1525 -0.7969  2.3343
 5855TIP3   OH238979   2.357   3.113   0.341 -0.3387 -0.0229  0.2113
 5855TIP3    H138980   2.283   3.111   0.281  0.8018 -0.9133 -1.2094
 5855TIP3    H238981   2.434   3.113   0.284  0.7999 -2.2710  1.6899
 5856TIP3   OH238982   6.085   5.443  17.021  0.2314  0.4877  0.4328
 5856TIP3    H138983   6.045   5.358  17.002  0.0018  0.7166 -0.1249
 5856TIP3    H238984   6.048   5.469  17.106  1.0132 -0.3914  1.0530
 5857TIP3   OH238985   0.455   3.359   0.051 -0.6539  0.5428  0.4231
 5857TIP3    H138986   0.416   3.391   0.133  0.7036  0.9732  0.9147
 5857TIP3    H238987   0.496   3.436   0.013 -1.0787  0.2866 -0.5627
 5858TIP3   OH238988   0.716   1.625   5.066  0.2153  0.0811  0.1278
 5858TIP3    H138989   0.782   1.605   5.133  0.0742  1.0938  0.5667
 5858TIP3    H238990   0.635   1.590   5.101  0.3553 -0.4418 -0.0534
 5859TIP3   OH238991   5.501   0.433  13.880  0.3339 -0.7198  0.3788
 5859TIP3    H138992   5.505   0.386  13.796  1.1693 -0.2447  0.1438
 5859TIP3    H238993   5.481   0.365  13.944 -1.5590 -0.8988 -0.3579
 5860TIP3   OH238994   3.771   0.318   3.125 -0.4516 -0.1573 -0.5071
 5860TIP3    H138995   3.800   0.227   3.136 -1.7969 -0.6942 -1.2703
 5860TIP3    H238996   3.843   0.361   3.080 -0.5841 -1.3171 -1.8582
 5861TIP3   OH238997   3.132   2.515  11.414  0.0002 -0.3233 -0.0408
 5861TIP3    H138998   3.114   2.436  11.362  0.3150 -1.2358  1.2082
 5861TIP3    H238999   3.222   2.537  11.393  0.6490 -1.6274  1.3120
 5862TIP3   OH239000   0.502   3.543  13.265 -0.4983  0.3988  0.6757
 5862TIP3    H139001   0.554   3.609  13.218 -0.1241 -0.5946 -0.3318
 5862TIP3    H239002   0.562   3.506  13.329  0.0139 -0.6163 -0.3625
 5863TIP3   OH239003   4.746   0.351  15.218  0.2520 -0.0101  0.2913
 5863TIP3    H139004   4.805   0.426  15.210 -0.8317  0.7345 -0.8606
 5863TIP3    H239005   4.768   0.295  15.143  0.5541 -0.4820  0.7321
 5864TIP3   OH239006   4.106   6.662   1.051 -0.7456 -0.4003  0.3588
 5864TIP3    H139007   4.113   6.753   1.079  2.8981 -0.4240 -0.2620
 5864TIP3    H239008   4.072   6.616   1.127  0.0349  1.0492  1.6015
 5865TIP3   OH239009   2.137   5.539   1.004 -0.0244 -0.0849 -0.1669
 5865TIP3    H139010   2.157   5.454   1.042 -0.2232 -0.0950 -0.0827
 5865TIP3    H239011   2.075   5.520   0.934  0.7087 -0.1158 -0.8119
 5866TIP3   OH239012   0.901   1.135  14.549 -0.5769  0.6638  0.1271
 5866TIP3    H139013   0.972   1.092  14.502 -1.8885 -1.2186 -0.1921
 5866TIP3    H239014   0.895   1.222  14.510  2.6809  1.5106  1.3493
 5867TIP3   OH239015   1.309   1.107  13.564 -0.0878 -0.5692  0.4498
 5867TIP3    H139016   1.329   1.045  13.494  1.9844  0.7785 -0.1987
 5867TIP3    H239017   1.312   1.193  13.521 -0.3889  0.1504  1.8543
 5868TIP3   OH239018   6.445   2.863  11.455 -0.0387 -0.1983 -0.2297
 5868TIP3    H139019   6.449   2.779  11.500 -2.1425  0.3090  0.9991
 5868TIP3    H239020   6.422   2.926  11.524  0.4680  1.2082 -1.3139
 5869TIP3   OH239021   2.074   2.402  14.391  0.4544 -0.1768  0.4451
 5869TIP3    H139022   1.995   2.351  14.374 -0.1318  1.3652 -1.5301
 5869TIP3    H239023   2.081   2.462  14.317  2.0193  1.5354  1.9332
 5870TIP3   OH239024   3.422   5.921  11.146  0.0331 -0.1274 -0.1550
 5870TIP3    H139025   3.327   5.914  11.133  0.0016 -0.3855  0.2150
 5870TIP3    H239026   3.440   6.014  11.138 -0.3547  0.0045  0.4863
 5871TIP3   OH239027   2.135   5.526   1.423 -0.0711 -0.4410 -0.1941
 5871TIP3    H139028   2.167   5.601   1.472 -0.1157  0.5273 -1.6165
 5871TIP3    H239029   2.140   5.453   1.484 -0.4119  0.8022  1.3396
 5872TIP3   OH239030   0.345   4.989  14.492  1.1879  0.0279 -0.5978
 5872TIP3    H139031   0.314   4.979  14.402  1.9895 -0.2930 -0.8401
 5872TIP3    H239032   0.406   5.062  14.488  1.8836 -0.5472 -0.4804
 5873TIP3   OH239033   6.031   5.174   4.091  0.5364  1.3633  0.2673
 5873TIP3    H139034   5.964   5.109   4.068  1.0171  1.2614 -0.8543
 5873TIP3    H239035   6.019   5.189   4.185 -1.5094  1.8543 -0.0555
 5874TIP3   OH239036   6.416   5.621  15.747 -0.4072  0.7388 -0.1079
 5874TIP3    H139037   6.340   5.671  15.719 -1.0863 -0.3656 -0.2731
 5874TIP3    H239038   6.419   5.546  15.687 -0.6999 -0.5926  1.5097
 5875TIP3   OH239039   6.482   4.888  14.796  0.2727  0.2310 -0.3079
 5875TIP3    H139040   6.438   4.927  14.871  1.5133 -0.7832  0.9558
 5875TIP3    H239041   6.410   4.859  14.739 -0.6736  0.3274  0.8160
 5876TIP3   OH239042   0.704   4.229   0.858  0.0411 -0.2959  0.6759
 5876TIP3    H139043   0.622   4.231   0.906 -0.0392  3.2857  0.5140
 5876TIP3    H239044   0.679   4.235   0.766  0.4373  0.0825  0.5861
 5877TIP3   OH239045   4.135   4.904  15.617  0.0035  0.8400  0.0097
 5877TIP3    H139046   4.072   4.853  15.566  0.3545  1.0202 -0.6061
 5877TIP3    H239047   4.181   4.838  15.669 -0.2685  0.6427  0.0053
 5878TIP3   OH239048   1.913   2.636   4.755  0.8699  0.0052 -0.1756
 5878TIP3    H139049   1.833   2.590   4.732 -0.3039  2.6752 -1.6335
 5878TIP3    H239050   1.975   2.613   4.686  0.3242  0.5603 -0.8419
 5879TIP3   OH239051   6.478   0.121  11.008 -0.2698 -0.0531 -0.0887
 5879TIP3    H139052   6.402   0.074  10.971  0.0326 -1.4819  1.0393
 5879TIP3    H239053   6.506   0.180  10.938  0.0010 -2.3433 -1.9842
 5880TIP3   OH239054   5.983   2.007  16.469 -1.1128  0.4101  0.2552
 5880TIP3    H139055   5.950   1.932  16.419 -1.3501 -0.2662  1.4094
 5880TIP3    H239056   6.074   1.986  16.487 -0.8217  0.9901 -0.5097
 5881TIP3   OH239057   3.151   5.319   3.446 -0.2876  0.2325  0.4084
 5881TIP3    H139058   3.065   5.286   3.419 -0.8116 -0.3296  2.5961
 5881TIP3    H239059   3.203   5.320   3.366 -1.9566 -0.6286 -0.7203
 5882TIP3   OH239060   0.452   2.289   6.339 -0.0702 -0.4489  0.1077
 5882TIP3    H139061   0.468   2.381   6.359 -0.8530 -0.0808 -0.9244
 5882TIP3    H239062   0.391   2.260   6.407  0.9840 -0.4868  1.0427
 5883TIP3   OH239063   3.820   3.122   4.511 -0.0134 -0.4743  0.0474
 5883TIP3    H139064   3.779   3.037   4.494 -0.8864  0.0495 -0.4911
 5883TIP3    H239065   3.769   3.184   4.459  0.7738  0.3466  0.2478
 5884TIP3   OH239066   2.397   1.207  12.377 -1.1887 -0.4500 -0.2289
 5884TIP3    H139067   2.346   1.242  12.450 -1.4714 -0.0500 -0.6104
 5884TIP3    H239068   2.477   1.172  12.417 -1.0460  0.3595  0.2005
 5885TIP3   OH239069   0.592   4.919   1.126 -0.6886  0.5025 -0.0832
 5885TIP3    H139070   0.607   4.879   1.041 -0.3354 -1.7754  1.0020
 5885TIP3    H239071   0.502   4.951   1.123 -1.5595 -1.8780 -0.4511
 5886TIP3   OH239072   5.734   5.246   2.140 -0.2371 -0.4751 -0.5927
 5886TIP3    H139073   5.771   5.334   2.130  0.6819 -0.6229  1.3104
 5886TIP3    H239074   5.803   5.188   2.108 -0.0825 -0.5914 -0.0534
 5887TIP3   OH239075   4.781   4.046  15.072  0.0391 -0.1247  0.0613
 5887TIP3    H139076   4.840   4.024  15.000 -0.1470  0.3566 -0.2443
 5887TIP3    H239077   4.718   3.974  15.074  0.7616 -0.7489  0.5277
 5888TIP3   OH239078   6.002   5.181   2.431 -0.0855  0.2298  0.4110
 5888TIP3    H139079   5.958   5.103   2.465 -1.0785  1.1353  1.1937
 5888TIP3    H239080   6.008   5.166   2.336  0.4738 -1.1659  0.6563
 5889TIP3   OH239081   0.355   0.263  13.715  0.3668  0.0591  0.0817
 5889TIP3    H139082   0.313   0.238  13.797  0.3998 -2.3841 -0.6241
 5889TIP3    H239083   0.282   0.275  13.653  0.5712 -3.4042 -0.9312
 5890TIP3   OH239084   2.225   2.419   0.095 -0.0277  0.4658  0.1405
 5890TIP3    H139085   2.133   2.445   0.083  0.9810  2.4930 -4.2141
 5890TIP3    H239086   2.271   2.502   0.110  1.4899 -0.2254 -0.7003
 5891TIP3   OH239087   6.579   1.142   3.737  0.3002  0.4137  0.2782
 5891TIP3    H139088   6.577   1.236   3.755  0.2376  0.1262  1.8371
 5891TIP3    H239089   6.664   1.113   3.770  1.2829  0.2807 -2.2037
 5892TIP3   OH239090   2.872   5.303   1.125 -0.5771  0.7942 -0.4629
 5892TIP3    H139091   2.879   5.397   1.140  0.4349  0.6222  0.1547
 5892TIP3    H239092   2.876   5.294   1.029  0.3399  1.2929 -0.4732
 5893TIP3   OH239093   1.819   0.536   2.857  0.1207 -0.0007 -0.0686
 5893TIP3    H139094   1.843   0.582   2.777 -1.2432 -0.1095 -0.5516
 5893TIP3    H239095   1.754   0.593   2.898  1.3544  0.4171  1.3476
 5894TIP3   OH239096   1.901   1.742  13.999  0.1381 -0.0259  0.3363
 5894TIP3    H139097   1.994   1.756  13.983  0.2467 -1.1949 -0.1277
 5894TIP3    H239098   1.857   1.813  13.954  0.8513  1.1029  1.3922
 5895TIP3   OH239099   0.201   2.630   2.812  0.0121  0.1030  0.2222
 5895TIP3    H139100   0.249   2.708   2.840 -1.1444  0.4839  1.1778
 5895TIP3    H239101   0.181   2.583   2.893  1.0922 -1.4413 -0.3768
 5896TIP3   OH239102   5.653   0.115   1.678 -0.0221 -0.7887  0.4336
 5896TIP3    H139103   5.669   0.207   1.659 -1.6491 -0.2089  1.7029
 5896TIP3    H239104   5.573   0.094   1.629  0.5096 -1.6218 -0.0966
 5897TIP3   OH239105   0.105   4.148   0.582  0.1826 -0.9233  0.0297
 5897TIP3    H139106   0.033   4.120   0.527 -1.0153  1.1352  0.4761
 5897TIP3    H239107   0.171   4.080   0.573 -1.8435 -2.8814 -0.3241
 5898TIP3   OH239108   1.137   5.224  13.011 -0.2795 -0.4878  0.1751
 5898TIP3    H139109   1.161   5.288  12.944  0.7831 -0.6899  0.3473
 5898TIP3    H239110   1.220   5.202  13.054 -0.9404 -0.3577  1.5609
 5899TIP3   OH239111   4.374   1.035  16.654  0.7544  0.2572  0.4536
 5899TIP3    H139112   4.320   0.974  16.703  1.6955 -0.7156  0.3070
 5899TIP3    H239113   4.351   1.019  16.562  0.1766  0.9298  0.4770
 5900TIP3   OH239114   4.349   0.025   2.868  0.2317 -0.2814 -0.1972
 5900TIP3    H139115   4.286   0.060   2.930 -0.7362 -1.6203 -0.3993
 5900TIP3    H239116   4.364   0.096   2.805  0.3058  0.6548  0.8691
 5901TIP3   OH239117   5.956   0.193  16.593 -0.1423  0.0541 -0.1341
 5901TIP3    H139118   5.994   0.280  16.602  2.6480 -0.6138 -4.0867
 5901TIP3    H239119   5.907   0.196  16.511 -0.1164 -2.0449 -0.2717
 5902TIP3   OH239120   3.736   3.968  16.068 -0.3192 -0.9292  0.0629
 5902TIP3    H139121   3.706   4.054  16.041  1.1304 -0.1336  0.9260
 5902TIP3    H239122   3.750   3.976  16.162  0.1004 -2.0212  0.0975
 5903TIP3   OH239123   1.941   3.513   0.443 -0.6493  0.3266  0.0116
 5903TIP3    H139124   2.000   3.476   0.508  0.5384 -0.9298 -1.7339
 5903TIP3    H239125   1.956   3.608   0.448  0.8693  0.0851  0.2016
 5904TIP3   OH239126   5.838   4.529  13.860 -0.2723 -1.0126  0.1633
 5904TIP3    H139127   5.921   4.547  13.816 -0.4168 -1.8844 -0.4657
 5904TIP3    H239128   5.862   4.509  13.950  0.1384 -0.5571  0.1532
 5905TIP3   OH239129   1.304   6.397   5.183 -0.3659  0.4119 -0.3618
 5905TIP3    H139130   1.386   6.444   5.172 -0.5533  0.8025 -0.0663
 5905TIP3    H239131   1.237   6.465   5.188 -0.6889  0.1008 -0.4253
 5906TIP3   OH239132   3.985   4.264   0.809  0.4130 -0.7521  0.3621
 5906TIP3    H139133   4.040   4.287   0.884  0.2483  1.6533 -0.2117
 5906TIP3    H239134   4.010   4.327   0.742 -0.6899 -1.7792 -1.0228
 5907TIP3   OH239135   4.641   1.876   1.804  0.4564  0.1105 -0.1448
 5907TIP3    H139136   4.735   1.860   1.819  0.5177 -0.0785 -0.7109
 5907TIP3    H239137   4.599   1.850   1.885  0.8056 -0.7024 -0.2183
 5908TIP3   OH239138   1.185   0.729  11.292 -0.1762  0.5693 -0.1350
 5908TIP3    H139139   1.250   0.795  11.270 -1.7900  2.3168  0.2343
 5908TIP3    H239140   1.141   0.710  11.209 -0.9942  1.3917  0.1002
 5909TIP3   OH239141   0.442   2.289  16.215 -0.1268 -0.1961  0.0098
 5909TIP3    H139142   0.456   2.305  16.308  2.3948  1.5223 -0.5947
 5909TIP3    H239143   0.347   2.289  16.204 -0.4320 -0.1522  2.5318
 5910TIP3   OH239144   0.189   4.852   4.876  0.2610  0.2147  0.7417
 5910TIP3    H139145   0.183   4.942   4.845  1.4456 -0.3567 -1.2254
 5910TIP3    H239146   0.280   4.842   4.903 -0.0599 -0.1554  1.7023
 5911TIP3   OH239147   5.112   4.150  13.639  0.3969  0.3758 -0.0038
 5911TIP3    H139148   5.055   4.165  13.714  0.2577  0.4933 -0.1317
 5911TIP3    H239149   5.093   4.061  13.611  1.6991 -0.2887  1.1661
 5912TIP3   OH239150   0.818   6.036   3.285  0.1202  0.3828  0.2511
 5912TIP3    H139151   0.839   6.128   3.267 -1.1964  0.7289  0.4665
 5912TIP3    H239152   0.786   6.002   3.201  1.7236 -0.2123 -0.1401
 5913TIP3   OH239153   1.086   5.904  12.536  0.0847 -0.5071  0.0059
 5913TIP3    H139154   0.994   5.899  12.561  0.4765 -0.8222  1.3986
 5913TIP3    H239155   1.132   5.924  12.617  1.1195  0.9907 -0.9081
 5914TIP3   OH239156   5.339   1.283  14.052 -0.2581 -0.3431 -0.3090
 5914TIP3    H139157   5.386   1.235  14.120  0.2705 -2.3724 -2.0631
 5914TIP3    H239158   5.407   1.332  14.006 -0.4262 -0.0835 -0.2825
 5915TIP3   OH239159   1.460   6.604  11.878  0.0929  0.1663  0.5975
 5915TIP3    H139160   1.513   6.542  11.829 -0.9724 -0.3267  0.0632
 5915TIP3    H239161   1.460   6.569  11.968  1.3375  0.6150  0.7831
 5916TIP3   OH239162   0.065   1.891  13.239  0.6952  0.4230  0.3872
 5916TIP3    H139163   0.047   1.811  13.188 -0.3474  1.1309 -0.3697
 5916TIP3    H239164   0.102   1.858  13.321 -2.8217 -1.0726  1.4886
 5917TIP3   OH239165   3.254   1.321   2.938  0.2737  0.2584  0.2638
 5917TIP3    H139166   3.301   1.301   2.857 -1.3095 -0.1252 -0.5721
 5917TIP3    H239167   3.291   1.260   3.002  1.9912  1.0020  0.0016
 5918TIP3   OH239168   4.594   3.549  16.583 -0.3223  0.1191  0.0139
 5918TIP3    H139169   4.548   3.628  16.554 -0.3074  0.3786  0.6982
 5918TIP3    H239170   4.608   3.499  16.502  0.0728  1.0264 -0.4879
 5919TIP3   OH239171   2.984   4.163   2.331  0.4503 -0.3238  0.2316
 5919TIP3    H139172   3.056   4.104   2.353  0.6050  0.1387  0.9968
 5919TIP3    H239173   2.930   4.114   2.270 -0.9074 -2.2988  2.9425
 5920TIP3   OH239174   3.860   0.387  16.191 -0.0138 -0.1621 -0.0689
 5920TIP3    H139175   3.791   0.352  16.248 -0.3642 -0.8156 -0.8873
 5920TIP3    H239176   3.849   0.340  16.109  0.9727  0.2396 -0.4345
 5921TIP3   OH239177   0.247   2.294   1.864 -0.2401  0.0811 -0.3055
 5921TIP3    H139178   0.184   2.338   1.806  0.6482  1.2328 -0.4232
 5921TIP3    H239179   0.218   2.315   1.952  1.2552  2.5646 -0.3476
 5922TIP3   OH239180   6.357   0.393  13.557 -0.8744  0.3599  0.4767
 5922TIP3    H139181   6.301   0.454  13.606 -2.1799  0.3084 -0.9039
 5922TIP3    H239182   6.355   0.426  13.467 -1.3372 -1.4993 -0.2218
 5923TIP3   OH239183   0.375   2.910  13.814  0.4486 -0.0138 -0.5121
 5923TIP3    H139184   0.466   2.938  13.812  0.1162  1.3013  1.1210
 5923TIP3    H239185   0.377   2.816  13.797  2.0903  0.0299 -0.5947
 5924TIP3   OH239186   6.585   6.760  15.986  0.1542  0.5040 -0.4602
 5924TIP3    H139187   6.568   6.801  15.901 -0.8264  1.7512  0.3213
 5924TIP3    H239188   6.499   6.727  16.013  0.4798  0.0530  0.0308
 5925TIP3   OH239189   0.991   0.787   1.575 -0.5373  0.6117 -0.6439
 5925TIP3    H139190   1.000   0.750   1.487  1.0195  0.4436 -0.4218
 5925TIP3    H239191   1.031   0.874   1.568  0.0659  0.3923  0.0247
 5926TIP3   OH239192   0.362   4.862  12.872 -0.1422 -0.1507  0.5373
 5926TIP3    H139193   0.421   4.810  12.818 -0.9458 -1.4719  0.9068
 5926TIP3    H239194   0.296   4.895  12.811  0.1199  0.0778  0.3749
 5927TIP3   OH239195   0.361   1.226   5.994 -0.3045 -0.4063 -1.0435
 5927TIP3    H139196   0.374   1.181   6.078 -3.3312  0.9066  0.2218
 5927TIP3    H239197   0.440   1.279   5.983  0.7175 -1.6064  0.3109
 5928TIP3   OH239198   0.177   3.590   5.239  0.0927 -0.6493 -0.0392
 5928TIP3    H139199   0.085   3.584   5.215  0.2490  1.5704 -1.3088
 5928TIP3    H239200   0.178   3.634   5.324 -0.0520 -1.5789  0.4518
 5929TIP3   OH239201   2.298   1.147   3.223  0.3045  0.2991 -0.0317
 5929TIP3    H139202   2.277   1.227   3.174 -0.7062 -0.2742 -0.5394
 5929TIP3    H239203   2.392   1.155   3.242 -0.0358  2.2063  1.0238
 5930TIP3   OH239204   4.770   2.836  16.282  0.2445 -0.1692  0.5025
 5930TIP3    H139205   4.863   2.853  16.269  0.0261 -0.5699 -1.8098
 5930TIP3    H239206   4.731   2.923  16.291  0.8239  0.0030  1.3252
 5931TIP3   OH239207   1.793   6.055  14.897 -0.3893  0.3808  0.1757
 5931TIP3    H139208   1.888   6.057  14.899 -0.3091  0.3443 -1.8207
 5931TIP3    H239209   1.772   6.027  14.808 -2.2618  0.3277  0.6154
 5932TIP3   OH239210   2.095   5.736  11.275 -0.7100  0.2934 -0.2206
 5932TIP3    H139211   2.159   5.732  11.204 -0.6783 -0.7453 -0.1349
 5932TIP3    H239212   2.142   5.704  11.352 -0.9954  0.6088  0.0861
 5933TIP3   OH239213   1.575   4.367  16.444  0.3924 -0.5630  0.7816
 5933TIP3    H139214   1.628   4.302  16.491 -0.0167 -0.9126  0.7643
 5933TIP3    H239215   1.620   4.450  16.458  1.2017 -0.9225  0.3850
 5934TIP3   OH239216   4.267   4.377   2.220  0.1182 -0.5483 -0.0675
 5934TIP3    H139217   4.290   4.299   2.272  0.1473 -0.5129 -0.0271
 5934TIP3    H239218   4.304   4.450   2.269 -1.0105 -0.3898  0.5497
 5935TIP3   OH239219   1.263   6.376   1.585  0.2827 -0.1267  0.5749
 5935TIP3    H139220   1.347   6.348   1.548  0.6744 -0.7353  1.9121
 5935TIP3    H239221   1.212   6.402   1.508  1.8013  0.5901 -0.2285
 5936TIP3   OH239222   5.439   3.782   5.741 -0.1362 -0.0795  0.7643
 5936TIP3    H139223   5.464   3.843   5.811 -0.6099 -0.3069  1.1344
 5936TIP3    H239224   5.344   3.780   5.743 -0.1189 -1.1650  1.0511
 5937TIP3   OH239225   4.734   4.162  11.114 -0.0061  0.1747 -0.2688
 5937TIP3    H139226   4.737   4.166  11.018 -1.4633  1.3287 -0.2761
 5937TIP3    H239227   4.654   4.114  11.134 -1.1985  2.3649  0.3886
 5938TIP3   OH239228   4.935   6.231  12.970  0.1102 -0.2185  0.1946
 5938TIP3    H139229   4.911   6.277  12.889  2.9266 -0.2938 -0.7334
 5938TIP3    H239230   4.969   6.147  12.940 -0.0466 -0.7797  1.5728
 5939TIP3   OH239231   2.399   3.338   3.292  0.8132  0.0912 -0.0638
 5939TIP3    H139232   2.410   3.352   3.386 -1.1378  0.0384  0.1855
 5939TIP3    H239233   2.409   3.243   3.281  2.5061  0.2648 -0.1323
 5940TIP3   OH239234   0.787   1.765   2.124 -0.1485  0.2351  0.5114
 5940TIP3    H139235   0.802   1.702   2.053 -0.9239  0.9809 -0.3273
 5940TIP3    H239236   0.867   1.818   2.127 -0.1711  0.2900  0.1027
 5941TIP3   OH239237   1.409   5.057  12.480  0.4235 -0.0939 -0.1131
 5941TIP3    H139238   1.423   5.026  12.569  0.5286 -0.9036 -0.4118
 5941TIP3    H239239   1.340   5.123  12.488 -0.9043 -1.5286  0.2849
 5942TIP3   OH239240   2.294   1.218   1.642  0.3393  0.3772  0.0588
 5942TIP3    H139241   2.254   1.243   1.726 -1.7405  0.1718 -0.8409
 5942TIP3    H239242   2.344   1.139   1.662 -0.0388  0.4078  1.1560
 5943TIP3   OH239243   4.484   4.658   3.804 -0.1198  0.3609  0.1947
 5943TIP3    H139244   4.558   4.700   3.848 -0.4201  1.2287 -0.1127
 5943TIP3    H239245   4.409   4.713   3.825 -0.0734  1.4281 -2.2873
 5944TIP3   OH239246   2.014   1.280  16.864  1.0250  0.3045 -0.2941
 5944TIP3    H139247   1.990   1.199  16.909  1.5925 -0.1591 -0.8038
 5944TIP3    H239248   2.104   1.297  16.891  0.1976  1.9370  1.4702
 5945TIP3   OH239249   4.722   4.807   3.860  0.4648 -0.4929  0.1109
 5945TIP3    H139250   4.800   4.778   3.812  2.5269  0.9986  2.4812
 5945TIP3    H239251   4.704   4.894   3.824  0.5992 -0.3468  0.4014
 5946TIP3   OH239252   6.139   1.894  11.209  0.0205 -0.1511  0.7492
 5946TIP3    H139253   6.229   1.890  11.241  0.2063  1.1403  0.4021
 5946TIP3    H239254   6.131   1.818  11.151  0.3313 -1.2790  2.1588
 5947TIP3   OH239255   4.604   0.493  15.738  0.2273 -0.2099 -0.3520
 5947TIP3    H139256   4.568   0.421  15.686  0.4768  0.5956 -1.6677
 5947TIP3    H239257   4.621   0.562  15.674 -1.3068  1.5339  1.0701
 5948TIP3   OH239258   3.396   3.327   5.440 -0.1228 -0.4867 -0.3429
 5948TIP3    H139259   3.306   3.335   5.472 -0.1323  0.3349 -0.5627
 5948TIP3    H239260   3.434   3.414   5.452  1.4385 -1.4436  2.0704
 5949TIP3   OH239261   5.937   2.541  12.455  0.2891 -0.4731  0.6377
 5949TIP3    H139262   5.970   2.505  12.538  0.9862  0.0729  0.6031
 5949TIP3    H239263   5.959   2.634  12.459  1.5176 -0.6821 -0.7367
 5950TIP3   OH239264   2.753   1.036   5.434  0.1905  0.3514  0.5012
 5950TIP3    H139265   2.753   0.961   5.494  1.8508 -1.3552 -1.5286
 5950TIP3    H239266   2.757   1.113   5.491  1.1991 -1.1968  2.5856
 5951TIP3   OH239267   2.645   0.196   1.956 -0.0155  0.0103 -0.3326
 5951TIP3    H139268   2.656   0.252   2.033 -1.7851 -1.2472  0.8678
 5951TIP3    H239269   2.670   0.109   1.986 -1.3577 -0.6166 -0.9715
 5952TIP3   OH239270   1.167   6.332  12.474  0.1258 -0.4643  0.1100
 5952TIP3    H139271   1.206   6.275  12.539  0.3592  0.0579  0.4318
 5952TIP3    H239272   1.082   6.357  12.511 -0.6034 -1.7322 -0.6628
 5953TIP3   OH239273   1.729   2.252   1.239  0.0951  0.0220  0.2544
 5953TIP3    H139274   1.679   2.193   1.182 -0.2287  0.1820  0.3719
 5953TIP3    H239275   1.745   2.202   1.318  2.0762 -0.8391 -0.6470
 5954TIP3   OH239276   2.494   5.867  11.057 -0.4827 -0.2656 -0.0315
 5954TIP3    H139277   2.476   5.815  11.136 -0.5893 -0.9135 -0.4694
 5954TIP3    H239278   2.408   5.879  11.017 -0.3498 -0.5649 -0.4214
 5955TIP3   OH239279   1.059   5.538  15.608 -0.6241 -0.6463  0.1184
 5955TIP3    H139280   1.108   5.478  15.663  1.3419 -0.1819 -1.0575
 5955TIP3    H239281   1.108   5.620  15.611  1.0044 -1.2881 -4.1871
 5956TIP3   OH239282   2.111   6.663  11.045  0.2621  0.8962  0.3022
 5956TIP3    H139283   2.113   6.682  11.139  2.0285  0.6556  0.3286
 5956TIP3    H239284   2.158   6.580  11.036 -1.9247 -0.3034 -0.5381
 5957TIP3   OH239285   3.737   4.244  16.012 -0.0657 -0.2480 -0.0583
 5957TIP3    H139286   3.708   4.227  15.922  3.3972  2.1530 -1.7500
 5957TIP3    H239287   3.698   4.328  16.035  1.9046  0.8593 -0.6927
 5958TIP3   OH239288   0.080   4.188  13.954  0.4026  0.1761 -0.5655
 5958TIP3    H139289  -0.002   4.144  13.933 -0.6911  1.9917 -0.1469
 5958TIP3    H239290   0.075   4.205  14.048  1.4990 -0.1545 -0.4358
 5959TIP3   OH239291   0.809   4.466   2.604 -0.6819 -0.5090  0.2878
 5959TIP3    H139292   0.857   4.547   2.621 -1.0372 -0.4286  0.9212
 5959TIP3    H239293   0.775   4.440   2.689 -2.0748 -0.3740 -0.2058
 5960TIP3   OH239294   2.113   1.631   5.222  0.0465 -0.5278 -0.5888
 5960TIP3    H139295   2.125   1.701   5.286  0.7456 -0.7636 -0.4498
 5960TIP3    H239296   2.135   1.671   5.138  1.1011 -0.7503 -0.4286
 5961TIP3   OH239297   1.663   3.074  15.784  0.0210 -0.0163  0.1492
 5961TIP3    H139298   1.751   3.045  15.764 -0.4357  0.5215 -2.8650
 5961TIP3    H239299   1.630   3.010  15.848  2.8799  0.3462  2.0827
 5962TIP3   OH239300   1.426   2.053  13.577  0.1271  0.4282  0.1278
 5962TIP3    H139301   1.510   2.099  13.575  0.3303  0.1024  0.8769
 5962TIP3    H239302   1.394   2.057  13.487 -0.3044  2.8896  0.3565
 5963TIP3   OH239303   6.357   0.536   2.844  0.5353  0.0882 -0.7775
 5963TIP3    H139304   6.310   0.494   2.916 -0.3423  0.3921 -1.1674
 5963TIP3    H239305   6.397   0.464   2.796  0.4202 -0.1772 -0.4787
 5964TIP3   OH239306   5.638   5.334  14.731 -0.1416 -0.2221 -0.7197
 5964TIP3    H139307   5.687   5.270  14.782 -0.5192 -0.4526 -0.6478
 5964TIP3    H239308   5.705   5.380  14.680  0.1879 -0.3078 -0.3691
 5965TIP3   OH239309   2.975   1.918  13.767 -0.1483  0.0226  0.4618
 5965TIP3    H139310   2.947   2.000  13.726  0.9743  1.4145  2.3489
 5965TIP3    H239311   2.907   1.900  13.832 -1.2209 -1.4417 -1.0180
 5966TIP3   OH239312   2.855   3.688   1.711 -0.0655 -0.5756  0.8279
 5966TIP3    H139313   2.827   3.757   1.770 -1.8320 -1.1317  0.6693
 5966TIP3    H239314   2.879   3.615   1.768  0.3159 -0.3668  0.9356
 5967TIP3   OH239315   4.991   4.097  17.190  0.3073 -0.1298  0.6442
 5967TIP3    H139316   4.904   4.059  17.204  0.5625 -0.0152  2.5888
 5967TIP3    H239317   4.986   4.184  17.229  0.4760  0.9383 -1.6535
 5968TIP3   OH239318   5.399   5.582  14.446 -0.2208  0.2846  0.3666
 5968TIP3    H139319   5.307   5.568  14.466 -0.5189  0.5045 -0.8074
 5968TIP3    H239320   5.405   5.676  14.426 -0.0771 -0.0464 -1.1950
 5969TIP3   OH239321   3.738   2.829  10.903  0.2003  0.3208 -0.5229
 5969TIP3    H139322   3.794   2.809  10.978  0.0290 -2.4068 -1.0486
 5969TIP3    H239323   3.655   2.857  10.942  0.0740 -1.1844  0.3395
 5970TIP3   OH239324   0.240   2.413  16.973  0.1508 -0.7453 -0.7539
 5970TIP3    H139325   0.217   2.396  16.882  0.7176  2.0349 -1.4519
 5970TIP3    H239326   0.335   2.417  16.974  0.1141  0.2849 -0.2495
 5971TIP3   OH239327   0.940   0.921  10.523 -0.4718 -0.0174  0.2119
 5971TIP3    H139328   0.848   0.914  10.501 -0.2650  0.3042 -0.7964
 5971TIP3    H239329   0.972   0.994  10.470  0.2100  0.3108  1.0604
 5972TIP3   OH239330   0.089   0.697   4.759  0.3730 -0.6300 -0.5290
 5972TIP3    H139331   0.111   0.700   4.852 -0.1853  1.4892 -0.4338
 5972TIP3    H239332   0.167   0.730   4.715  0.3538 -0.8775 -0.7444
 5973TIP3   OH239333   2.231   2.631   4.674  0.0950 -0.2007  0.6838
 5973TIP3    H139334   2.292   2.700   4.699  0.8010 -0.0071 -1.5204
 5973TIP3    H239335   2.283   2.570   4.622 -1.2510 -0.7602 -0.0352
 5974TIP3   OH239336   3.153   5.015   5.274  0.1750  0.0378  0.1242
 5974TIP3    H139337   3.076   5.019   5.331  0.0098  2.0959 -0.2067
 5974TIP3    H239338   3.205   4.943   5.310 -1.2303 -0.4732  1.1981
 5975TIP3   OH239339   2.134   0.967  11.571  0.2269  0.6727  0.5204
 5975TIP3    H139340   2.049   1.009  11.585  0.6427  1.7938 -0.3406
 5975TIP3    H239341   2.182   1.026  11.513  1.9211  0.4702  1.6682
 5976TIP3   OH239342   0.322   3.026   5.173  0.2702 -0.0309 -0.1584
 5976TIP3    H139343   0.264   3.098   5.150  1.4107  0.5677 -1.1882
 5976TIP3    H239344   0.400   3.039   5.119 -0.0196 -2.7494 -1.2933
 5977TIP3   OH239345   6.120   2.454  17.180  0.0982  0.1198  0.0417
 5977TIP3    H139346   6.087   2.365  17.171  0.5117  0.1679 -2.2341
 5977TIP3    H239347   6.081   2.486  17.262 -0.6235 -1.8821  0.5045
 5978TIP3   OH239348   0.072   3.820   2.207  0.3762 -0.4021  0.0625
 5978TIP3    H139349   0.016   3.824   2.284 -0.4910 -2.1747 -0.4410
 5978TIP3    H239350   0.055   3.901   2.160 -0.6263 -0.2470  0.6859
 5979TIP3   OH239351   0.775   5.321   4.383  0.0850 -0.0393 -0.4194
 5979TIP3    H139352   0.792   5.229   4.362 -0.0159 -0.0257 -0.5560
 5979TIP3    H239353   0.852   5.368   4.350  0.2321 -0.0996 -0.1662
 5980TIP3   OH239354   0.748   6.608  14.143 -0.7204 -0.2140 -0.6626
 5980TIP3    H139355   0.812   6.560  14.091 -0.0896  0.6198 -0.6678
 5980TIP3    H239356   0.781   6.600  14.233  1.1332  2.8408 -1.0051
 5981TIP3   OH239357   3.461   5.662   4.457 -0.2081 -0.1718 -0.4035
 5981TIP3    H139358   3.380   5.701   4.489 -0.5218 -1.0770 -0.0891
 5981TIP3    H239359   3.439   5.571   4.438  0.7356 -0.4377 -0.2801
 5982TIP3   OH239360   4.416   1.209   1.612  0.4679 -0.3157 -0.2561
 5982TIP3    H139361   4.364   1.234   1.689  0.9001 -0.5679  0.1229
 5982TIP3    H239362   4.371   1.132   1.577 -0.3557  0.4546 -0.9002
 5983TIP3   OH239363   5.654   6.236   2.774  0.0094 -0.3676  0.1734
 5983TIP3    H139364   5.631   6.191   2.692  2.9348 -1.1646 -0.2582
 5983TIP3    H239365   5.607   6.187   2.841 -0.1837 -1.4698 -0.7346
 5984TIP3   OH239366   4.099   1.726   5.902  0.4723  0.0316 -0.0158
 5984TIP3    H139367   4.075   1.644   5.860 -0.0682  1.1457 -1.9432
 5984TIP3    H239368   4.046   1.729   5.982 -0.7025 -0.7252 -0.7618
 5985TIP3   OH239369   1.196   0.542   2.709 -0.1186  0.6262  0.2722
 5985TIP3    H139370   1.143   0.576   2.636 -0.9427 -0.6182  0.2692
 5985TIP3    H239371   1.270   0.602   2.715 -0.5351  1.2883 -0.9832
 5986TIP3   OH239372   6.275   5.995   3.902 -0.1621 -0.2797 -0.2610
 5986TIP3    H139373   6.322   6.078   3.899  0.7207 -0.6867  1.3816
 5986TIP3    H239374   6.296   5.952   3.820  0.5859  0.4710 -0.4726
 5987TIP3   OH239375   1.795   0.235  15.721  0.2622 -0.2132  0.2611
 5987TIP3    H139376   1.856   0.177  15.675 -0.1516  1.1146 -1.9957
 5987TIP3    H239377   1.849   0.308  15.751 -0.0942  0.6808 -1.2432
 5988TIP3   OH239378   1.502   3.769  11.464  0.6305 -0.5861  0.5816
 5988TIP3    H139379   1.456   3.815  11.393 -0.2352 -1.2258  0.7099
 5988TIP3    H239380   1.443   3.777  11.539  1.3515 -0.2766  1.1112
 5989TIP3   OH239381   5.839   5.837   5.917 -0.3099 -0.0444 -0.2339
 5989TIP3    H139382   5.812   5.915   5.869  0.1236  0.7205  0.7457
 5989TIP3    H239383   5.792   5.841   6.000  2.0875  0.8592  1.1358
 5990TIP3   OH239384   3.493   5.597   5.459  0.2753 -0.1727  0.6086
 5990TIP3    H139385   3.403   5.603   5.490  0.0938  0.4322 -0.0331
 5990TIP3    H239386   3.546   5.604   5.538 -0.1608  2.1965  0.7240
 5991TIP3   OH239387   1.074   0.653   4.007 -0.3380  0.0982 -0.2883
 5991TIP3    H139388   1.039   0.660   3.918  0.0636 -0.3875 -0.4894
 5991TIP3    H239389   1.159   0.611   3.995  1.0932  2.8210  0.0336
 5992TIP3   OH239390   0.653   5.670  10.510 -0.2106 -0.3540 -0.7127
 5992TIP3    H139391   0.655   5.596  10.570  0.2270 -0.2435 -0.5938
 5992TIP3    H239392   0.577   5.722  10.539 -0.1256 -0.4113 -0.3915
 5993TIP3   OH239393   2.582   1.452  15.822 -0.2427 -0.5175 -0.2574
 5993TIP3    H139394   2.549   1.526  15.771  1.2644 -0.3578 -1.0403
 5993TIP3    H239395   2.532   1.454  15.903 -1.0804  0.6217 -0.7903
 5994TIP3   OH239396   3.380   5.621  15.487  0.2849 -0.2191 -0.7175
 5994TIP3    H139397   3.370   5.609  15.393 -1.0638  0.0621 -0.6151
 5994TIP3    H239398   3.470   5.591  15.505 -0.6959 -3.9990 -1.4934
 5995TIP3   OH239399   4.614   5.912  12.058 -0.0538  0.3568 -0.0155
 5995TIP3    H139400   4.707   5.926  12.038 -0.5538  1.2291 -1.7263
 5995TIP3    H239401   4.575   5.999  12.057 -1.1994 -0.1602 -0.7853
 5996TIP3   OH239402   3.767   0.983  13.463  0.1379 -0.0892  0.0837
 5996TIP3    H139403   3.749   1.062  13.413 -0.5310 -1.7032 -2.3074
 5996TIP3    H239404   3.862   0.982  13.471  0.2316  0.4062 -0.8269
 5997TIP3   OH239405   5.026   2.890  16.192  0.6286 -0.1750 -0.2955
 5997TIP3    H139406   5.023   2.869  16.099  0.0088 -2.2947  0.1773
 5997TIP3    H239407   5.101   2.840  16.226 -1.8981 -3.1281  1.1778
 5998TIP3   OH239408   5.052   5.185  12.735 -0.0589  0.1557  0.5027
 5998TIP3    H139409   5.065   5.091  12.746  0.9083  0.0952 -0.9631
 5998TIP3    H239410   5.101   5.225  12.806 -1.0303 -0.4566  1.5396
 5999TIP3   OH239411   3.722   2.573   1.367  0.0149  0.0760 -0.8956
 5999TIP3    H139412   3.774   2.551   1.444 -0.4468  2.1932  0.0431
 5999TIP3    H239413   3.786   2.593   1.299  0.4559  2.1169  0.0940
 6000TIP3   OH239414   2.653   1.870  13.884 -0.1563  0.4618 -0.2395
 6000TIP3    H139415   2.628   1.785  13.921  0.8190  0.9940  1.7403
 6000TIP3    H239416   2.673   1.851  13.792  1.0580 -1.6787  0.4230
 6001TIP3   OH239417   3.544   3.163   4.368  0.5602  0.0914 -0.3629
 6001TIP3    H139418   3.475   3.142   4.431  1.5025 -0.9556  0.3310
 6001TIP3    H239419   3.551   3.259   4.371 -0.5225  0.1634 -0.0841
 6002TIP3   OH239420   1.672   1.106   1.550 -0.2552  0.0590  0.4799
 6002TIP3    H139421   1.682   1.053   1.629  0.4198  1.0216  1.0465
 6002TIP3    H239422   1.663   1.042   1.479  1.4068 -0.8215  1.0430
 6003TIP3   OH239423   5.439   5.936  14.904 -0.4133 -0.6828  0.2396
 6003TIP3    H139424   5.468   5.865  14.847  0.2701  0.1603 -0.4724
 6003TIP3    H239425   5.446   5.901  14.992  0.2931 -1.3649 -0.0867
 6004TIP3   OH239426   5.731   4.201  11.603  0.2822  0.1456  0.1247
 6004TIP3    H139427   5.806   4.143  11.593  0.4334  0.0459  1.6099
 6004TIP3    H239428   5.766   4.289  11.586  0.2387 -0.1126 -1.3178
 6005TIP3   OH239429   6.774   6.613  11.460  0.1592  0.3372  0.0020
 6005TIP3    H139430   6.714   6.626  11.388  1.1674  1.1517 -0.7054
 6005TIP3    H239431   6.835   6.687  11.455  1.7806 -0.9447  0.1180
 6006TIP3   OH239432   2.175   5.477   4.738 -0.9445  0.3499  0.4604
 6006TIP3    H139433   2.097   5.516   4.698 -2.2608 -1.0839  1.5430
 6006TIP3    H239434   2.151   5.465   4.830  0.5557 -0.1378  0.7999
 6007TIP3   OH239435   2.279   1.563   1.107 -0.1787  0.1296  0.6558
 6007TIP3    H139436   2.199   1.525   1.069 -2.4560  1.9277  3.3960
 6007TIP3    H239437   2.294   1.643   1.057  0.7383 -0.8806 -0.7342
 6008TIP3   OH239438   3.440   1.051  13.350 -0.1657 -0.6428 -0.6889
 6008TIP3    H139439   3.370   1.050  13.285 -1.7679  0.7041  0.9475
 6008TIP3    H239440   3.395   1.037  13.434  1.4562  0.7340  0.4400
 6009TIP3   OH239441   6.609   2.473  15.578 -0.2038  0.0389 -0.1141
 6009TIP3    H139442   6.624   2.542  15.514 -0.1480 -0.9865 -1.2242
 6009TIP3    H239443   6.526   2.433  15.552  0.0910 -0.7453  0.1316
 6010TIP3   OH239444   5.405   4.403   4.010 -0.1659  0.5159 -0.0068
 6010TIP3    H139445   5.316   4.410   4.043 -0.4043 -0.3866 -0.4398
 6010TIP3    H239446   5.403   4.328   3.951  0.5889  1.2342 -0.9725
 6011TIP3   OH239447   5.124   1.719  14.765  0.3321  0.3625  0.5561
 6011TIP3    H139448   5.104   1.804  14.805 -0.9106  1.0048 -1.3474
 6011TIP3    H239449   5.103   1.731  14.672  0.6523 -1.8741  0.1690
 6012TIP3   OH239450   5.990   3.598   1.549  0.0467 -0.2850 -0.0361
 6012TIP3    H139451   6.048   3.585   1.624 -1.1112  0.0083  0.9322
 6012TIP3    H239452   6.041   3.651   1.488  0.8028 -0.0291  0.8058
 6013TIP3   OH239453   2.079   2.090  15.912 -0.2259  0.2964  0.4797
 6013TIP3    H139454   2.071   2.077  16.007 -0.5137 -1.1316  0.2697
 6013TIP3    H239455   2.092   2.002  15.877 -1.8335  0.6154 -0.9798
 6014TIP3   OH239456   5.068   0.818  14.755  0.5631 -0.2293  0.0960
 6014TIP3    H139457   4.980   0.796  14.785  0.2766  0.5098 -0.1877
 6014TIP3    H239458   5.082   0.763  14.678 -0.4068  1.0372 -1.0064
 6015TIP3   OH239459   5.724   3.354  10.976  0.2483  0.5146  0.2479
 6015TIP3    H139460   5.641   3.335  10.933  0.3577  1.4245 -0.3993
 6015TIP3    H239461   5.756   3.270  11.007  0.5069 -0.2993 -2.0937
 6016TIP3   OH239462   0.536   3.155  11.392 -0.2865  0.0155  0.3133
 6016TIP3    H139463   0.581   3.239  11.400 -0.8299  0.4176 -0.7393
 6016TIP3    H239464   0.445   3.175  11.414 -0.1428 -0.6056  1.5130
 6017TIP3   OH239465   5.075   3.957   5.678  0.1829  0.1071 -0.3203
 6017TIP3    H139466   5.029   3.950   5.762 -1.3448 -3.5528 -1.3628
 6017TIP3    H239467   5.039   4.036   5.638 -0.8997  0.5172  1.3975
 6018TIP3   OH239468   0.667   2.211   3.096 -0.1915 -0.2795  0.0578
 6018TIP3    H139469   0.622   2.196   3.013 -1.6824 -1.2741  1.0234
 6018TIP3    H239470   0.705   2.299   3.087 -1.5003  0.1793 -1.1499
 6019TIP3   OH239471   6.764   0.779   4.063 -0.3499  0.0397  0.4813
 6019TIP3    H139472   6.841   0.765   4.118 -0.4094 -1.3677  0.2167
 6019TIP3    H239473   6.725   0.860   4.097  1.3413  0.8753  0.4942
 6020TIP3   OH239474   3.990   4.105  11.695 -0.0751 -0.1477 -0.4722
 6020TIP3    H139475   3.948   4.057  11.766 -0.2529 -1.7037 -1.5988
 6020TIP3    H239476   4.084   4.099  11.713 -0.1559  0.2377  0.1022
 6021TIP3   OH239477   0.053   5.723   3.574  0.3214  0.0615  0.1204
 6021TIP3    H139478   0.026   5.687   3.659 -0.4580 -0.3070 -0.2862
 6021TIP3    H239479  -0.024   5.713   3.518  0.5162  1.1881 -0.3618
 6022TIP3   OH239480   3.719   2.008   4.826 -0.3058 -0.1740  0.0367
 6022TIP3    H139481   3.651   1.980   4.887 -0.8498 -0.3322 -0.6454
 6022TIP3    H239482   3.781   1.935   4.823 -0.5235 -0.3565  0.0318
 6023TIP3   OH239483   6.366   4.022   4.485 -0.0419  0.4141  0.1709
 6023TIP3    H139484   6.419   4.067   4.551 -0.1513 -1.0511  1.2789
 6023TIP3    H239485   6.297   4.085   4.462 -0.4214  0.6746  1.9594
 6024TIP3   OH239486   1.692   0.403  16.053 -0.6395  0.0973  0.0741
 6024TIP3    H139487   1.747   0.435  16.123  0.1868 -0.2404 -0.4118
 6024TIP3    H239488   1.715   0.310  16.044 -0.2387  0.2931 -1.0930
 6025TIP3   OH239489   0.773   0.694   1.123 -0.3970  0.4163 -0.2391
 6025TIP3    H139490   0.803   0.661   1.039 -0.0658  1.5705 -0.5702
 6025TIP3    H239491   0.712   0.627   1.154 -0.0143 -0.3290 -1.0829
 6026TIP3   OH239492   0.629   0.462  11.064  0.6727  0.0041  0.3450
 6026TIP3    H139493   0.653   0.403  11.135 -0.4694 -1.5591 -0.5546
 6026TIP3    H239494   0.550   0.424  11.026  0.8459  1.2210 -1.2977
 6027TIP3   OH239495   1.391   4.712   0.994  0.1551 -0.6078  0.5427
 6027TIP3    H139496   1.325   4.741   0.930 -1.2778 -0.9670  1.8236
 6027TIP3    H239497   1.405   4.620   0.973 -0.5475 -0.8062  0.9482
 6028TIP3   OH239498   3.575   3.001   5.652  0.5122 -0.0723  0.1537
 6028TIP3    H139499   3.487   3.018   5.618  0.0725 -0.2684  1.1736
 6028TIP3    H239500   3.560   2.958   5.736  1.5594  1.0576  0.9313
 6029TIP3   OH239501   2.018   6.303  13.247  0.0387 -0.4112  0.5483
 6029TIP3    H139502   2.052   6.298  13.336 -0.4282  0.7737  0.8007
 6029TIP3    H239503   1.935   6.256  13.251  0.2580 -0.7954  0.6148
 6030TIP3   OH239504   4.739   5.501  14.904 -1.0167 -0.5735  0.3383
 6030TIP3    H139505   4.750   5.566  14.973 -1.7496 -1.1835  1.0428
 6030TIP3    H239506   4.760   5.417  14.947 -1.5379 -0.9633 -0.1533
 6031TIP3   OH239507   3.441   3.688   2.557  0.3092 -0.1510 -0.1336
 6031TIP3    H139508   3.387   3.665   2.632  1.4231 -1.6334  0.2405
 6031TIP3    H239509   3.531   3.685   2.590  0.6255  2.9068 -0.5802
 6032TIP3   OH239510   4.270   5.986   0.617  0.0501  1.1389  0.2639
 6032TIP3    H139511   4.360   5.991   0.584 -0.0142 -0.5745 -0.2120
 6032TIP3    H239512   4.216   5.976   0.538 -0.6973  3.3991  0.4503
 6033TIP3   OH239513   3.890   1.563  11.151  0.1524 -0.0537  0.0964
 6033TIP3    H139514   3.880   1.545  11.058  1.8348 -0.6239  0.0197
 6033TIP3    H239515   3.887   1.659  11.157 -1.3295 -0.0575 -0.3601
 6034TIP3   OH239516   2.656   0.169   5.751 -0.1468 -0.0965  0.2618
 6034TIP3    H139517   2.614   0.109   5.690  0.3002  0.3166 -0.4548
 6034TIP3    H239518   2.611   0.252   5.740 -1.6652 -0.6174  2.2132
 6035TIP3   OH239519   4.343   2.869  17.220  0.3065 -0.1249  0.1205
 6035TIP3    H139520   4.272   2.821  17.262  0.6141 -0.7953 -0.1161
 6035TIP3    H239521   4.358   2.944  17.277 -0.9687  0.3287 -0.1210
 6036TIP3   OH239522   5.244   3.652   5.048 -0.3312  0.7273  0.1374
 6036TIP3    H139523   5.209   3.570   5.084  1.2922  0.2154  0.6279
 6036TIP3    H239524   5.168   3.697   5.012 -1.3298 -0.7711  0.3064
 6037TIP3   OH239525   0.851   3.565   3.792 -0.0713  0.0519  0.0376
 6037TIP3    H139526   0.906   3.495   3.826  0.3954  0.0987 -0.6258
 6037TIP3    H239527   0.839   3.624   3.867  0.1301 -0.3607  0.3957
 6038TIP3   OH239528   6.527   1.145   5.604  0.5111 -0.3853 -0.2517
 6038TIP3    H139529   6.435   1.139   5.632  0.5536  2.4775  0.7106
 6038TIP3    H239530   6.575   1.158   5.686  1.6720 -0.8441 -0.8571
 6039TIP3   OH239531   2.779   5.732   4.332  0.6566 -0.0097  0.2870
 6039TIP3    H139532   2.848   5.759   4.271  0.6082  0.3013  0.3655
 6039TIP3    H239533   2.762   5.640   4.312  1.9404 -0.4285  1.0617
 6040TIP3   OH239534   5.817   6.498   1.008 -0.0978 -0.2468 -0.2086
 6040TIP3    H139535   5.806   6.412   1.048  0.3455  0.3685  1.2582
 6040TIP3    H239536   5.804   6.482   0.914  0.2761 -1.9597  0.0072
 6041TIP3   OH239537   1.845   1.337   1.214 -0.0993  0.0663 -0.2123
 6041TIP3    H139538   1.910   1.302   1.154  0.3543  1.5507 -0.6029
 6041TIP3    H239539   1.891   1.346   1.298  0.4060  1.7114 -0.6447
 6042TIP3   OH239540   2.179   4.042   0.873  0.1330  0.1134 -0.2586
 6042TIP3    H139541   2.198   4.048   0.967  0.4328 -1.4210 -0.1940
 6042TIP3    H239542   2.084   4.032   0.868  0.1423 -0.0785 -0.0858
 6043TIP3   OH239543   6.299   5.447   5.657  0.1723  0.0260 -0.0357
 6043TIP3    H139544   6.299   5.542   5.669  1.9035 -0.0708  0.9710
 6043TIP3    H239545   6.372   5.431   5.596  1.6388 -0.8616  1.8927
 6044TIP3   OH239546   3.377   0.714  16.638 -0.7012  0.5097 -0.3567
 6044TIP3    H139547   3.468   0.710  16.609 -0.4137  0.2369  0.5401
 6044TIP3    H239548   3.326   0.712  16.558  0.0686  0.1422 -0.8474
 6045TIP3   OH239549   1.885   4.521  12.307 -0.1157 -0.0781  0.0381
 6045TIP3    H139550   1.815   4.484  12.253 -0.8803  0.8085  0.4196
 6045TIP3    H239551   1.850   4.603  12.339  1.0715  0.3237  0.3228
 6046TIP3   OH239552   6.010   2.617   4.212 -0.0855 -0.3091 -0.1825
 6046TIP3    H139553   6.027   2.591   4.302  1.3949  0.6124 -0.1773
 6046TIP3    H239554   5.943   2.556   4.181  0.7363 -1.8165  0.9537
 6047TIP3   OH239555   2.180   3.576  13.576  0.1747  0.1563  0.4930
 6047TIP3    H139556   2.088   3.569  13.551  0.4427 -0.7738 -0.2824
 6047TIP3    H239557   2.205   3.665  13.552  0.0752 -0.3070 -1.4282
 6048TIP3   OH239558   5.526   3.641   4.303 -0.1411 -0.3054  0.3033
 6048TIP3    H139559   5.531   3.545   4.299  2.6347 -0.1730 -0.8469
 6048TIP3    H239560   5.498   3.668   4.215 -1.2527 -0.0508  0.7237
 6049TIP3   OH239561   5.381   0.192  11.671 -0.2859  0.0454  0.0022
 6049TIP3    H139562   5.450   0.136  11.707 -1.7072 -2.0435 -0.3860
 6049TIP3    H239563   5.407   0.206  11.580 -1.0292 -1.9048 -0.5408
 6050TIP3   OH239564   4.442   0.451  11.686  0.3142 -0.4588  0.1307
 6050TIP3    H139565   4.421   0.403  11.606 -1.3540  0.0926  0.2120
 6050TIP3    H239566   4.537   0.454  11.688  0.3887 -1.2887 -1.3456
 6051TIP3   OH239567   5.401   3.771   0.975  0.0897 -0.6123 -0.3304
 6051TIP3    H139568   5.491   3.751   0.950 -0.0126 -1.5522  0.0394
 6051TIP3    H239569   5.375   3.697   1.030 -0.4220  0.3752  0.7539
 6052TIP3   OH239570   3.872   4.198   5.311 -0.1602 -0.3373  0.5546
 6052TIP3    H139571   3.895   4.266   5.374  1.7494  0.1580 -0.6474
 6052TIP3    H239572   3.955   4.172   5.272 -1.2474 -1.0547 -1.3487
 6053TIP3   OH239573   3.979   1.319  13.823  0.1439  0.1040 -0.7032
 6053TIP3    H139574   4.015   1.380  13.758  2.4942  0.5348  0.9335
 6053TIP3    H239575   3.949   1.375  13.894  1.2215 -0.5820  0.3004
 6054TIP3   OH239576   6.297   2.731   0.514  0.4103  0.2750  0.2157
 6054TIP3    H139577   6.336   2.742   0.601  0.4746 -2.1535  0.5251
 6054TIP3    H239578   6.359   2.675   0.467 -0.0505  0.8540 -1.1065
 6055TIP3   OH239579   0.282   5.489  11.791  0.1195  0.3342 -0.0060
 6055TIP3    H139580   0.289   5.561  11.727 -1.2248  0.4037 -0.1106
 6055TIP3    H239581   0.206   5.514  11.845 -0.0105 -0.7348  0.3083
 6056TIP3   OH239582   2.728   3.919  15.871 -0.6014 -0.2744  0.1181
 6056TIP3    H139583   2.697   3.953  15.956 -0.6492 -1.3227  0.5224
 6056TIP3    H239584   2.821   3.904  15.885 -0.5006  0.0630 -0.1861
 6057TIP3   OH239585   3.147   1.317  11.682 -1.0642 -0.4798 -0.4949
 6057TIP3    H139586   3.161   1.345  11.772 -0.9942  0.2021 -0.7118
 6057TIP3    H239587   3.055   1.289  11.679 -0.9618 -0.8487 -0.1213
 6058TIP3   OH239588   5.274   6.153  13.162  0.0125  0.5540 -0.2161
 6058TIP3    H139589   5.343   6.101  13.203  0.2641  0.6368 -0.5346
 6058TIP3    H239590   5.291   6.146  13.068 -0.7345  0.1159 -0.3268
 6059TIP3   OH239591   4.535   4.642  10.943 -0.1680 -0.0787 -0.5460
 6059TIP3    H139592   4.538   4.627  10.849  1.8419 -2.3577 -0.1543
 6059TIP3    H239593   4.481   4.571  10.978  1.7725 -1.1528  0.3465
 6060TIP3   OH239594   0.877   1.244  13.386 -0.0459  0.0026 -0.3342
 6060TIP3    H139595   0.838   1.223  13.301  0.8389 -3.4457  0.0411
 6060TIP3    H239596   0.822   1.315  13.421 -1.1421  0.6537 -3.2236
 6061TIP3   OH239597   1.193   0.832   4.257 -0.0125 -0.3007 -0.4898
 6061TIP3    H139598   1.254   0.759   4.267 -0.0367 -0.2546  0.0610
 6061TIP3    H239599   1.202   0.859   4.166  1.3747  0.2052 -0.2152
 6062TIP3   OH239600   6.272   4.080  15.473  0.4490 -0.1732  0.2712
 6062TIP3    H139601   6.207   4.010  15.466 -0.0570  0.4874 -1.7557
 6062TIP3    H239602   6.247   4.127  15.553 -0.5932 -0.8846  0.3720
 6063TIP3   OH239603   3.897   5.631  15.783 -0.1830  0.0345  0.0019
 6063TIP3    H139604   3.947   5.560  15.743 -1.1542  0.3681 -1.8458
 6063TIP3    H239605   3.830   5.587  15.834  0.1957 -0.3942  0.1343
 6064TIP3   OH239606   3.203   5.010   2.955 -0.2170 -0.1185 -0.3398
 6064TIP3    H139607   3.232   5.078   3.014 -0.7587 -1.8922  2.0448
 6064TIP3    H239608   3.130   5.048   2.907 -2.0920  0.2197  2.6977
 6065TIP3   OH239609   5.004   6.038   5.126  0.4375 -0.0910  0.4404
 6065TIP3    H139610   4.952   5.985   5.186  0.6146 -2.3580 -1.3572
 6065TIP3    H239611   5.073   5.980   5.096  1.4189  1.5645 -0.5949
 6066TIP3   OH239612   0.451   3.340   5.321  0.0287  0.2191 -0.3284
 6066TIP3    H139613   0.455   3.415   5.262 -2.3682  0.7030  0.0813
 6066TIP3    H239614   0.380   3.361   5.382  0.0808 -1.8828  0.4972
 6067TIP3   OH239615   5.740   0.814  14.117  0.0264  0.5682 -0.3871
 6067TIP3    H139616   5.763   0.839  14.207  0.8513 -0.3559 -0.3270
 6067TIP3    H239617   5.802   0.744  14.095 -0.9111 -0.0043 -1.2631
 6068TIP3   OH239618   5.917   2.459   1.435  0.0561 -0.7743  0.5403
 6068TIP3    H139619   5.990   2.411   1.475  0.2797  0.4232  1.6070
 6068TIP3    H239620   5.959   2.525   1.380 -0.2376 -0.6858  0.4198
 6069TIP3   OH239621   0.993   3.687  13.721  0.2674 -0.2344 -0.0919
 6069TIP3    H139622   1.040   3.665  13.801 -1.2805 -3.2793  0.0783
 6069TIP3    H239623   0.953   3.604  13.693 -0.3838  1.0449 -3.2443
 6070TIP3   OH239624   2.083   5.831   2.481 -0.4726 -0.7127  0.0859
 6070TIP3    H139625   2.066   5.883   2.559 -0.6888 -0.4603 -0.1262
 6070TIP3    H239626   2.153   5.771   2.506 -1.4965 -1.5860  0.9051
 6071TIP3   OH239627   1.715   4.794   4.556 -0.0939 -0.3039  0.5674
 6071TIP3    H139628   1.627   4.804   4.593 -0.0570 -0.1595  0.6166
 6071TIP3    H239629   1.745   4.884   4.540 -0.2150 -0.3769 -0.0640
 6072TIP3   OH239630   2.943   1.883   4.686  0.0072 -0.1980  0.5073
 6072TIP3    H139631   2.862   1.873   4.636  0.5534  0.7372 -0.6035
 6072TIP3    H239632   2.998   1.809   4.658  0.1880  0.1431 -0.0734
 6073TIP3   OH239633   3.328   4.409  16.015  0.2739  0.0983 -0.0666
 6073TIP3    H139634   3.259   4.420  15.949  1.6856  0.0951 -1.5798
 6073TIP3    H239635   3.407   4.442  15.972  1.3556 -0.6021  1.3692
 6074TIP3   OH239636   2.577   1.024  12.533 -0.6144  0.3118 -0.2434
 6074TIP3    H139637   2.665   1.052  12.510 -0.6259  0.5240 -0.0298
 6074TIP3    H239638   2.589   0.942  12.581 -0.3928  1.4248  1.6311
 6075TIP3   OH239639   4.069   0.746   1.919 -0.1286 -0.3568  1.1267
 6075TIP3    H139640   4.066   0.652   1.934 -0.7281 -0.6771 -0.7825
 6075TIP3    H239641   4.007   0.783   1.982  0.3011 -1.1979  2.0558
 6076TIP3   OH239642   4.142   2.040  11.845  0.0335  0.1668  0.1762
 6076TIP3    H139643   4.206   1.977  11.812  0.2949 -0.4126  1.7394
 6076TIP3    H239644   4.195   2.113  11.878 -0.2500  1.0280 -1.2508
 6077TIP3   OH239645   2.320   0.174  14.593  0.7549 -0.2546 -0.6466
 6077TIP3    H139646   2.395   0.132  14.634  0.7261 -0.2531 -0.5933
 6077TIP3    H239647   2.344   0.266  14.586 -0.4979  0.3430  2.2539
 6078TIP3   OH239648   5.141   1.470   3.238  0.4717  0.1635 -0.1722
 6078TIP3    H139649   5.068   1.438   3.185 -0.1370 -0.6670  1.1635
 6078TIP3    H239650   5.117   1.560   3.261 -0.3875 -0.2898  0.7161
 6079TIP3   OH239651   3.947   0.055  11.331 -0.3261 -0.0789 -0.3283
 6079TIP3    H139652   3.874   0.069  11.270  0.0404 -0.6529 -0.9114
 6079TIP3    H239653   3.916   0.090  11.414 -1.3468 -0.5125 -0.5222
 6080TIP3   OH239654   0.948   0.274   3.046  0.5093 -0.4998 -0.5700
 6080TIP3    H139655   0.895   0.330   3.102  0.0800 -2.5439  1.1172
 6080TIP3    H239656   1.024   0.328   3.024 -0.2734  1.0143  0.3461
 6081TIP3   OH239657   3.536   6.103   0.839 -0.2076 -0.3876 -0.1792
 6081TIP3    H139658   3.587   6.033   0.880 -0.0567  0.3697  0.9649
 6081TIP3    H239659   3.461   6.058   0.800 -0.2289 -1.1751  0.7320
 6082TIP3   OH239660   6.607   4.714  16.217 -0.1102 -0.4657  0.0966
 6082TIP3    H139661   6.604   4.773  16.142  0.3315 -0.5236  0.0330
 6082TIP3    H239662   6.681   4.656  16.198 -0.4614 -0.9547  0.2217
 6083TIP3   OH239663   3.892   4.505  13.264 -0.5716 -0.2604  0.0758
 6083TIP3    H139664   3.846   4.564  13.323 -1.3926 -0.9677  0.1488
 6083TIP3    H239665   3.828   4.438  13.241  0.0118 -0.4981 -0.8997
 6084TIP3   OH239666   4.970   5.827  11.834 -0.4939 -0.2901 -0.6229
 6084TIP3    H139667   4.959   5.736  11.859  0.2585  0.2043  1.6131
 6084TIP3    H239668   4.945   5.877  11.912  0.8857  1.3563 -1.1963
 6085TIP3   OH239669   3.037   2.586   5.459 -0.1804 -0.0971 -0.4554
 6085TIP3    H139670   3.118   2.605   5.507 -0.2371 -0.4142 -0.2305
 6085TIP3    H239671   3.029   2.657   5.396 -0.6308  0.8724  0.6675
 6086TIP3   OH239672   4.880   1.509  12.113  0.2469  0.2862  0.2586
 6086TIP3    H139673   4.910   1.588  12.158  0.3987 -0.4792  1.5128
 6086TIP3    H239674   4.923   1.512  12.027  0.7943  1.2090  0.5631
 6087TIP3   OH239675   0.599   1.092  16.792  0.7225 -0.2683  0.0408
 6087TIP3    H139676   0.608   1.102  16.697  0.8557  1.1805  0.1923
 6087TIP3    H239677   0.505   1.098  16.808  0.4447 -3.3202 -0.2790
 6088TIP3   OH239678   1.987   2.775  11.125 -0.2325 -0.1720 -0.4683
 6088TIP3    H139679   2.061   2.791  11.066 -0.1307  0.0481 -0.2826
 6088TIP3    H239680   1.927   2.848  11.107  0.6395  0.9432  1.0278
 6089TIP3   OH239681   5.953   2.969   4.397  0.0376  0.7146  0.0146
 6089TIP3    H139682   5.977   2.918   4.474  0.8654  2.6402  1.0866
 6089TIP3    H239683   6.006   3.049   4.405 -1.2737  1.7529 -1.5548
 6090TIP3   OH239684   0.149   4.470   3.942 -0.5624  0.6933 -0.5507
 6090TIP3    H139685   0.180   4.498   4.028 -0.4764  2.3680 -1.1211
 6090TIP3    H239686   0.074   4.413   3.962  1.3551 -1.4968  0.7222
 6091TIP3   OH239687   4.884   0.838   5.871  0.1283  0.1198  0.2579
 6091TIP3    H139688   4.827   0.772   5.909  0.9805 -0.4425  0.5675
 6091TIP3    H239689   4.969   0.823   5.912  0.1582  1.8902  0.9082
 6092TIP3   OH239690   4.601   4.678   1.113 -0.0338  0.3346  0.3790
 6092TIP3    H139691   4.549   4.670   1.033 -0.0356 -0.6006  0.4627
 6092TIP3    H239692   4.540   4.657   1.184 -0.4268  2.6621  0.7605
 6093TIP3   OH239693   0.532   4.538   5.175  0.0249 -0.2740  0.1230
 6093TIP3    H139694   0.590   4.477   5.130  0.6487  0.0489  0.4782
 6093TIP3    H239695   0.585   4.617   5.187 -0.4937  0.0304  0.4293
 6094TIP3   OH239696   3.312   5.957  11.595  0.0654  0.3428  0.2702
 6094TIP3    H139697   3.384   5.932  11.537  0.2724 -0.4701  0.8828
 6094TIP3    H239698   3.233   5.939  11.544  0.2468 -0.4239  0.2657
 6095TIP3   OH239699   6.564   1.643   2.771 -0.1502 -0.0977  0.3058
 6095TIP3    H139700   6.483   1.610   2.811 -0.1251  1.3833  1.6242
 6095TIP3    H239701   6.554   1.624   2.678 -1.8750 -0.2041  0.4886
 6096TIP3   OH239702   6.228   0.698   5.087 -0.1743  0.8873 -0.3706
 6096TIP3    H139703   6.153   0.657   5.130  0.0455  1.2446  0.3466
 6096TIP3    H239704   6.304   0.666   5.134  0.2028 -0.2352 -1.7130
 6097TIP3   OH239705   5.495   3.084  17.003 -0.2471 -0.7161 -0.7752
 6097TIP3    H139706   5.573   3.036  16.975  0.3640 -0.1990  0.0178
 6097TIP3    H239707   5.499   3.167  16.955 -0.6285 -0.9353 -1.1879
 6098TIP3   OH239708   3.496   5.224  10.897  0.1771 -0.1634  0.0530
 6098TIP3    H139709   3.561   5.290  10.872  0.8351 -0.6739  0.4069
 6098TIP3    H239710   3.411   5.266  10.880  0.5451  1.4542  1.9284
 6099TIP3   OH239711   2.181   0.855   2.488 -0.0196  0.3118  0.2374
 6099TIP3    H139712   2.098   0.835   2.532 -0.0324 -0.3555 -0.0764
 6099TIP3    H239713   2.190   0.785   2.423 -0.5230  1.8906 -1.5451
 6100TIP3   OH239714   0.950   0.282   2.586 -0.1891  0.2498  0.2034
 6100TIP3    H139715   1.033   0.256   2.547  0.3454  0.3695  1.2352
 6100TIP3    H239716   0.922   0.357   2.535 -0.3183 -0.5904 -0.9795
 6101TIP3   OH239717   6.050   2.982   1.847 -0.2239 -0.2973  0.3748
 6101TIP3    H139718   6.057   3.019   1.935 -0.4228 -0.3818  0.4253
 6101TIP3    H239719   5.981   3.033   1.804  1.9353  1.7952 -0.7570
 6102TIP3   OH239720   2.188   1.163  16.142  0.2951  0.6154  0.7668
 6102TIP3    H139721   2.101   1.183  16.176 -0.4291 -0.3019 -0.5074
 6102TIP3    H239722   2.248   1.199  16.207 -1.0456  0.2521  2.2353
 6103TIP3   OH239723   1.185   3.506  13.889  0.7732 -0.2128 -0.6002
 6103TIP3    H139724   1.254   3.555  13.844 -0.4739  1.0137 -1.2502
 6103TIP3    H239725   1.190   3.418  13.853  1.5608  0.0543 -1.1501
 6104TIP3   OH239726   5.874   4.753  11.708 -0.0997 -0.2702  0.2173
 6104TIP3    H139727   5.868   4.661  11.681 -1.3734  0.0505 -0.6183
 6104TIP3    H239728   5.939   4.752  11.779  2.6750 -1.2380 -2.2461
 6105TIP3   OH239729   0.306   6.683   4.002 -0.2800 -0.2149 -0.1536
 6105TIP3    H139730   0.385   6.737   3.996 -0.4989  0.2009  0.5953
 6105TIP3    H239731   0.237   6.744   4.028 -1.1730 -0.3006 -2.2656
 6106TIP3   OH239732   1.153   2.797   4.732 -0.4125 -0.0547  0.2596
 6106TIP3    H139733   1.167   2.888   4.759 -0.6979  0.7059 -2.0453
 6106TIP3    H239734   1.241   2.764   4.715 -0.2609 -0.4197  1.6856
 6107TIP3   OH239735   5.554   1.366  10.975 -0.0002  0.2265 -0.2980
 6107TIP3    H139736   5.588   1.392  11.061 -3.8482 -0.8687  1.6781
 6107TIP3    H239737   5.545   1.448  10.927  1.4795  0.9490  0.6325
 6108TIP3   OH239738   5.761   0.937   1.542 -0.2701  0.5596 -0.8881
 6108TIP3    H139739   5.775   1.025   1.575  0.1246  0.2112 -0.1044
 6108TIP3    H239740   5.849   0.901   1.531 -0.4583 -0.4113  0.6651
 6109TIP3   OH239741   2.919   4.579   5.654  0.5507  0.0901 -0.1328
 6109TIP3    H139742   3.013   4.564   5.661  0.1263 -4.2547 -2.0315
 6109TIP3    H239743   2.881   4.524   5.722 -0.7071  0.1526 -0.7747
 6110TIP3   OH239744   3.701   4.289  13.261  0.0841  0.3401 -0.1769
 6110TIP3    H139745   3.712   4.218  13.325  1.7727  0.2124 -0.5926
 6110TIP3    H239746   3.693   4.244  13.177  1.6804  0.6428 -0.5059
 6111TIP3   OH239747   0.704   1.138  16.539  0.3948  0.5562  0.0466
 6111TIP3    H139748   0.735   1.055  16.504 -1.0793  0.0185 -0.0385
 6111TIP3    H239749   0.732   1.203  16.475  0.9185  0.0312 -0.2608
 6112TIP3   OH239750   4.026   5.749  15.051  0.6848 -0.0016 -0.4458
 6112TIP3    H139751   4.014   5.704  15.134  0.6950  0.0660 -0.4081
 6112TIP3    H239752   4.119   5.772  15.048  1.1880 -2.0264 -1.5141
 6113TIP3   OH239753   6.776   0.433   3.412 -0.2583  0.0418  0.7274
 6113TIP3    H139754   6.683   0.416   3.432 -0.0427 -2.4316 -0.2498
 6113TIP3    H239755   6.776   0.468   3.323 -0.4365  2.4489  1.6382
 6114TIP3   OH239756   5.579   6.388   0.711 -0.3727  0.6882 -0.0058
 6114TIP3    H139757   5.673   6.372   0.721  0.0501  1.8142 -1.8463
 6114TIP3    H239758   5.546   6.310   0.667 -0.3942  0.0857  1.0675
 6115TIP3   OH239759   4.911   3.814   1.840 -0.0672  0.3690 -0.1474
 6115TIP3    H139760   4.875   3.877   1.902  1.3075  0.6019  0.4256
 6115TIP3    H239761   4.902   3.857   1.755 -0.4329  0.7520  0.0832
 6116TIP3   OH239762   4.547   1.922   4.562  0.0961 -0.0220 -0.2377
 6116TIP3    H139763   4.623   1.978   4.547 -1.5032  1.8101 -1.7844
 6116TIP3    H239764   4.486   1.978   4.610 -0.2243 -1.5292  1.1291
 6117TIP3   OH239765   3.888   2.555   3.067 -0.3076  0.3847  0.3688
 6117TIP3    H139766   3.848   2.515   3.144 -0.6301  0.3778  0.1969
 6117TIP3    H239767   3.912   2.481   3.010  1.7349  0.2641  1.3304
 6118TIP3   OH239768   5.503   2.244   5.404 -0.1238  0.3692 -0.7951
 6118TIP3    H139769   5.587   2.289   5.397 -0.7996  1.9028  0.8263
 6118TIP3    H239770   5.443   2.296   5.350  0.0658 -1.0433 -2.4162
 6119TIP3   OH239771   3.149   6.292   3.251 -0.0754  0.0365  0.5756
 6119TIP3    H139772   3.125   6.383   3.233 -1.9148 -0.8175 -1.4954
 6119TIP3    H239773   3.098   6.241   3.189  1.1146 -2.4211  1.5499
 6120TIP3   OH239774   2.518   6.760  12.601  0.3008  0.3618  0.2601
 6120TIP3    H139775   2.457   6.692  12.630  0.1120  0.7197  0.7157
 6120TIP3    H239776   2.524   6.820  12.676 -1.4311  2.1931 -1.0052
 6121TIP3   OH239777   2.713   0.271   1.275 -0.1437  0.1505  0.2775
 6121TIP3    H139778   2.775   0.207   1.309  0.5202 -0.0593 -1.2965
 6121TIP3    H239779   2.638   0.220   1.245 -0.0625  0.1957 -0.0070
 6122TIP3   OH239780   2.813   0.547   0.413 -0.9507 -0.2182  0.1471
 6122TIP3    H139781   2.756   0.621   0.392 -1.0677  0.0379  1.3525
 6122TIP3    H239782   2.753   0.479   0.444 -0.7691 -0.5705 -0.2678
 6123TIP3   OH239783   5.230   0.514  14.104  0.3701 -0.2114 -0.5275
 6123TIP3    H139784   5.253   0.521  14.196 -0.5097 -0.4143 -0.2915
 6123TIP3    H239785   5.145   0.557  14.097  0.7248  0.3771 -1.3615
 6124TIP3   OH239786   4.944   1.718  11.647  0.7650 -0.1556 -0.2781
 6124TIP3    H139787   4.897   1.800  11.663  0.3925 -0.2412 -0.9034
 6124TIP3    H239788   5.028   1.745  11.610  0.3441 -0.0792 -1.1926
 6125TIP3   OH239789   3.455   0.164   4.809 -0.2642 -0.0622 -1.3115
 6125TIP3    H139790   3.528   0.206   4.763  1.1707  0.0989  1.0043
 6125TIP3    H239791   3.387   0.231   4.813  0.6982  0.8925 -0.6631
 6126TIP3   OH239792   0.141   4.169  15.287  0.0271  0.0609 -0.1682
 6126TIP3    H139793   0.153   4.140  15.197 -2.2265 -0.1930 -0.4024
 6126TIP3    H239794   0.080   4.242  15.281 -0.6194 -0.3498  1.2150
 6127TIP3   OH239795   4.814   5.102  13.631  0.2270  0.0466 -0.1490
 6127TIP3    H139796   4.832   5.085  13.724  0.9682 -0.9801 -0.4621
 6127TIP3    H239797   4.900   5.120  13.593  0.1045 -0.8471 -0.8820
 6128TIP3   OH239798   4.121   2.858  12.860  0.9626 -0.0576 -0.2902
 6128TIP3    H139799   4.149   2.859  12.951  0.6137  2.3312 -0.1935
 6128TIP3    H239800   4.183   2.914  12.814 -0.9215  1.5958 -0.8706
 6129TIP3   OH239801   4.069   5.662   1.446 -0.0945 -0.2477 -0.2104
 6129TIP3    H139802   3.988   5.611   1.443  0.8748 -1.8941  0.6405
 6129TIP3    H239803   4.041   5.750   1.469 -1.5540 -1.0919  1.4113
 6130TIP3   OH239804   1.969   0.266  12.596 -0.7561  0.0128 -0.0342
 6130TIP3    H139805   1.917   0.322  12.654  0.6288  0.8641  0.4196
 6130TIP3    H239806   1.979   0.184  12.645 -0.8597  0.1920  0.2878
 6131TIP3   OH239807   2.589   3.930   5.658 -0.1483 -0.2459 -0.4724
 6131TIP3    H139808   2.508   3.957   5.615 -1.5856 -2.6728  0.5867
 6131TIP3    H239809   2.621   3.857   5.605  1.2984  0.6075 -0.8011
 6132TIP3   OH239810   2.867   6.689  12.255  0.5312 -0.2544  0.7505
 6132TIP3    H139811   2.833   6.600  12.264 -1.0820  0.5292  2.5201
 6132TIP3    H239812   2.871   6.723  12.344  0.2140  1.7956  0.0029
 6133TIP3   OH239813   4.004   2.053   4.258  0.2194  0.1639  0.0142
 6133TIP3    H139814   3.975   1.974   4.212 -3.0506  1.3409 -0.0973
 6133TIP3    H239815   4.040   2.108   4.188 -0.0021 -0.1264 -0.3341
 6134TIP3   OH239816   1.292   0.826  15.434 -0.0806  0.1316 -0.1701
 6134TIP3    H139817   1.227   0.893  15.453 -0.9051 -0.5975 -0.4130
 6134TIP3    H239818   1.245   0.743  15.443  0.9473 -0.4191  0.1726
 6135TIP3   OH239819   6.259   5.009  14.884  0.3568  0.0609 -0.5272
 6135TIP3    H139820   6.256   5.047  14.971  1.8751 -2.0100  0.4803
 6135TIP3    H239821   6.167   5.000  14.858 -0.0927  0.9445  0.7462
 6136TIP3   OH239822   6.434   5.324   6.242 -0.6196  0.1414  0.0049
 6136TIP3    H139823   6.356   5.316   6.297 -2.6419  0.7834 -2.6106
 6136TIP3    H239824   6.401   5.362   6.160  2.0293 -1.8753 -2.0971
 6137TIP3   OH239825   1.654   2.864  17.092 -0.0887 -0.4923 -0.0431
 6137TIP3    H139826   1.697   2.874  17.007 -1.4253 -0.0368 -0.6731
 6137TIP3    H239827   1.563   2.846  17.070 -0.2701 -1.2160  1.2894
 6138TIP3   OH239828   4.034   1.639   6.707 -0.2709  0.0856 -0.5037
 6138TIP3    H139829   4.095   1.709   6.733 -0.1900 -0.0635 -0.2853
 6138TIP3    H239830   4.007   1.662   6.618 -2.0304  1.6448  0.3930
 6139TIP3   OH239831   0.440   1.897  17.087  0.0018 -0.2855 -0.2452
 6139TIP3    H139832   0.473   1.953  17.017  1.0975  0.1241  0.5791
 6139TIP3    H239833   0.493   1.818  17.082  3.1634  1.4666  2.8295
 6140TIP3   OH239834   3.924   1.757   4.223  0.0617 -0.0292 -0.1926
 6140TIP3    H139835   3.937   1.728   4.313  0.1052  0.8897  0.0982
 6140TIP3    H239836   3.832   1.782   4.218  0.3462  1.0637 -0.0714
 6141TIP3   OH239837   4.868   2.554  12.601  0.1582  0.0755 -0.3828
 6141TIP3    H139838   4.882   2.461  12.620 -0.2802  0.0737 -0.0483
 6141TIP3    H239839   4.793   2.578  12.656 -0.4034  0.3590 -1.2602
 6142TIP3   OH239840   3.994   5.684   0.486 -0.2182 -0.1191  0.1164
 6142TIP3    H139841   3.937   5.648   0.419  0.7224  1.2499 -1.4746
 6142TIP3    H239842   4.075   5.633   0.479  0.0246  0.2861 -0.0835
 6143TIP3   OH239843   5.631   4.252   2.542 -0.1077  0.1483  0.2727
 6143TIP3    H139844   5.547   4.294   2.524  0.2012  1.0909  0.9603
 6143TIP3    H239845   5.661   4.293   2.623  1.6564  0.8216 -0.7013
 6144TIP3   OH239846   4.983   1.705  14.516 -0.4207  0.1198 -0.6099
 6144TIP3    H139847   4.929   1.750  14.580  0.5737 -3.1028  2.6308
 6144TIP3    H239848   4.921   1.652  14.465 -0.8488  0.1586 -0.1293
 6145TIP3   OH239849   1.778   5.132  11.585 -0.1259  0.0657 -0.1141
 6145TIP3    H139850   1.847   5.151  11.648  0.3218  0.4697 -0.7274
 6145TIP3    H239851   1.824   5.093  11.510 -0.4684  1.0443 -0.8377
 6146TIP3   OH239852   1.729   3.377   4.822 -0.3059  0.0970 -0.3162
 6146TIP3    H139853   1.669   3.308   4.796 -0.0176 -0.6710  1.0128
 6146TIP3    H239854   1.753   3.420   4.740 -1.9119 -0.1960 -0.9542
 6147TIP3   OH239855   5.166   2.477  14.051 -0.3345 -0.5526 -0.0152
 6147TIP3    H139856   5.228   2.477  14.125 -0.5071 -0.3080  0.1273
 6147TIP3    H239857   5.181   2.560  14.007  1.5361 -1.7426 -1.7298
 6148TIP3   OH239858   5.441   2.848  15.505 -0.2154 -0.2079  0.4769
 6148TIP3    H139859   5.413   2.922  15.450  1.6586 -0.9912 -1.5854
 6148TIP3    H239860   5.376   2.779  15.487 -0.9315  0.3112  1.0325
 6149TIP3   OH239861   0.569   4.055  11.157  0.7508 -0.1519  0.5783
 6149TIP3    H139862   0.646   4.076  11.104  0.0121 -2.3056 -1.4968
 6149TIP3    H239863   0.596   3.979  11.209  1.2590  1.5552  2.8947
 6150TIP3   OH239864   6.057   3.628  11.885 -0.0936  0.3162  0.1463
 6150TIP3    H139865   5.993   3.691  11.917 -1.1073 -1.1561  1.0892
 6150TIP3    H239866   6.132   3.638  11.945  0.5561  1.9879 -0.9159
 6151TIP3   OH239867   4.695   0.894  12.853  0.2614  0.5448 -0.8279
 6151TIP3    H139868   4.769   0.942  12.816  0.0604  3.0680  1.8840
 6151TIP3    H239869   4.621   0.954  12.844 -0.5861 -0.3376  0.1533
 6152TIP3   OH239870   5.774   1.023   5.177 -0.5525  0.3248  0.0002
 6152TIP3    H139871   5.769   1.084   5.250  1.0632 -1.0182  1.2713
 6152TIP3    H239872   5.704   0.960   5.195 -1.4371  1.1027 -0.6745
 6153TIP3   OH239873   0.952   0.137   0.240  0.5913  0.3818 -0.0097
 6153TIP3    H139874   0.992   0.223   0.258 -0.9086  0.7161  1.9609
 6153TIP3    H239875   0.940   0.098   0.327  1.8753 -2.1473 -0.9104
 6154TIP3   OH239876   4.714   4.058   3.698 -0.0449 -0.3291 -0.1268
 6154TIP3    H139877   4.676   4.127   3.643  0.6634  0.4024  0.3005
 6154TIP3    H239878   4.707   4.092   3.787  2.0159  0.0181 -0.0739
 6155TIP3   OH239879   5.248   2.465   3.819  0.0343  0.2969 -0.0474
 6155TIP3    H139880   5.316   2.399   3.806 -0.0028  0.5995 -1.8892
 6155TIP3    H239881   5.296   2.547   3.833  0.0681  0.0301  1.5245
 6156TIP3   OH239882   5.063   2.270  16.171  0.0840 -0.7778 -0.2914
 6156TIP3    H139883   5.103   2.356  16.178  1.1162 -1.2019 -0.8838
 6156TIP3    H239884   5.018   2.270  16.087  0.7504 -1.0842 -0.6545
 6157TIP3   OH239885   5.498   1.406  13.186 -0.4057 -0.1009  0.2256
 6157TIP3    H139886   5.430   1.427  13.250  0.6755  1.0311  1.0204
 6157TIP3    H239887   5.578   1.396  13.237 -0.2312 -3.0171 -0.5142
 6158TIP3   OH239888   3.920   1.621  14.814  0.6978 -0.1154  0.4148
 6158TIP3    H139889   3.856   1.560  14.777 -0.0453  1.2680 -0.6246
 6158TIP3    H239890   3.918   1.603  14.908 -1.2926 -0.0458  0.4164
 6159TIP3   OH239891   2.138   5.011   2.330 -0.3323  0.6594  0.0840
 6159TIP3    H139892   2.175   5.041   2.413  0.3936  3.0782 -1.0421
 6159TIP3    H239893   2.102   5.090   2.290  0.1878 -0.2627 -2.3246
 6160TIP3   OH239894   2.097   5.225   2.142  0.6184 -0.0598 -0.2267
 6160TIP3    H139895   2.093   5.311   2.182  0.9348 -0.8550  1.5640
 6160TIP3    H239896   2.005   5.203   2.123  0.2783 -0.4346  1.7594
 6161TIP3   OH239897   0.768   6.475  15.955  0.6645 -0.2925  0.5548
 6161TIP3    H139898   0.676   6.500  15.944  0.1299 -0.5916  3.8003
 6161TIP3    H239899   0.808   6.550  15.999  2.0794 -0.0413 -1.1119
 6162TIP3   OH239900   1.117   3.989  11.664 -0.3102 -0.2183 -0.2674
 6162TIP3    H139901   1.074   3.983  11.750  2.1261 -0.1185  1.0096
 6162TIP3    H239902   1.157   3.903  11.652  2.1384  0.8152  0.2419
 6163TIP3   OH239903   5.610   2.611   4.951 -0.5902  0.6775 -0.2850
 6163TIP3    H139904   5.533   2.645   4.996  0.8404  1.7384  1.4608
 6163TIP3    H239905   5.684   2.656   4.994  1.0009 -0.5540 -1.6820
 6164TIP3   OH239906   0.359   3.420   0.831 -0.2254 -0.2035 -0.2744
 6164TIP3    H139907   0.438   3.408   0.884  1.2671 -2.8608 -2.9352
 6164TIP3    H239908   0.378   3.497   0.777  0.6982 -0.9798 -1.0859
 6165TIP3   OH239909   3.340   5.254  11.979  0.4650 -0.2995 -0.2786
 6165TIP3    H139910   3.358   5.345  12.003 -0.8085 -0.6513  2.2239
 6165TIP3    H239911   3.250   5.255  11.947 -0.3337 -0.9698  1.8219
 6166TIP3   OH239912   2.479   5.780  12.662 -0.7415  0.3661 -0.1321
 6166TIP3    H139913   2.540   5.738  12.600 -2.2619  0.9136 -2.0459
 6166TIP3    H239914   2.481   5.723  12.739  1.6436 -0.0141 -0.4154
 6167TIP3   OH239915   4.954   5.536  15.598  0.2738 -0.2807 -0.0139
 6167TIP3    H139916   4.960   5.448  15.636 -1.6070 -0.3022  0.2773
 6167TIP3    H239917   4.972   5.595  15.671 -0.9004 -0.3792  0.3652
 6168TIP3   OH239918   3.959   4.514   0.608 -0.1332 -0.8530  0.7278
 6168TIP3    H139919   4.044   4.548   0.635  0.2922 -1.0229 -0.3929
 6168TIP3    H239920   3.969   4.493   0.515 -1.2067 -1.4686  0.7376
 6169TIP3   OH239921   4.602   1.842  11.823 -0.6471  0.3184  0.3609
 6169TIP3    H139922   4.612   1.785  11.899  2.7803 -0.2361 -0.4445
 6169TIP3    H239923   4.648   1.923  11.848 -0.3534  0.4978 -0.7573
 6170TIP3   OH239924   4.985   4.613   3.207 -0.4809  0.1951 -0.0030
 6170TIP3    H139925   5.042   4.682   3.239  0.9561 -0.2834 -1.4562
 6170TIP3    H239926   5.037   4.568   3.141 -2.0251 -1.1788 -0.3143
 6171TIP3   OH239927   5.640   0.674   2.978  0.5188  0.3391 -0.3168
 6171TIP3    H139928   5.590   0.691   2.898  0.6989 -0.4273 -0.5915
 6171TIP3    H239929   5.617   0.585   3.002  0.7431  0.4422  0.2911
 6172TIP3   OH239930   0.686   0.886  10.405  0.6931  0.4883  0.1647
 6172TIP3    H139931   0.711   0.848  10.321  0.1648  0.8344 -0.1554
 6172TIP3    H239932   0.602   0.844  10.426  0.9172  0.2592  0.6139
 6173TIP3   OH239933   2.568   5.845   1.181 -0.0055  0.3474 -0.6205
 6173TIP3    H139934   2.621   5.792   1.241  0.5928  1.6238 -0.0013
 6173TIP3    H239935   2.482   5.804   1.182 -0.0828  0.5194  1.3602
 6174TIP3   OH239936   6.726   2.916   4.719  0.0506  0.0536 -0.0954
 6174TIP3    H139937   6.687   2.926   4.632 -1.9298 -0.0726  0.7467
 6174TIP3    H239938   6.787   2.843   4.709 -2.4552 -2.0801 -0.6971
 6175TIP3   OH239939   0.675   3.583  10.705 -0.0986 -0.0979 -0.4993
 6175TIP3    H139940   0.587   3.612  10.683  0.0669 -0.0532 -1.1153
 6175TIP3    H239941   0.662   3.503  10.756 -0.5850  1.4694  1.9102
 6176TIP3   OH239942   5.546   6.159  15.300 -0.3358 -0.2651 -0.1755
 6176TIP3    H139943   5.602   6.237  15.299 -0.4651 -0.1746 -1.2390
 6176TIP3    H239944   5.461   6.191  15.331  0.1490 -0.3723  1.2915
 6177TIP3   OH239945   3.538   3.735  13.810  0.1672  0.1309  0.0228
 6177TIP3    H139946   3.509   3.735  13.719  0.6997  0.4405 -0.1517
 6177TIP3    H239947   3.458   3.728  13.861 -0.0401 -1.4111 -0.4970
 6178TIP3   OH239948   6.122   2.895   2.647  0.5998 -0.0551 -0.0103
 6178TIP3    H139949   6.161   2.834   2.709  1.8219  1.8989  1.1768
 6178TIP3    H239950   6.055   2.843   2.602  1.0701 -2.0444  1.5095
 6179TIP3   OH239951   6.024   1.518   6.576  0.4319  0.3735  0.3025
 6179TIP3    H139952   6.075   1.570   6.515 -0.2773  1.1690  0.3909
 6179TIP3    H239953   6.070   1.433   6.579  1.2546  0.7930 -0.2621
 6180TIP3   OH239954   1.845   4.843  12.774  0.0673  0.1232  0.2089
 6180TIP3    H139955   1.878   4.889  12.696 -0.4488  0.2554  0.0629
 6180TIP3    H239956   1.763   4.887  12.795 -1.3729 -1.8594 -1.0171
 6181TIP3   OH239957   4.414   5.988   2.505  0.4364 -0.0987  0.0925
 6181TIP3    H139958   4.382   5.946   2.584  0.6480 -1.9210 -0.7676
 6181TIP3    H239959   4.505   5.958   2.497 -0.1684 -1.4662 -1.8633
 6182TIP3   OH239960   3.067   2.004   3.338  0.0925  0.0039  0.4886
 6182TIP3    H139961   3.047   2.001   3.244  0.8963  0.6341  0.2908
 6182TIP3    H239962   2.989   2.045   3.377  1.3406  3.4243 -0.4203
 6183TIP3   OH239963   2.314   2.926   4.909  0.4282  0.0352  0.0536
 6183TIP3    H139964   2.356   2.927   4.995 -0.4705  0.4231  0.5029
 6183TIP3    H239965   2.227   2.889   4.926  0.2376  0.1364 -0.6892
 6184TIP3   OH239966   0.242   0.159  11.642  0.7504  0.1278  0.0765
 6184TIP3    H139967   0.172   0.224  11.639  1.3527  0.8425  1.3148
 6184TIP3    H239968   0.197   0.075  11.651  0.0773  0.6147  1.2229
 6185TIP3   OH239969   5.301   2.475   5.302 -0.3955 -0.3461  0.4684
 6185TIP3    H139970   5.224   2.497   5.249 -0.2050 -0.5532  0.1017
 6185TIP3    H239971   5.373   2.475   5.239  0.1023  1.0629  1.0205
 6186TIP3   OH239972   6.232   1.630   1.365 -0.1693  0.1426 -0.1286
 6186TIP3    H139973   6.180   1.552   1.343 -0.5826  0.4110 -0.1099
 6186TIP3    H239974   6.178   1.677   1.429  0.4314  0.0443  0.4519
 6187TIP3   OH239975   0.853   1.618   1.913 -0.2533 -0.3491 -0.1930
 6187TIP3    H139976   0.918   1.637   1.845  0.8619 -0.3512  0.8384
 6187TIP3    H239977   0.825   1.529   1.895 -1.0090  0.1410 -1.4752
 6188TIP3   OH239978   1.583   0.519  14.393  0.0538 -0.0698  0.3325
 6188TIP3    H139979   1.563   0.502  14.485  0.9560 -0.2305  0.4987
 6188TIP3    H239980   1.666   0.475  14.377  0.6858  1.2627 -0.1476
 6189TIP3   OH239981   6.553   3.372  11.608 -0.1284 -0.0454 -0.6375
 6189TIP3    H139982   6.612   3.416  11.547  0.7821 -2.2242 -1.3966
 6189TIP3    H239983   6.611   3.319  11.663 -1.1251  0.3046  0.7947
 6190TIP3   OH239984   3.609   2.602  14.816 -0.5915  0.5138  0.0840
 6190TIP3    H139985   3.570   2.684  14.786  1.3424  0.4402 -2.7789
 6190TIP3    H239986   3.559   2.534  14.769 -0.1227  0.2049  0.0343
 6191TIP3   OH239987   3.602   4.368  17.076  0.7750 -0.0191  0.8207
 6191TIP3    H139988   3.542   4.307  17.118 -1.3606  0.4251 -1.4557
 6191TIP3    H239989   3.554   4.451  17.073  1.9818  0.6753  0.0668
 6192TIP3   OH239990   5.331   5.482   2.278 -0.0398 -0.1074 -0.6778
 6192TIP3    H139991   5.426   5.492   2.285 -0.1163 -0.6806  1.6032
 6192TIP3    H239992   5.318   5.434   2.196  1.5928  0.4963 -1.3157
 6193TIP3   OH239993   1.694   4.718  15.955 -0.7142 -0.1117 -0.1199
 6193TIP3    H139994   1.784   4.736  15.983 -0.0770 -2.0287 -0.7968
 6193TIP3    H239995   1.704   4.675  15.869 -2.1931 -1.3046  0.2815
 6194TIP3   OH239996   6.452   3.084  15.290 -0.0484  0.1924  0.2818
 6194TIP3    H139997   6.403   3.097  15.370 -0.5897  1.0056 -0.1760
 6194TIP3    H239998   6.466   3.172  15.256  0.6810 -0.1087 -0.2165
 6195TIP3   OH239999   1.480   4.739   1.627 -0.0096 -0.0261 -0.1115
 6195TIP3    H140000   1.406   4.784   1.669  0.6665  1.1548 -0.1540
 6195TIP3    H240001   1.440   4.689   1.556 -0.6842  1.3131 -0.7013
 6196TIP3   OH240002   6.710   5.295   1.420  0.2167  0.1247  0.2167
 6196TIP3    H140003   6.697   5.312   1.513  0.0026 -0.7754  0.3489
 6196TIP3    H240004   6.792   5.247   1.415 -0.7369 -1.5080  0.1109
 6197TIP3   OH240005   3.710   5.739   2.730  0.0522 -0.3628  0.4570
 6197TIP3    H140006   3.705   5.802   2.802  3.1775  0.2306  0.2282
 6197TIP3    H240007   3.775   5.776   2.670 -0.6773 -2.0825 -1.4539
 6198TIP3   OH240008   4.017   1.427  12.138  0.0949  0.7671 -0.4201
 6198TIP3    H140009   3.981   1.423  12.227 -0.7491  0.1789 -0.7828
 6198TIP3    H240010   3.992   1.343  12.099 -0.2292  1.3596 -1.4805
 6199TIP3   OH240011   0.472   0.787  11.177 -0.1702 -0.6009  0.1295
 6199TIP3    H140012   0.448   0.871  11.217  1.3700  0.0181 -0.1648
 6199TIP3    H240013   0.450   0.798  11.084  2.8718  0.7073 -0.5289
 6200TIP3   OH240014   0.969   3.553  17.180 -0.1570  0.3679  0.0884
 6200TIP3    H140015   0.929   3.628  17.224 -0.3154  0.5917 -0.4402
 6200TIP3    H240016   0.978   3.487  17.249 -1.1689  0.4160  0.2740
 6201TIP3   OH240017   6.627   3.363  16.046 -0.7566  0.1831  0.0735
 6201TIP3    H140018   6.711   3.408  16.057 -0.3026 -0.8372  0.8334
 6201TIP3    H240019   6.637   3.281  16.093 -1.8842 -0.3407 -0.5724
 6202TIP3   OH240020   6.664   3.486   2.126  0.2534 -0.4778 -0.0499
 6202TIP3    H140021   6.577   3.525   2.125  0.4130 -0.1165 -0.0464
 6202TIP3    H240022   6.675   3.453   2.215  2.1836  4.2039  1.6206
 6203TIP3   OH240023   3.266   2.992   2.518  0.1510 -0.1313 -0.6931
 6203TIP3    H140024   3.294   3.056   2.584  2.3549 -1.8887  0.1516
 6203TIP3    H240025   3.266   3.041   2.436 -1.0016  1.6689  0.3577
 6204TIP3   OH240026   2.811   4.593  11.093  0.3750 -0.4189 -0.0432
 6204TIP3    H140027   2.841   4.613  11.182 -1.2284 -0.9346  0.6252
 6204TIP3    H240028   2.869   4.522  11.064  1.4113  0.2745  0.2774
 6205TIP3   OH240029   5.565   1.275   0.921  0.2611 -0.6700 -0.2036
 6205TIP3    H140030   5.502   1.249   0.854 -1.6645 -0.3214  1.4196
 6205TIP3    H240031   5.635   1.210   0.915 -1.9624 -3.1939  0.2856
 6206TIP3   OH240032   6.775   5.238  13.407  0.2774 -0.4402  0.2967
 6206TIP3    H140033   6.731   5.186  13.341 -1.8430  0.3902  0.9958
 6206TIP3    H240034   6.808   5.175  13.470 -1.1307 -1.0246  0.4645
 6207TIP3   OH240035   2.443   4.590  13.469  0.2793 -0.0473  0.8136
 6207TIP3    H140036   2.375   4.658  13.459 -0.9833 -1.4249 -0.1892
 6207TIP3    H240037   2.502   4.604  13.395 -0.7092 -0.8445 -0.1366
 6208TIP3   OH240038   1.916   1.340  15.567 -0.5283 -0.7029 -0.0451
 6208TIP3    H140039   1.885   1.295  15.645 -0.8268 -0.0532  0.2149
 6208TIP3    H240040   1.851   1.317  15.500  0.2937 -2.1081 -0.3832
 6209TIP3   OH240041   6.234   2.362  15.318 -0.7961 -0.2825  0.2376
 6209TIP3    H140042   6.229   2.454  15.291 -1.5639 -0.0834  1.0202
 6209TIP3    H240043   6.295   2.363  15.392 -1.6210 -0.2304  0.9255
 6210TIP3   OH240044   5.293   5.523  15.678 -0.1533 -0.0088 -0.6128
 6210TIP3    H140045   5.350   5.575  15.621 -1.0225 -0.1556 -1.6417
 6210TIP3    H240046   5.213   5.511  15.627 -0.8483 -0.3798  0.5430
 6211TIP3   OH240047   5.181   3.035  17.057 -0.1929 -0.4439 -0.1444
 6211TIP3    H140048   5.162   3.051  17.150  2.7176 -3.2548  1.0195
 6211TIP3    H240049   5.256   3.091  17.038 -1.5086  1.0155 -1.1844
 6212TIP3   OH240050   4.943   2.735   0.261 -0.1672 -1.2348  0.3055
 6212TIP3    H140051   4.858   2.710   0.297  0.1293 -0.7334  1.3769
 6212TIP3    H240052   4.999   2.745   0.338  0.1773  0.9327 -0.2073
 6213TIP3   OH240053   3.492   5.059  15.951  0.4085  0.3964 -0.3603
 6213TIP3    H140054   3.576   5.030  15.985 -0.4309 -0.5000  1.0512
 6213TIP3    H240055   3.484   5.016  15.866  0.5845 -1.0146  0.3223
 6214TIP3   OH240056   2.883   1.540   5.531  0.5819 -0.1415  0.1589
 6214TIP3    H140057   2.898   1.582   5.616  1.6008  1.3415 -0.7360
 6214TIP3    H240058   2.894   1.447   5.548 -2.3207 -0.1490  2.3151
 6215TIP3   OH240059   2.753   1.444  13.720 -0.4691  0.0095  0.0672
 6215TIP3    H140060   2.723   1.535  13.719  0.6470  0.3878  0.0557
 6215TIP3    H240061   2.785   1.428  13.631 -0.7842 -0.4315  0.0324
 6216TIP3   OH240062   1.634   0.687   3.003 -0.3406 -0.3134  0.9457
 6216TIP3    H140063   1.709   0.740   3.028 -0.9523  1.2302 -0.4017
 6216TIP3    H240064   1.559   0.730   3.043 -0.6627 -1.1755  1.2965
 6217TIP3   OH240065   6.598   5.549  13.799  0.7339  0.1662  0.4900
 6217TIP3    H140066   6.553   5.475  13.840  0.4670  0.8017  1.3379
 6217TIP3    H240067   6.613   5.520  13.709 -2.4979  0.3895 -0.1875
 6218TIP3   OH240068   1.587   3.899   6.617  0.1163  0.6176 -0.1298
 6218TIP3    H140069   1.660   3.848   6.651  1.1241  1.4997 -0.9260
 6218TIP3    H240070   1.518   3.890   6.683  1.5897  1.2962  1.5292
 6219TIP3   OH240071   4.613   3.276  16.452 -0.6428  0.6504  0.5389
 6219TIP3    H140072   4.535   3.277  16.397 -0.9972 -0.3777  1.0106
 6219TIP3    H240073   4.677   3.227  16.401 -0.4806  1.0224  0.3867
 6220TIP3   OH240074   1.258   5.242  12.251 -0.3611 -0.0324  0.1101
 6220TIP3    H140075   1.338   5.290  12.233 -1.8944  1.6885 -2.3811
 6220TIP3    H240076   1.195   5.275  12.187 -3.5019 -0.2530  2.9426
 6221TIP3   OH240077   1.746   0.340   6.189  0.0197  0.1916 -0.2250
 6221TIP3    H140078   1.841   0.354   6.179  0.1197  1.7262  2.2679
 6221TIP3    H240079   1.738   0.250   6.220  0.5565 -0.3171 -1.5149
 6222TIP3   OH240080   0.273   0.078  12.024  0.0953  0.1993  0.8727
 6222TIP3    H140081   0.281  -0.014  12.000  0.7739 -0.0923  2.1626
 6222TIP3    H240082   0.186   0.104  11.993  0.0390 -0.7779  0.2061
 6223TIP3   OH240083   0.833   3.582  15.799 -0.5684  0.5220  0.0005
 6223TIP3    H140084   0.892   3.510  15.820 -0.8084 -0.1847 -1.6255
 6223TIP3    H240085   0.811   3.621  15.883  0.1470 -0.8473  0.8387
 6224TIP3   OH240086   5.828   0.853  11.079  0.1682  0.1582 -0.5716
 6224TIP3    H140087   5.783   0.914  11.021 -1.0090 -1.3393 -1.2592
 6224TIP3    H240088   5.857   0.907  11.153 -0.5658  1.5957 -1.3116
 6225TIP3   OH240089   6.165   4.133  13.602 -0.0975  0.4537 -0.4430
 6225TIP3    H140090   6.113   4.074  13.548  0.8193 -0.9233  0.1560
 6225TIP3    H240091   6.217   4.183  13.540  0.1735 -0.3749 -0.8902
 6226TIP3   OH240092   1.331   1.119  13.837 -0.2291  0.2775 -0.3758
 6226TIP3    H140093   1.250   1.089  13.879 -0.7870  1.5012 -0.5335
 6226TIP3    H240094   1.316   1.107  13.743  0.2847 -0.7025 -0.3385
 6227TIP3   OH240095   6.443   6.428  11.581 -0.0619 -0.9300 -0.0016
 6227TIP3    H140096   6.515   6.433  11.644 -0.4512  0.0047  0.3763
 6227TIP3    H240097   6.417   6.519  11.568 -1.2932 -1.2861 -0.0159
 6228TIP3   OH240098   0.128   5.941   4.296 -0.5894  1.0163  0.1000
 6228TIP3    H140099   0.092   5.890   4.224  0.1238  0.5452  0.0744
 6228TIP3    H240100   0.102   6.031   4.277  1.0779  1.1457 -1.6554
 6229TIP3   OH240101   5.167   1.564  16.922 -0.5195 -0.4218 -0.1202
 6229TIP3    H140102   5.258   1.554  16.894 -0.6223  0.1141 -0.6528
 6229TIP3    H240103   5.135   1.474  16.931 -0.3767 -0.6210 -1.3919
 6230TIP3   OH240104   0.885   3.203   5.886 -0.6872 -0.4208 -0.2745
 6230TIP3    H140105   0.901   3.262   5.959 -1.5322 -0.3544 -0.1376
 6230TIP3    H240106   0.835   3.130   5.923 -0.9526 -0.4829 -0.7387
 6231TIP3   OH240107   6.342   2.197   5.216 -0.3728 -0.2481 -0.0472
 6231TIP3    H140108   6.306   2.119   5.174  0.6365 -0.5795 -0.3031
 6231TIP3    H240109   6.285   2.212   5.292 -1.1378 -0.6720 -0.5331
 6232TIP3   OH240110   3.758   4.031   2.834  0.1839  0.2181  0.1903
 6232TIP3    H140111   3.750   3.940   2.805  2.5585  0.1902 -0.4705
 6232TIP3    H240112   3.669   4.065   2.829 -0.7901 -2.1325  0.6823
 6233TIP3   OH240113   1.928   3.236  14.212 -0.2057 -0.0644  0.7445
 6233TIP3    H140114   1.856   3.297  14.224 -0.2502 -0.1658  0.9889
 6233TIP3    H240115   1.911   3.166  14.275 -2.2830 -2.3216 -2.2255
 6234TIP3   OH240116   1.544   1.435   2.289 -0.5627  0.1384  0.3758
 6234TIP3    H140117   1.588   1.350   2.288 -0.9632 -0.0727 -1.2476
 6234TIP3    H240118   1.463   1.420   2.338 -0.1092 -0.1319  1.0464
 6235TIP3   OH240119   1.267   3.186  16.999 -0.3645  0.0547  0.3245
 6235TIP3    H140120   1.220   3.233  16.931 -0.8056 -2.0888 -0.8871
 6235TIP3    H240121   1.231   3.220  17.081 -1.0043  1.4581 -0.5242
 6236TIP3   OH240122   6.536   1.162   2.003 -0.3090 -0.5982 -0.1352
 6236TIP3    H140123   6.491   1.220   1.942 -0.3005 -0.4929 -0.0412
 6236TIP3    H240124   6.604   1.217   2.042 -1.0620 -0.3392  0.8386
 6237TIP3   OH240125   0.816   4.956  16.382 -0.1210  0.5617  0.0077
 6237TIP3    H140126   0.775   5.041  16.395 -0.7758  0.1292  0.8001
 6237TIP3    H240127   0.886   4.953  16.448  0.1744  0.6575 -0.2999
 6238TIP3   OH240128   1.434   2.200  16.601  0.0541  0.1722 -0.0039
 6238TIP3    H140129   1.342   2.172  16.606 -0.4120  1.5348 -0.5720
 6238TIP3    H240130   1.476   2.134  16.547 -0.5163 -0.6669  0.5727
 6239TIP3   OH240131   1.398   5.959  14.970  0.2590  0.6508  0.3850
 6239TIP3    H140132   1.359   5.919  14.892 -2.5268 -0.7701  2.3975
 6239TIP3    H240133   1.408   6.051  14.948 -0.7156  0.3209 -1.5453
 6240TIP3   OH240134   3.914   0.195  16.503 -0.2206  0.3645 -0.6852
 6240TIP3    H140135   3.991   0.172  16.451  0.6070 -1.4711  1.2706
 6240TIP3    H240136   3.950   0.224  16.588 -1.6533  0.2528 -0.0279
 6241TIP3   OH240137   4.253   5.769   2.079 -0.5706  0.1363 -0.2459
 6241TIP3    H140138   4.340   5.746   2.112 -0.7466  1.2788  1.0709
 6241TIP3    H240139   4.261   5.760   1.984  0.5539 -1.2121 -0.0500
 6242TIP3   OH240140   4.962   2.363  16.962 -0.4790 -0.2690 -0.6157
 6242TIP3    H140141   5.047   2.330  16.932  0.3258 -1.5918  2.8869
 6242TIP3    H240142   4.898   2.301  16.927  0.2032 -0.5151 -1.4272
 6243TIP3   OH240143   5.874   2.519  11.503  0.1728  0.1301 -0.1083
 6243TIP3    H140144   5.796   2.573  11.491 -0.2633 -0.2359  1.0192
 6243TIP3    H240145   5.918   2.522  11.419 -2.0736 -1.2361 -1.4005
 6244TIP3   OH240146   2.707   4.270   0.620  0.2893  0.1496  0.2468
 6244TIP3    H140147   2.637   4.251   0.557 -0.9618  2.4413  0.8754
 6244TIP3    H240148   2.786   4.233   0.581 -0.6924  0.4253 -2.0878
 6245TIP3   OH240149   0.433   2.505   2.544 -0.1151 -0.2211  0.5031
 6245TIP3    H140150   0.427   2.564   2.468 -0.0819 -1.6935 -0.6750
 6245TIP3    H240151   0.343   2.490   2.570 -0.1357  0.1726  0.6578
 6246TIP3   OH240152   1.055   1.495  12.245  0.1343 -0.0844  0.1264
 6246TIP3    H140153   1.082   1.448  12.166  1.1962 -2.0015  1.5775
 6246TIP3    H240154   0.960   1.486  12.248 -0.1800  1.9464 -2.0914
 6247TIP3   OH240155   2.181   2.725   5.782 -0.2008 -0.1832 -0.2442
 6247TIP3    H140156   2.225   2.640   5.784 -1.8157 -1.0193  0.6717
 6247TIP3    H240157   2.145   2.731   5.693 -0.6086 -0.7231 -0.1141
 6248TIP3   OH240158   6.213   2.743   2.266  0.4170 -0.3230 -0.7832
 6248TIP3    H140159   6.251   2.826   2.296 -1.6421  0.2210  0.4058
 6248TIP3    H240160   6.288   2.690   2.241  1.8958  1.1469  0.4302
 6249TIP3   OH240161   1.926   0.627   1.872  0.2219  0.5547  0.8238
 6249TIP3    H140162   1.849   0.598   1.823  1.4494 -2.8422  0.7658
 6249TIP3    H240163   1.986   0.659   1.804  1.8172 -3.9003 -0.0445
 6250TIP3   OH240164   3.366   5.758  14.105  0.1179  0.3243 -0.2616
 6250TIP3    H140165   3.419   5.715  14.037  0.9965  0.4789  0.3178
 6250TIP3    H240166   3.331   5.686  14.157  0.4881  0.2521 -0.1093
 6251TIP3   OH240167   1.557   6.377   2.357  0.3446 -0.2870 -0.6173
 6251TIP3    H140168   1.592   6.290   2.339  0.2712 -0.0260 -2.0655
 6251TIP3    H240169   1.488   6.389   2.292 -0.6472  0.2641  0.5195
 6252TIP3   OH240170   1.538   4.082   3.357  0.3357 -0.5150  0.0334
 6252TIP3    H140171   1.596   4.028   3.410  1.1100 -2.3709 -2.5523
 6252TIP3    H240172   1.595   4.148   3.319  0.3346 -0.8674 -0.6027
 6253TIP3   OH240173   1.093   5.537  14.511  0.3699  0.7761 -0.2176
 6253TIP3    H140174   1.167   5.477  14.498  0.2202  0.6957 -0.7032
 6253TIP3    H240175   1.022   5.499  14.459  0.3083  1.4441 -0.6226
 6254TIP3   OH240176   0.420   0.291  15.707 -0.3298 -0.1371  0.6899
 6254TIP3    H140177   0.471   0.276  15.627 -1.9734 -0.0270 -0.4145
 6254TIP3    H240178   0.339   0.241  15.693 -1.2557  1.0742  1.6380
 6255TIP3   OH240179   1.656   5.144   1.588 -0.1226 -0.5883 -1.3556
 6255TIP3    H140180   1.570   5.174   1.619  0.7957  0.7608 -0.0260
 6255TIP3    H240181   1.639   5.057   1.551 -1.6586 -1.4000  1.1029
 6256TIP3   OH240182   1.572   0.351   2.773 -0.5798  0.1321  0.1258
 6256TIP3    H140183   1.543   0.430   2.728 -1.0835 -0.3052 -0.3207
 6256TIP3    H240184   1.539   0.279   2.720  1.3233 -0.3801 -0.4141
 6257TIP3   OH240185   4.779   5.276  15.083  0.4375  0.1635 -0.2325
 6257TIP3    H140186   4.872   5.297  15.073  0.8977  0.8234  4.0691
 6257TIP3    H240187   4.779   5.190  15.126 -0.8540  1.0128  1.5022
 6258TIP3   OH240188   2.850   2.713  15.685 -0.3697 -0.1330 -0.1399
 6258TIP3    H140189   2.881   2.692  15.597  1.9031 -0.2154  0.6324
 6258TIP3    H240190   2.851   2.808  15.689  3.3558 -0.1426  1.0167
 6259TIP3   OH240191   1.472   3.737   4.920  0.3159 -0.3727  0.3251
 6259TIP3    H140192   1.539   3.671   4.901  0.3559 -0.4789  0.8062
 6259TIP3    H240193   1.519   3.804   4.970  0.2953  0.0670 -0.2472
 6260TIP3   OH240194   0.872   2.225   5.729  0.0814  0.3540 -0.3015
 6260TIP3    H140195   0.884   2.219   5.824 -1.6624 -1.3570 -0.1446
 6260TIP3    H240196   0.778   2.235   5.717  0.2197 -0.0536 -1.8694
 6261TIP3   OH240197   5.288   4.106  16.756 -0.0540 -0.1318 -0.0875
 6261TIP3    H140198   5.218   4.072  16.812  0.5554 -0.1522  0.6717
 6261TIP3    H240199   5.257   4.090  16.667 -2.3249  2.4922  0.1581
 6262TIP3   OH240200   3.925   4.744  16.747 -1.0421  0.7056 -0.0307
 6262TIP3    H140201   3.922   4.703  16.660 -0.3236 -0.0298  0.2877
 6262TIP3    H240202   3.889   4.678  16.806 -0.4344  0.7553  0.4049
 6263TIP3   OH240203   1.955   3.813   4.453 -0.7407 -0.0688 -1.3958
 6263TIP3    H140204   2.050   3.820   4.455 -0.6560 -1.1746 -0.6567
 6263TIP3    H240205   1.939   3.721   4.432 -1.6285 -0.1542 -0.4073
 6264TIP3   OH240206   5.024   5.890   1.936  0.2740  0.1437 -0.8524
 6264TIP3    H140207   5.016   5.821   1.869 -1.3172  1.9263 -2.5286
 6264TIP3    H240208   5.119   5.900   1.947  0.5485 -1.0436 -1.9357
 6265TIP3   OH240209   1.908   2.116   3.961 -0.3670 -0.3625  0.0391
 6265TIP3    H140210   1.978   2.062   3.924 -0.0962 -0.6917  1.0129
 6265TIP3    H240211   1.876   2.066   4.036 -0.2721  0.7210  0.8144
 6266TIP3   OH240212   2.470   6.587   0.621 -0.1511 -0.0290  0.0920
 6266TIP3    H140213   2.562   6.588   0.649 -0.0754  0.1354 -0.1608
 6266TIP3    H240214   2.473   6.557   0.530 -0.4304 -0.9420  0.3778
 6267TIP3   OH240215   4.632   2.811   1.273  0.2280 -0.1805 -0.0925
 6267TIP3    H140216   4.598   2.760   1.199 -1.5919  0.8287  0.0364
 6267TIP3    H240217   4.648   2.898   1.237  1.5762 -0.3131  0.1510
 6268TIP3   OH240218   2.975   5.158  10.800 -0.0031  0.6488 -0.3701
 6268TIP3    H140219   3.042   5.111  10.751  0.3654 -0.2427  0.9479
 6268TIP3    H240220   3.014   5.172  10.887 -1.7559 -0.4824  0.6338
 6269TIP3   OH240221   5.022   3.410  15.265 -0.4906  0.0853  0.4750
 6269TIP3    H140222   5.099   3.380  15.217 -0.4824  0.3597  0.3122
 6269TIP3    H240223   5.050   3.416  15.356 -0.7050 -1.1213  0.6253
 6270TIP3   OH240224   2.618   5.321   1.681  0.0897 -0.0189  0.1690
 6270TIP3    H140225   2.645   5.338   1.771 -1.0755  1.6761  0.2016
 6270TIP3    H240226   2.644   5.230   1.666  0.7807 -0.1552  2.0258
 6271TIP3   OH240227   3.459   3.096  12.263  0.4688 -0.4770  0.0058
 6271TIP3    H140228   3.504   3.012  12.269 -0.1139 -0.7012  1.4147
 6271TIP3    H240229   3.431   3.115  12.352 -0.2025  0.7743 -0.4558
 6272TIP3   OH240230   1.680   3.314   3.902  0.4676  0.3599 -0.1537
 6272TIP3    H140231   1.717   3.267   3.827  0.9262  0.6809 -0.1306
 6272TIP3    H240232   1.672   3.404   3.872 -1.3083  0.0915 -0.5220
 6273TIP3   OH240233   3.742   6.257   3.477  0.0923 -0.3912 -0.3672
 6273TIP3    H140234   3.807   6.212   3.531  1.2798  1.6072 -0.0716
 6273TIP3    H240235   3.697   6.187   3.430  2.7042 -1.8127 -0.8431
 6274TIP3   OH240236   3.124   2.490  14.073  0.2205  0.5428  0.0431
 6274TIP3    H140237   3.080   2.408  14.050 -2.3636  1.4491  1.6100
 6274TIP3    H240238   3.105   2.549  14.001  1.2439  0.0942 -0.6074
 6275TIP3   OH240239   3.103   3.148   0.911 -0.2549 -0.5097 -0.1409
 6275TIP3    H140240   3.048   3.213   0.954  0.6605 -0.5344  1.1190
 6275TIP3    H240241   3.158   3.198   0.851  0.4372 -0.1097  0.8171
 6276TIP3   OH240242   4.046   0.513   4.202 -0.0835 -0.1325  0.5776
 6276TIP3    H140243   4.090   0.438   4.241  3.1049  1.1911 -0.3484
 6276TIP3    H240244   4.073   0.588   4.255  0.4111  0.9881 -1.2005
 6277TIP3   OH240245   3.587   5.193  16.568  0.4541 -0.1722 -0.0399
 6277TIP3    H140246   3.667   5.149  16.596  0.8233 -1.6274 -3.1683
 6277TIP3    H240247   3.556   5.141  16.494 -3.1416  0.6380  0.8082
 6278TIP3   OH240248   1.767   0.412  12.175 -0.0577  0.0547 -0.8664
 6278TIP3    H140249   1.807   0.375  12.096 -0.1561  0.5440 -1.1501
 6278TIP3    H240250   1.699   0.471  12.142  1.4788  2.0915 -0.4778
 6279TIP3   OH240251   5.704   3.292  11.525 -0.4238  0.5102 -0.5027
 6279TIP3    H140252   5.618   3.301  11.566  0.1728  0.7228  0.7067
 6279TIP3    H240253   5.754   3.367  11.558  1.0585 -1.0562  0.8534
 6280TIP3   OH240254   5.193   5.014   5.198 -0.2074 -0.0937 -0.0463
 6280TIP3    H140255   5.179   4.934   5.148  1.0790  0.2346 -0.9614
 6280TIP3    H240256   5.233   4.985   5.280 -1.8277 -0.5872  0.5718
 6281TIP3   OH240257   3.200   0.011  17.140 -0.1331  0.1839 -0.1345
 6281TIP3    H140258   3.265   0.047  17.200 -1.5111  1.2301  0.7613
 6281TIP3    H240259   3.120   0.004  17.193 -0.4377 -2.2491 -0.8782
 6282TIP3   OH240260   5.681   3.464   4.976  0.2656  0.8905 -0.1374
 6282TIP3    H140261   5.685   3.469   5.071  1.1484 -0.6062 -0.0867
 6282TIP3    H240262   5.676   3.370   4.956 -0.2775  1.1968 -1.5534
 6283TIP3   OH240263   0.443   2.621  13.979  0.4972 -0.0132  0.1584
 6283TIP3    H140264   0.408   2.560  14.043  1.3209 -1.5259 -0.7954
 6283TIP3    H240265   0.391   2.605  13.900  0.7740  0.4400 -0.1165
 6284TIP3   OH240266   6.630   3.316   3.653 -0.4160  0.0875  0.1814
 6284TIP3    H140267   6.591   3.390   3.607 -3.7654 -1.5772  0.1760
 6284TIP3    H240268   6.669   3.262   3.584  0.3866  0.9054 -0.0023
 6285TIP3   OH240269   4.508   1.151   0.365  0.0667  0.7160 -0.0138
 6285TIP3    H140270   4.443   1.222   0.365 -0.1718  0.4967  0.3150
 6285TIP3    H240271   4.538   1.146   0.274 -0.7591  0.4663 -0.2744
 6286TIP3   OH240272   3.923   5.900  12.864  0.2742  0.8959 -0.7117
 6286TIP3    H140273   3.946   5.825  12.810  1.0961 -0.0206  0.8798
 6286TIP3    H240274   3.969   5.974  12.823 -0.8422  0.6400 -2.5061
 6287TIP3   OH240275   0.981   1.845  14.521 -0.2686  0.1251  0.1188
 6287TIP3    H140276   0.912   1.856  14.456 -1.1175  0.0150  0.9972
 6287TIP3    H240277   1.050   1.797  14.475 -1.3302 -0.9357 -0.3775
 6288TIP3   OH240278   3.321   4.944   4.217 -0.2589  0.0175 -0.2514
 6288TIP3    H140279   3.298   4.875   4.156 -1.9255  0.6972 -0.4103
 6288TIP3    H240280   3.406   4.917   4.253 -0.8816 -2.0964 -0.3046
 6289TIP3   OH240281   0.121   4.032  15.727  0.0524  0.2915 -0.7587
 6289TIP3    H140282   0.128   4.120  15.689  0.7842 -0.1234 -1.5994
 6289TIP3    H240283   0.088   4.047  15.816  1.7809  1.5430 -0.3156
 6290TIP3   OH240284   2.290   5.127  11.537 -0.1944 -0.2291  0.1760
 6290TIP3    H140285   2.242   5.159  11.461  0.0703  1.3980  0.6723
 6290TIP3    H240286   2.294   5.203  11.596  0.2196 -1.2628  1.4949
 6291TIP3   OH240287   4.507   0.040  15.289 -1.0095 -0.5027  0.0329
 6291TIP3    H140288   4.457   0.073  15.364  0.1570 -0.3349  0.7394
 6291TIP3    H240289   4.579  -0.009  15.327  0.0311  0.2236 -0.9585
 6292TIP3   OH240290   4.216   1.904   0.783  0.2313 -0.6381  0.2734
 6292TIP3    H140291   4.139   1.893   0.727  0.8423 -0.0009 -0.6789
 6292TIP3    H240292   4.229   1.998   0.789  2.3044 -0.7817 -1.4339
 6293TIP3   OH240293   1.416   5.908   0.805 -0.5671  0.6964 -0.2205
 6293TIP3    H140294   1.355   5.980   0.822 -1.5900 -0.1440 -0.3088
 6293TIP3    H240295   1.487   5.922   0.868 -0.8335  1.6868 -0.1272
 6294TIP3   OH240296   5.247   5.278   5.185 -0.4771 -0.2288  0.1001
 6294TIP3    H140297   5.242   5.183   5.200  0.6592 -0.4640 -0.9611
 6294TIP3    H240298   5.315   5.288   5.119  0.0446  1.4040  0.8638
 6295TIP3   OH240299   5.196   0.639   1.704 -0.0201 -0.0464 -0.6744
 6295TIP3    H140300   5.205   0.553   1.661  1.4088  0.6794 -1.8430
 6295TIP3    H240301   5.194   0.701   1.632 -1.2900  0.9162  0.1657
 6296TIP3   OH240302   3.680   0.015   4.575 -0.4798  0.1670 -0.5328
 6296TIP3    H140303   3.734  -0.059   4.546 -1.5429 -0.9458  0.2313
 6296TIP3    H240304   3.708   0.031   4.665 -0.9771 -0.0060 -0.3446
 6297TIP3   OH240305   0.590   4.841   3.763 -0.0706 -0.0786 -0.3946
 6297TIP3    H140306   0.546   4.777   3.819  0.6506  0.0210  0.3011
 6297TIP3    H240307   0.521   4.901   3.736 -0.2596  0.4121  1.1488
 6298TIP3   OH240308   0.790   1.750   4.367 -0.6143  0.3982 -0.0338
 6298TIP3    H140309   0.876   1.710   4.362 -1.1744 -0.8908  0.6081
 6298TIP3    H240310   0.769   1.774   4.276 -1.3759 -3.0923 -0.8426
 6299TIP3   OH240311   2.220   4.419   3.502 -0.5227 -0.3181  0.0805
 6299TIP3    H140312   2.193   4.494   3.555 -1.1826 -0.4444 -0.0769
 6299TIP3    H240313   2.138   4.374   3.479 -0.1095 -1.3754  0.6045
 6300TIP3   OH240314   1.164   6.618  12.309  0.2241  0.2289  0.3021
 6300TIP3    H140315   1.090   6.607  12.369 -0.3109  0.4441 -0.3143
 6300TIP3    H240316   1.172   6.534  12.264  1.0382 -0.1521  1.1220
 6301TIP3   OH240317   1.349   5.429  13.249  0.0587 -0.3513  0.4194
 6301TIP3    H140318   1.382   5.489  13.183 -1.5803 -0.1266 -0.2079
 6301TIP3    H240319   1.289   5.482  13.302 -0.7306 -1.2104  0.3945
 6302TIP3   OH240320   3.021   5.216   3.721  0.4174 -0.4909  0.3847
 6302TIP3    H140321   3.111   5.184   3.729  1.4215  1.9680 -0.5843
 6302TIP3    H240322   2.973   5.170   3.790  2.3740 -1.9373  0.8243
 6303TIP3   OH240323   6.015   0.126   5.808  0.0979 -0.1995  0.2070
 6303TIP3    H140324   5.979   0.090   5.889  0.6158 -0.6734  0.2266
 6303TIP3    H240325   5.997   0.058   5.742  0.8315 -0.3737  0.1870
 6304TIP3   OH240326   0.855   1.906   0.360 -0.5248 -0.0929  0.4814
 6304TIP3    H140327   0.889   1.924   0.272 -1.0910 -1.4979 -0.0393
 6304TIP3    H240328   0.879   1.983   0.411  1.4435 -0.0633 -0.4431
 6305TIP3   OH240329   6.106   6.107  16.612 -0.3318  0.0744  0.2281
 6305TIP3    H140330   6.036   6.161  16.648  0.1992  0.0397  1.3197
 6305TIP3    H240331   6.186   6.141  16.653 -0.0839 -2.0704  1.5741
 6306TIP3   OH240332   3.986   3.917   1.045  0.2839  0.0362  0.1676
 6306TIP3    H140333   4.073   3.940   1.077  0.8472 -0.1096 -1.2256
 6306TIP3    H240334   3.926   3.948   1.113  1.3087  1.7982  0.2971
 6307TIP3   OH240335   4.091   2.554  15.233  0.1698 -0.0916  0.1946
 6307TIP3    H140336   4.070   2.635  15.187 -0.4559  0.1802  0.9477
 6307TIP3    H240337   4.015   2.538  15.289  0.6749 -0.7201  0.7068
 6308TIP3   OH240338   2.838   5.887   5.467 -0.2304  0.3337 -0.3765
 6308TIP3    H140339   2.761   5.936   5.438 -0.6180 -0.5096 -0.7655
 6308TIP3    H240340   2.874   5.940   5.538 -0.7239  1.1222 -0.7016
 6309TIP3   OH240341   2.823   2.222   1.194  0.0131 -0.2620  0.2025
 6309TIP3    H140342   2.871   2.176   1.263  1.9108  1.2689 -0.0374
 6309TIP3    H240343   2.820   2.160   1.121  2.0342 -0.2529  0.0840
 6310TIP3   OH240344   0.996   6.713  10.896  0.4266  0.2315 -0.3274
 6310TIP3    H140345   0.939   6.648  10.856 -0.1100  0.3889  0.1638
 6310TIP3    H240346   0.993   6.788  10.837  2.9654 -1.0426 -2.1511
 6311TIP3   OH240347   1.823   6.548   0.085 -0.3507 -0.0144  0.1475
 6311TIP3    H140348   1.802   6.624   0.138 -0.7226 -0.7000  0.9952
 6311TIP3    H240349   1.917   6.557   0.067 -0.3749  0.5929  0.3178
 6312TIP3   OH240350   2.083   5.487   3.264  0.1502 -0.2634 -0.0343
 6312TIP3    H140351   2.127   5.512   3.345 -0.0972 -0.4214  0.1507
 6312TIP3    H240352   2.141   5.422   3.224  0.4432  0.0707 -0.1596
 6313TIP3   OH240353   5.761   0.528   4.104 -0.1011  0.0805 -0.3899
 6313TIP3    H140354   5.786   0.617   4.078  1.6068 -0.3103 -0.1016
 6313TIP3    H240355   5.665   0.532   4.109 -0.2858  1.0255 -3.5016
 6314TIP3   OH240356   5.612   4.107   0.163  0.0308 -0.2543 -0.0643
 6314TIP3    H140357   5.519   4.121   0.146  0.8472  0.1154 -4.9504
 6314TIP3    H240358   5.633   4.026   0.116  2.2796 -0.0017  0.4552
 6315TIP3   OH240359   3.569   6.136  13.764 -0.2806  0.4996 -0.3320
 6315TIP3    H140360   3.593   6.044  13.753  0.7278  0.5797  1.1599
 6315TIP3    H240361   3.651   6.184  13.752 -1.0614  1.3620 -2.6524
 6316TIP3   OH240362   4.354   1.878   0.502 -0.1797  0.4018 -0.1969
 6316TIP3    H140363   4.450   1.868   0.506 -0.3452 -1.5265 -0.4669
 6316TIP3    H240364   4.325   1.860   0.592 -0.4108 -0.6513 -0.4753
 6317TIP3   OH240365   1.078   0.366   0.693 -0.3030 -0.5858 -0.3285
 6317TIP3    H140366   1.017   0.439   0.703 -0.8905 -1.2482  0.9186
 6317TIP3    H240367   1.114   0.352   0.780 -0.3180 -1.8922 -0.5262
 6318TIP3   OH240368   5.785   3.795  13.860 -0.0619  0.0083  0.2075
 6318TIP3    H140369   5.843   3.866  13.834  0.7589 -0.7576 -0.0902
 6318TIP3    H240370   5.763   3.751  13.778 -1.3556  0.5016  0.2726
 6319TIP3   OH240371   1.178   4.353  16.884  0.1229 -0.1851 -0.5396
 6319TIP3    H140372   1.273   4.351  16.871  0.2717 -1.7496  0.7348
 6319TIP3    H240373   1.156   4.447  16.883  1.7318  0.2111 -0.3676
 6320TIP3   OH240374   0.515   2.476   3.638  0.0623 -0.3991 -0.4100
 6320TIP3    H140375   0.423   2.457   3.657  0.2432 -0.8528  0.0179
 6320TIP3    H240376   0.544   2.531   3.711  0.1232 -0.2324 -0.5594
 6321TIP3   OH240377   2.943   0.161  14.404  0.3344  0.7282 -0.5856
 6321TIP3    H140378   2.925   0.208  14.323  1.5539  0.9478 -0.7400
 6321TIP3    H240379   2.898   0.077  14.394  2.7699 -0.4094 -2.7160
 6322TIP3   OH240380   4.583   1.799  16.615 -0.1740  0.0201  0.5013
 6322TIP3    H140381   4.654   1.854  16.647 -1.1015  0.0919  2.4785
 6322TIP3    H240382   4.570   1.827  16.524  1.8442  0.4847  0.3378
 6323TIP3   OH240383   6.407   0.637   5.306 -0.0352 -0.0450  0.3998
 6323TIP3    H140384   6.410   0.710   5.367 -1.0966  0.6473 -0.3687
 6323TIP3    H240385   6.394   0.560   5.363  0.0911  0.4637  1.1290
 6324TIP3   OH240386   3.604   5.505  12.529  0.5862 -0.1149  0.4507
 6324TIP3    H140387   3.653   5.484  12.609  0.4794  2.7790  1.3192
 6324TIP3    H240388   3.667   5.551  12.474 -0.1284  0.3587  0.0244
 6325TIP3   OH240389   0.859   1.755   5.498 -0.1607 -0.0708  0.0632
 6325TIP3    H140390   0.947   1.772   5.532 -0.8429  1.5061  1.1120
 6325TIP3    H240391   0.844   1.828   5.437 -1.9547  1.4488  2.2753
 6326TIP3   OH240392   0.110   6.179   5.542 -0.5142 -0.7803  0.3359
 6326TIP3    H140393   0.105   6.253   5.601  0.9552 -1.5869  1.5105
 6326TIP3    H240394   0.114   6.102   5.599 -1.5867 -1.7482 -0.8477
 6327TIP3   OH240395   4.644   1.323   3.473 -0.1700  0.4594 -0.7387
 6327TIP3    H140396   4.574   1.368   3.521  0.7193  0.6015  0.4581
 6327TIP3    H240397   4.725   1.358   3.511  0.5333 -1.4230 -0.4674
 6328TIP3   OH240398   2.207   5.365   2.388  0.3049  0.2849 -0.2406
 6328TIP3    H140399   2.229   5.444   2.438 -0.8733  1.1911 -1.1202
 6328TIP3    H240400   2.116   5.378   2.361 -0.2111 -1.8214  0.4082
 6329TIP3   OH240401   4.402   0.310  12.681  0.8610 -0.1020  0.7333
 6329TIP3    H140402   4.311   0.339  12.689  0.4573 -1.0544 -0.4260
 6329TIP3    H240403   4.446   0.382  12.635 -0.1981 -1.3780 -2.3684
 6330TIP3   OH240404   2.938   0.282   0.367 -0.6135  0.1766 -0.0999
 6330TIP3    H140405   2.924   0.375   0.382 -0.6847 -0.1763  2.3108
 6330TIP3    H240406   2.852   0.248   0.342 -1.0374  0.4434  0.9459
 6331TIP3   OH240407   2.809   4.419  14.691  0.6752 -0.0025  0.6679
 6331TIP3    H140408   2.779   4.443  14.603 -0.5683  0.0416  1.0971
 6331TIP3    H240409   2.756   4.342  14.714  0.4880  0.4264  1.6670
 6332TIP3   OH240410   2.190   1.266   2.954 -0.4486 -0.1645 -0.2274
 6332TIP3    H140411   2.138   1.206   2.901 -0.3202  1.2149 -1.9739
 6332TIP3    H240412   2.128   1.335   2.979 -0.0656  0.1774 -0.2092
 6333TIP3   OH240413   3.712   0.153  14.754  0.1870 -0.0198  0.2597
 6333TIP3    H140414   3.764   0.233  14.755  0.0328  0.0814  0.1081
 6333TIP3    H240415   3.702   0.129  14.847  1.4252 -0.6375  0.2509
 6334TIP3   OH240416   0.100   6.240   3.268  0.2491  0.5661 -0.2879
 6334TIP3    H140417   0.152   6.288   3.333 -0.1912  1.5324 -0.6500
 6334TIP3    H240418   0.138   6.152   3.268 -0.2582  0.3151  1.8533
 6335TIP3   OH240419   0.510   3.977  12.386 -0.0301 -0.1131  0.1267
 6335TIP3    H140420   0.591   3.966  12.435  0.0560 -1.1648 -0.2482
 6335TIP3    H240421   0.537   3.978  12.294 -0.4449 -0.5015 -0.0022
 6336TIP3   OH240422   2.393   3.448  12.059  0.0313  0.4968 -0.8145
 6336TIP3    H140423   2.482   3.481  12.067  0.5812 -0.8995 -1.0643
 6336TIP3    H240424   2.403   3.355  12.040 -1.4835  0.2447 -0.4768
 6337TIP3   OH240425   0.632   2.511  12.966  0.6476 -0.5319 -0.2379
 6337TIP3    H140426   0.555   2.476  13.010  0.5121 -0.0582 -0.1013
 6337TIP3    H240427   0.620   2.606  12.967  2.6572 -0.2741  2.4459
 6338TIP3   OH240428   6.627   5.722   1.840 -0.2240  0.7598 -0.0860
 6338TIP3    H140429   6.583   5.649   1.884  2.3506 -0.1814  1.0563
 6338TIP3    H240430   6.581   5.730   1.756 -2.3165 -0.3627  0.8960
 6339TIP3   OH240431   2.135   3.038  16.590 -0.2151  0.6334 -0.2110
 6339TIP3    H140432   2.107   3.115  16.640 -2.4403 -0.4154  0.2194
 6339TIP3    H240433   2.134   3.067  16.499 -1.5517  0.9686 -0.0939
 6340TIP3   OH240434   1.190   4.827  15.587 -0.4321 -0.8184 -0.4806
 6340TIP3    H140435   1.206   4.909  15.635  1.1081 -2.3900  1.7998
 6340TIP3    H240436   1.096   4.814  15.593 -0.7315  0.9604 -1.1360
 6341TIP3   OH240437   2.908   6.612  14.184  0.1978  0.3933 -0.0276
 6341TIP3    H140438   2.911   6.537  14.125 -0.5476 -0.9533  1.5706
 6341TIP3    H240439   2.959   6.585  14.260 -1.6864  0.7084  1.4110
 6342TIP3   OH240440   2.644   0.971   0.335 -0.3528 -0.0154  0.1632
 6342TIP3    H140441   2.617   0.884   0.363  0.4367 -0.1675  0.4723
 6342TIP3    H240442   2.618   0.976   0.243  0.6834 -1.0256 -0.1898
 6343TIP3   OH240443   4.841   2.353  17.188 -0.4334  0.0629 -0.3838
 6343TIP3    H140444   4.896   2.356  17.110 -1.3785  0.3093 -1.0514
 6343TIP3    H240445   4.901   2.366  17.261  0.3444  0.6662 -1.1308
 6344TIP3   OH240446   5.312   6.488  14.119  0.4537 -0.3099 -0.4808
 6344TIP3    H140447   5.243   6.440  14.166  1.1968 -0.4870  0.4381
 6344TIP3    H240448   5.369   6.420  14.084  0.5987 -0.1424 -0.5667
 6345TIP3   OH240449   6.403   3.452  14.139  0.3896 -0.5671 -0.2776
 6345TIP3    H140450   6.442   3.519  14.083  0.2123  0.2272  0.5364
 6345TIP3    H240451   6.429   3.477  14.228 -4.0648  1.4650  0.5868
 6346TIP3   OH240452   6.515   2.321   1.531 -0.2059  0.1629  0.2138
 6346TIP3    H140453   6.468   2.377   1.592  0.1185  2.3093 -1.4540
 6346TIP3    H240454   6.448   2.284   1.475 -0.2784  0.0185  0.3947
 6347TIP3   OH240455   6.007   6.688  16.116 -0.1865  0.0401 -0.0030
 6347TIP3    H140456   6.039   6.773  16.086 -0.4994 -0.1588 -0.9155
 6347TIP3    H240457   5.964   6.650  16.040 -2.1873  0.0847  1.0800
 6348TIP3   OH240458   3.125   0.691   0.453  0.0978 -0.1409 -0.2034
 6348TIP3    H140459   3.146   0.750   0.381 -0.1999 -0.1676 -0.3141
 6348TIP3    H240460   3.080   0.747   0.517 -0.4701 -0.3104 -0.4476
 6349TIP3   OH240461   4.931   4.471   0.350 -0.1729 -0.0503 -0.2952
 6349TIP3    H140462   4.911   4.498   0.440 -0.2120  0.8779 -0.5866
 6349TIP3    H240463   4.876   4.394   0.337 -2.5692  1.6665 -0.6015
 6350TIP3   OH240464   3.862   5.375  15.662  0.2230 -0.6272  0.4009
 6350TIP3    H140465   3.921   5.326  15.604  0.1514 -0.2478 -0.0038
 6350TIP3    H240466   3.791   5.314  15.681  1.3222 -1.4879  1.8415
 6351TIP3   OH240467   6.572   1.313   4.098 -0.3941 -0.3565  0.1814
 6351TIP3    H140468   6.556   1.379   4.031  2.1116  0.6798  0.5499
 6351TIP3    H240469   6.485   1.281   4.121 -1.5458  1.7067 -1.1053
 6352TIP3   OH240470   6.495   2.191   4.147 -0.5397  0.5362 -0.4478
 6352TIP3    H140471   6.409   2.154   4.168 -0.5325  0.9101  0.2299
 6352TIP3    H240472   6.552   2.161   4.217  0.8090 -3.0074 -2.9061
 6353TIP3   OH240473   3.634   5.717  14.249 -0.2675  0.0918 -0.4781
 6353TIP3    H140474   3.661   5.627  14.264 -2.6452 -0.4835  0.5019
 6353TIP3    H240475   3.670   5.739  14.163  0.0077 -1.9058 -0.8877
 6354TIP3   OH240476   3.692   3.526  13.692 -0.6274 -0.3782 -0.0876
 6354TIP3    H140477   3.692   3.569  13.777 -1.5522 -1.1151  0.2895
 6354TIP3    H240478   3.624   3.571  13.642 -1.3684 -1.1739  0.1954
 6355TIP3   OH240479   2.553   5.451  15.839 -0.7016  0.2891  0.0784
 6355TIP3    H140480   2.586   5.448  15.929 -0.5773 -0.4130  0.0120
 6355TIP3    H240481   2.554   5.359  15.810 -1.9549  0.3643 -0.2032
 6356TIP3   OH240482   3.641   2.799   0.684  0.5009  0.0489  0.1641
 6356TIP3    H140483   3.568   2.768   0.630  0.7747 -1.5153  0.6760
 6356TIP3    H240484   3.712   2.739   0.664  0.8760  0.0036  1.6109
 6357TIP3   OH240485   5.035   3.617  12.095  0.0007 -0.2456 -0.5104
 6357TIP3    H140486   5.119   3.587  12.059  0.5381 -0.0603  0.5633
 6357TIP3    H240487   5.010   3.549  12.157  0.4875  0.7834  0.8442
 6358TIP3   OH240488   2.698   5.140   2.672  0.2569  0.7426 -0.8232
 6358TIP3    H140489   2.674   5.208   2.609 -0.8248  1.0799 -0.0687
 6358TIP3    H240490   2.737   5.188   2.746 -0.3706  0.5465 -0.3552
 6359TIP3   OH240491   3.601   0.494   1.597 -0.0817 -0.0920  0.3432
 6359TIP3    H140492   3.553   0.574   1.616 -0.6149 -0.2023 -0.5137
 6359TIP3    H240493   3.533   0.430   1.576  0.4447 -0.1877 -1.1057
 6360TIP3   OH240494   4.449   5.482  13.259 -0.1711 -0.7663  0.0686
 6360TIP3    H140495   4.450   5.483  13.355 -1.3699 -2.1289  0.1234
 6360TIP3    H240496   4.532   5.520  13.233 -0.0638  0.1031  1.6581
 6361TIP3   OH240497   4.462   2.120  16.325 -0.3768 -0.1911 -0.4199
 6361TIP3    H140498   4.472   2.210  16.294  0.0125  0.3783  1.2994
 6361TIP3    H240499   4.373   2.116  16.361  0.6606  0.4648  2.3980
 6362TIP3   OH240500   1.086   5.817  14.253 -0.0371  0.3957  0.2380
 6362TIP3    H140501   1.151   5.747  14.251 -0.6814 -0.3697  3.5569
 6362TIP3    H240502   1.137   5.898  14.253  0.8868 -0.1696  1.4891
 6363TIP3   OH240503   5.179   1.521  14.184  0.3860  0.1776 -0.2254
 6363TIP3    H140504   5.236   1.446  14.196  0.4313  0.1602 -0.5569
 6363TIP3    H240505   5.202   1.581  14.255  3.5320  1.8920 -2.5800
 6364TIP3   OH240506   2.880   6.485   1.753  0.4663 -0.2531 -0.4957
 6364TIP3    H140507   2.792   6.479   1.789 -0.1757 -0.3516 -2.0545
 6364TIP3    H240508   2.869   6.522   1.665  1.7451 -2.1004 -1.4850
 6365TIP3   OH240509   1.007   1.909   5.722  0.4071  0.5514  0.2197
 6365TIP3    H140510   0.957   1.991   5.727  1.8310  1.4310  0.2690
 6365TIP3    H240511   1.076   1.927   5.659 -0.6775 -1.4078 -1.6209
 6366TIP3   OH240512   3.046   2.055   1.871  0.4170  0.6263  0.5453
 6366TIP3    H140513   3.080   2.037   1.958 -1.1416 -0.8819  0.8472
 6366TIP3    H240514   3.118   2.030   1.812  0.3298 -1.3393  1.2452
 6367TIP3   OH240515   0.035   4.208  16.718 -0.2984  0.5792  0.5134
 6367TIP3    H140516   0.084   4.131  16.690 -1.4164 -0.5639  1.6391
 6367TIP3    H240517   0.076   4.281  16.672  0.5388 -0.7349 -0.8584
 6368TIP3   OH240518   2.432   6.448  13.394  0.1475  0.0675 -1.1021
 6368TIP3    H140519   2.440   6.378  13.458 -3.2566  0.2262 -0.4157
 6368TIP3    H240520   2.471   6.524  13.437 -2.8681  0.3929  1.2309
 6369TIP3   OH240521   6.154   4.548  16.041 -0.0185 -0.0249 -0.1300
 6369TIP3    H140522   6.105   4.622  16.006 -0.1560  1.1163  2.3263
 6369TIP3    H240523   6.213   4.586  16.106  0.4514 -1.9718  0.6364
 6370TIP3   OH240524   4.392   5.681   0.581  0.4337 -0.7383 -0.2067
 6370TIP3    H140525   4.376   5.773   0.561  0.0654 -0.8403 -0.3898
 6370TIP3    H240526   4.403   5.679   0.676  0.9774 -0.4275 -0.2625
 6371TIP3   OH240527   4.365   5.876  11.113  0.7090  0.3537 -0.8009
 6371TIP3    H140528   4.445   5.904  11.069  0.0352  1.9042 -1.0877
 6371TIP3    H240529   4.353   5.785  11.085  0.5027  1.1696 -3.5580
 6372TIP3   OH240530   5.914   2.852  11.482  0.0508  0.3376 -0.1598
 6372TIP3    H140531   5.905   2.837  11.576 -0.7446 -2.4053 -0.6058
 6372TIP3    H240532   5.846   2.915  11.460 -0.5239  0.0997  0.9181
 6373TIP3   OH240533   1.082   0.277  16.887 -0.6535 -0.7405  0.4162
 6373TIP3    H140534   1.022   0.226  16.942 -2.2826 -0.3665 -0.9752
 6373TIP3    H240535   1.044   0.364  16.884  0.6125 -0.1838  0.4827
 6374TIP3   OH240536   6.448   2.795   2.541 -0.3576 -0.0597 -0.5164
 6374TIP3    H140537   6.381   2.830   2.599  0.5017 -2.1995  1.8686
 6374TIP3    H240538   6.493   2.872   2.506 -1.9667  1.3056  0.3631
 6375TIP3   OH240539   4.781   5.560   0.721  0.2381  0.1163 -0.2910
 6375TIP3    H140540   4.860   5.615   0.722  1.0417 -0.8549 -3.6496
 6375TIP3    H240541   4.811   5.476   0.755  0.4801 -0.0607 -0.9480
 6376TIP3   OH240542   3.031   5.984   5.651  1.3030 -0.0234 -0.8547
 6376TIP3    H140543   3.112   5.956   5.693  1.7490 -1.0561 -2.3708
 6376TIP3    H240544   3.021   6.076   5.677  2.1098 -0.3389  0.6276
 6377TIP3   OH240545   4.997   2.794  14.863  0.7160 -0.7909 -0.2311
 6377TIP3    H140546   5.050   2.780  14.941 -1.2444  1.5164  1.5962
 6377TIP3    H240547   4.951   2.711  14.850  2.1961 -1.6799  0.1617
 6378TIP3   OH240548   4.186   4.175  15.736 -0.0631  0.5930  0.1511
 6378TIP3    H140549   4.103   4.134  15.712  1.1995 -1.8205 -0.2775
 6378TIP3    H240550   4.169   4.217  15.820 -1.5437 -0.3977  0.3543
 6379TIP3   OH240551   4.696   0.663  15.940  0.0856  0.0237 -0.0355
 6379TIP3    H140552   4.623   0.635  15.884 -0.2825  3.0904 -1.1972
 6379TIP3    H240553   4.774   0.635  15.893 -0.2922 -0.5204 -0.3518
 6380TIP3   OH240554   2.214   5.783   0.906  0.4708 -0.0059 -0.2467
 6380TIP3    H140555   2.301   5.812   0.936  0.6233 -1.0554  0.3539
 6380TIP3    H240556   2.184   5.724   0.975 -1.7604  2.1806  0.7406
 6381TIP3   OH240557   5.987   5.360  11.350  0.6932 -0.1325 -0.2140
 6381TIP3    H140558   5.970   5.391  11.261 -1.6394 -1.2428 -0.1942
 6381TIP3    H240559   5.977   5.438  11.405  0.4142  0.2058 -0.7427
 6382TIP3   OH240560   4.171   1.948  16.685 -0.4683 -0.4827  0.2357
 6382TIP3    H140561   4.212   1.871  16.725 -0.1964  0.9853  2.9263
 6382TIP3    H240562   4.234   2.019  16.700 -2.3408  1.0257  1.1039
 6383TIP3   OH240563   3.484   0.621  12.336  0.7441 -0.1894 -0.4926
 6383TIP3    H140564   3.555   0.599  12.275  1.5207  2.1584 -0.4823
 6383TIP3    H240565   3.446   0.702  12.301  0.1245  0.2931  1.2202
 6384TIP3   OH240566   2.678   4.466  14.425  0.2568 -0.0305  0.1402
 6384TIP3    H140567   2.603   4.457  14.367 -0.5094 -0.6966  1.2148
 6384TIP3    H240568   2.693   4.560  14.432  0.3404  0.0519 -1.1030
 6385TIP3   OH240569   1.563   5.240   3.671 -0.1075  0.1894 -0.3439
 6385TIP3    H140570   1.617   5.180   3.620 -1.5744 -0.5724 -1.0554
 6385TIP3    H240571   1.502   5.278   3.608 -1.6704 -0.4463  0.7181
 6386TIP3   OH240572   2.069   0.489   2.107  0.0308 -0.2554  1.3533
 6386TIP3    H140573   2.068   0.578   2.072 -0.3618 -0.9222 -0.3616
 6386TIP3    H240574   1.977   0.460   2.103  0.6751 -2.1322 -1.8124
 6387TIP3   OH240575   3.675   5.164   2.446  0.2184 -0.5284  0.3841
 6387TIP3    H140576   3.710   5.234   2.501  1.0870 -0.3236 -0.4184
 6387TIP3    H240577   3.731   5.089   2.465  1.5010 -0.0307 -1.3594
 6388TIP3   OH240578   6.120   1.060  15.218 -0.1572  0.8198  0.0185
 6388TIP3    H140579   6.210   1.090  15.204 -0.2190  0.3908 -1.3889
 6388TIP3    H240580   6.098   1.012  15.138 -1.5944  0.8051  0.4073
 6389TIP3   OH240581   0.641   0.545   4.247 -0.2303  0.1865  0.2182
 6389TIP3    H140582   0.735   0.562   4.240  0.2674 -2.0682  1.1546
 6389TIP3    H240583   0.615   0.587   4.329  0.3016 -0.6119  0.7991
 6390TIP3   OH240584   4.682   2.513  13.652  0.0413  0.4260 -0.3314
 6390TIP3    H140585   4.744   2.572  13.610  0.7420 -0.4279 -0.5133
 6390TIP3    H240586   4.733   2.467  13.718 -0.1089 -1.1221 -1.2722
 6391TIP3   OH240587   0.514   2.169   3.767  0.2756 -0.3012  0.0256
 6391TIP3    H140588   0.451   2.134   3.703 -0.5034  1.8368 -0.4463
 6391TIP3    H240589   0.540   2.254   3.730  2.4530 -0.5709  0.8843
 6392TIP3   OH240590   3.322   2.267  10.659  0.5345  0.3494  0.4871
 6392TIP3    H140591   3.368   2.348  10.680 -1.4143  1.3704  0.9258
 6392TIP3    H240592   3.302   2.227  10.744  0.2814  0.0956  0.3110
 6393TIP3   OH240593   6.596   0.970  13.687  0.0302  0.1240 -0.2663
 6393TIP3    H140594   6.682   0.930  13.678 -0.2868 -0.2537 -1.8827
 6393TIP3    H240595   6.564   0.978  13.597 -2.1107 -0.8058  0.3686
 6394TIP3   OH240596   4.633   0.710   2.225  0.7162  0.7863 -0.1431
 6394TIP3    H140597   4.632   0.792   2.175 -0.0547 -0.4957 -2.2795
 6394TIP3    H240598   4.718   0.710   2.269  0.3635  3.1470  0.6523
 6395TIP3   OH240599   3.965   0.212  14.294 -0.1352  0.0785  0.7389
 6395TIP3    H140600   3.870   0.200  14.297 -0.0440 -0.5065  1.4705
 6395TIP3    H240601   3.992   0.205  14.385  0.7762 -1.2218  0.3892
 6396TIP3   OH240602   5.108   4.490  13.087 -0.2636 -0.3233 -0.0798
 6396TIP3    H140603   5.141   4.566  13.040  1.3960  0.3809  2.1402
 6396TIP3    H240604   5.149   4.415  13.044  1.2565  0.3128  0.2229
 6397TIP3   OH240605   1.040   6.410  15.956 -0.3836 -0.8681  0.4415
 6397TIP3    H140606   1.093   6.361  16.019 -1.0247  0.0705  1.7416
 6397TIP3    H240607   0.971   6.450  16.009  0.4257  1.8992 -0.5124
 6398TIP3   OH240608   2.854   2.731  14.419  0.0911  0.2481  0.1279
 6398TIP3    H140609   2.940   2.711  14.455  0.7241  0.8397 -1.0032
 6398TIP3    H240610   2.847   2.675  14.342 -1.0651 -0.7006  0.9195
 6399TIP3   OH240611   1.863   2.991   4.789  0.5510  0.0511  0.3474
 6399TIP3    H140612   1.867   2.979   4.884  0.8038  0.5965  0.4024
 6399TIP3    H240613   1.888   3.082   4.774  1.7010 -0.3612 -0.3310
 6400TIP3   OH240614   1.297   1.411   3.820 -0.1055  0.6229 -0.2278
 6400TIP3    H140615   1.256   1.330   3.790 -2.9009  1.5910  0.7916
 6400TIP3    H240616   1.289   1.408   3.915  1.0768  1.4428 -0.0856
 6401TIP3   OH240617   5.900   6.248  15.506  0.1463 -0.4837 -0.1728
 6401TIP3    H140618   5.922   6.197  15.428  0.9601 -0.3051 -0.0624
 6401TIP3    H240619   5.843   6.318  15.473  1.1247  0.0529 -0.7281
 6402TIP3   OH240620   6.527   6.151   2.166 -0.2053  0.2001 -0.0883
 6402TIP3    H140621   6.440   6.182   2.141 -1.1584 -0.4288  2.3857
 6402TIP3    H240622   6.549   6.202   2.244  0.3250 -1.8278  1.1119
 6403TIP3   OH240623   0.358   3.702   3.781  0.6176  0.1073  0.1799
 6403TIP3    H140624   0.425   3.683   3.847  0.3027 -0.1006  0.4430
 6403TIP3    H240625   0.365   3.630   3.719  0.4119 -0.0931  0.3880
 6404TIP3   OH240626   3.070   1.375   5.734  0.2363  0.2809  0.2671
 6404TIP3    H140627   3.107   1.443   5.678 -1.9106  1.0989 -0.1978
 6404TIP3    H240628   3.023   1.422   5.802 -1.3742 -0.6977 -0.1232
 6405TIP3   OH240629   4.675   4.251  14.225  0.3703 -0.2067  0.0634
 6405TIP3    H140630   4.717   4.285  14.146 -2.3871  1.5750 -0.7124
 6405TIP3    H240631   4.607   4.192  14.193 -2.9212  2.9867  0.8522
 6406TIP3   OH240632   0.053   6.765  14.975 -0.4510 -0.5277  0.0170
 6406TIP3    H140633   0.146   6.788  14.972 -0.2568 -1.4215 -1.0669
 6406TIP3    H240634   0.017   6.805  14.896 -1.4881  1.8917  1.6621
 6407TIP3   OH240635   6.615   2.828   1.332  0.8604  0.0339  0.1782
 6407TIP3    H140636   6.661   2.903   1.293  1.7494 -1.1145 -1.0136
 6407TIP3    H240637   6.681   2.760   1.338 -0.1066 -0.8698  0.6645
 6408TIP3   OH240638   0.045   6.128   2.224 -0.0779 -0.2125  0.3285
 6408TIP3    H140639   0.087   6.046   2.249  0.8396  0.1555  0.0611
 6408TIP3    H240640  -0.049   6.111   2.230  0.1119 -1.0598  0.9669
 6409TIP3   OH240641   6.502   0.647   4.178  0.1519  0.5472  0.5918
 6409TIP3    H140642   6.435   0.714   4.196 -1.0955 -1.3802  3.5186
 6409TIP3    H240643   6.582   0.683   4.217 -0.3124  0.7386  1.3895
 6410TIP3   OH240644   5.289   4.597   1.846 -0.2728  0.4521 -0.0295
 6410TIP3    H140645   5.307   4.596   1.940 -0.2119 -1.2711 -0.0360
 6410TIP3    H240646   5.263   4.507   1.825  1.7803  0.2646 -2.0399
 6411TIP3   OH240647   6.615   6.159  14.120 -0.3280 -0.3609 -1.0795
 6411TIP3    H140648   6.609   6.243  14.074 -0.4009 -0.2481 -0.8653
 6411TIP3    H240649   6.561   6.099  14.067  0.2761 -0.4461 -1.6053
 6412TIP3   OH240650   1.282   3.337  14.936 -0.2511 -0.5888 -0.1479
 6412TIP3    H140651   1.262   3.382  14.853 -0.8347 -1.0051 -0.2409
 6412TIP3    H240652   1.376   3.324  14.934 -0.0615  0.7450 -0.0633
 6413TIP3   OH240653   4.853   0.430   3.905  0.1268 -0.1625 -0.1716
 6413TIP3    H140654   4.772   0.385   3.878 -1.3054  2.0108  0.3910
 6413TIP3    H240655   4.915   0.359   3.921 -2.9331 -2.1722  3.6697
 6414TIP3   OH240656   3.902   1.129   4.298 -0.2546  0.5145  0.1755
 6414TIP3    H140657   3.986   1.110   4.340  1.1934  3.0802 -1.4691
 6414TIP3    H240658   3.870   1.043   4.270  1.1860 -0.6322  1.9265
 6415TIP3   OH240659   3.666   1.389  14.115 -0.0170 -0.2100 -0.0158
 6415TIP3    H140660   3.748   1.400  14.067  0.7450 -0.8899  1.0956
 6415TIP3    H240661   3.673   1.449  14.189 -0.5598 -0.2118  0.0375
 6416TIP3   OH240662   1.294   0.227  14.149  0.6398  0.4785  0.0325
 6416TIP3    H140663   1.348   0.194  14.077 -1.1490  3.4459 -2.8047
 6416TIP3    H240664   1.215   0.172  14.148 -1.0865  2.8566 -2.8698
 6417TIP3   OH240665   0.526   3.647   0.007  0.1693 -0.6157  0.0956
 6417TIP3    H140666   0.445   3.681   0.044 -0.3159 -0.6614 -0.9160
 6417TIP3    H240667   0.595   3.691   0.057 -0.4662  0.8606 -0.3111
 6418TIP3   OH240668   1.422   1.099  10.533  0.4952  0.7412  0.4655
 6418TIP3    H140669   1.444   1.185  10.497 -0.6895  0.9960  0.3549
 6418TIP3    H240670   1.345   1.071  10.484  0.3305  0.0192  1.1308
 6419TIP3   OH240671   2.949   1.030  14.113 -0.1516  0.3097  0.6717
 6419TIP3    H140672   2.946   1.100  14.047 -4.2418 -0.5199 -0.1793
 6419TIP3    H240673   2.859   1.025  14.146  0.8621 -2.2043  3.2712
 6420TIP3   OH240674   2.789   4.851   1.741 -0.1729 -0.2149 -0.0343
 6420TIP3    H140675   2.739   4.924   1.705  0.7328 -0.5210 -2.0151
 6420TIP3    H240676   2.874   4.888   1.764  0.7479 -0.8563 -2.2558
 6421TIP3   OH240677   2.883   0.837   1.860 -0.6214  0.2174 -0.2574
 6421TIP3    H140678   2.884   0.769   1.793  0.9371 -0.8590  0.8288
 6421TIP3    H240679   2.974   0.846   1.888 -0.9287  2.1564  0.2272
 6422TIP3   OH240680   1.576   4.110   0.442  0.1724  0.6268 -0.0226
 6422TIP3    H140681   1.536   4.030   0.408  0.3624  0.9662 -1.0431
 6422TIP3    H240682   1.503   4.169   0.460 -0.0191  0.0074  1.3321
 6423TIP3   OH240683   3.736   5.490  11.635 -0.1803 -0.4521 -0.2782
 6423TIP3    H140684   3.754   5.515  11.544 -1.9852  2.8623  0.1659
 6423TIP3    H240685   3.663   5.547  11.661  0.7186 -0.8801  3.4392
 6424TIP3   OH240686   1.286   6.384  13.334  0.1171  0.8051  0.5065
 6424TIP3    H140687   1.330   6.352  13.255 -0.5918 -1.1206  0.8475
 6424TIP3    H240688   1.225   6.450  13.303  0.1901  0.4097 -0.5089
 6425TIP3   OH240689   4.910   1.495   5.870 -0.6422 -0.3316 -0.4368
 6425TIP3    H140690   4.968   1.461   5.938 -0.9836  0.2075  0.1271
 6425TIP3    H240691   4.886   1.582   5.900  1.2538  0.9585 -2.4899
 6426TIP3   OH240692   4.310   1.955  13.628  0.1044  0.2121 -0.2039
 6426TIP3    H140693   4.379   1.910  13.579 -0.3663  1.2387 -1.8682
 6426TIP3    H240694   4.356   2.019  13.682  0.6028 -0.6637  0.4174
 6427TIP3   OH240695   5.487   0.858   5.937 -0.4246 -0.0370 -0.2310
 6427TIP3    H140696   5.483   0.895   6.026 -1.6547 -1.7076  0.4244
 6427TIP3    H240697   5.520   0.769   5.950  0.8956  0.2261 -1.6282
 6428TIP3   OH240698   5.840   2.201   0.605  0.5187 -0.2701  0.2029
 6428TIP3    H140699   5.864   2.130   0.664  0.2660 -0.2788  0.2958
 6428TIP3    H240700   5.751   2.178   0.575 -0.3277  0.9736  1.7042
 6429TIP3   OH240701   1.840   2.070  12.867  0.5861 -0.4308  0.9608
 6429TIP3    H140702   1.851   2.156  12.906 -3.3547  1.2503 -1.2895
 6429TIP3    H240703   1.882   2.076  12.781 -0.6694 -0.3563  0.3409
 6430TIP3   OH240704   0.532   5.141  16.064 -1.0080 -0.5179 -0.3181
 6430TIP3    H140705   0.602   5.121  16.001 -0.2047 -0.8142  0.6455
 6430TIP3    H240706   0.486   5.215  16.026  0.6461  0.5216 -0.3589
 6431TIP3   OH240707   4.829   1.422  15.178  0.2255 -0.2222 -0.1793
 6431TIP3    H140708   4.891   1.484  15.140  0.2915 -0.1819 -0.0036
 6431TIP3    H240709   4.745   1.444  15.137  0.2495 -0.0199 -0.1182
 6432TIP3   OH240710   5.231   1.936   3.973  0.5858  0.6850  0.0115
 6432TIP3    H140711   5.310   1.958   4.021  1.1839 -0.5943 -0.3687
 6432TIP3    H240712   5.164   1.995   4.008  1.1363  0.1639  2.0039
 6433TIP3   OH240713   6.539   4.324   5.331 -0.5869  0.1943  0.1360
 6433TIP3    H140714   6.601   4.311   5.260 -2.0680 -0.6925 -1.0271
 6433TIP3    H240715   6.485   4.398   5.304 -0.7571  0.2536  0.6182
 6434TIP3   OH240716   1.828   5.442  12.989  0.0706 -0.3129  0.0913
 6434TIP3    H140717   1.784   5.483  12.914 -1.6748 -1.2153  0.6029
 6434TIP3    H240718   1.818   5.505  13.061  0.2908 -0.1907  0.0178
 6435TIP3   OH240719   6.144   1.012  14.733 -0.3125 -0.0091  0.5303
 6435TIP3    H140720   6.125   0.955  14.659 -2.1461 -1.5927  2.1619
 6435TIP3    H240721   6.236   1.035  14.722 -0.0656 -1.7023 -1.2301
 6436TIP3   OH240722   0.025   1.460  10.754  0.2562 -0.4472  0.2927
 6436TIP3    H140723  -0.055   1.500  10.787 -0.2910  0.0760 -1.5665
 6436TIP3    H240724   0.079   1.534  10.725  1.0396 -0.8381  0.7434
 6437TIP3   OH240725   2.860   1.042  16.953 -0.3716 -0.0015  0.1331
 6437TIP3    H140726   2.905   0.971  16.905  0.0793  1.5537 -1.7987
 6437TIP3    H240727   2.798   0.996  17.009 -0.4746 -1.9256 -1.4742
 6438TIP3   OH240728   3.379   0.185   1.822  0.3551  0.2057  0.5428
 6438TIP3    H140729   3.361   0.279   1.815  0.2853  0.3305  2.3108
 6438TIP3    H240730   3.364   0.164   1.914 -1.1348 -1.8605 -0.1351
 6439TIP3   OH240731   4.995   0.943  15.465  0.0717  0.2487  0.0090
 6439TIP3    H140732   5.017   0.978  15.551 -0.1681 -0.0528  0.1922
 6439TIP3    H240733   5.052   0.991  15.405  0.3601  0.3411  0.3524
 6440TIP3   OH240734   3.331   5.825   5.141  0.2375 -0.3549  0.2367
 6440TIP3    H140735   3.280   5.851   5.218 -2.5268 -2.0873 -0.9467
 6440TIP3    H240736   3.285   5.750   5.105  1.7121  0.1270 -2.8797
 6441TIP3   OH240737   5.012   1.606   2.934 -0.2576  0.0537  0.3737
 6441TIP3    H140738   4.920   1.613   2.960 -0.2029  0.2868  0.5006
 6441TIP3    H240739   5.009   1.595   2.839 -0.4844 -1.2473  0.5188
 6442TIP3   OH240740   0.972   5.023  15.653  0.0307 -0.5788  0.1220
 6442TIP3    H140741   0.983   4.975  15.735 -0.8292  1.9763  1.7992
 6442TIP3    H240742   0.896   5.079  15.669 -0.4327 -0.3751 -2.6029
 6443TIP3   OH240743   1.097   0.612   2.951  0.0287 -0.6829 -0.0981
 6443TIP3    H140744   1.102   0.707   2.945 -1.5838 -0.6078 -0.4883
 6443TIP3    H240745   1.111   0.581   2.862 -0.2580 -0.7635 -0.1169
 6444TIP3   OH240746   1.729   6.111   4.550  0.2887 -0.2382 -0.6422
 6444TIP3    H140747   1.698   6.028   4.514  0.3335 -0.2440 -0.6686
 6444TIP3    H240748   1.692   6.178   4.492  1.2329 -0.3023 -1.3458
 6445TIP3   OH240749   4.829   4.048  11.366  0.1119 -0.0270  0.1080
 6445TIP3    H140750   4.748   4.042  11.417  0.2258 -1.6876  0.1404
 6445TIP3    H240751   4.805   4.093  11.285 -0.8831 -0.7064  0.0280
 6446TIP3   OH240752   0.646   4.677   4.098 -0.5918  0.0229 -0.0562
 6446TIP3    H140753   0.645   4.687   4.193 -0.3088  2.0149 -0.2547
 6446TIP3    H240754   0.560   4.708   4.069 -0.9988 -1.3753 -0.3901
 6447TIP3   OH240755   5.529   5.419   3.106  0.2826  0.0563 -0.5703
 6447TIP3    H140756   5.577   5.381   3.180 -2.6545 -2.6600  0.0635
 6447TIP3    H240757   5.545   5.359   3.034 -1.2466 -0.2920 -0.6345
 6448TIP3   OH240758   6.285   0.889  15.364 -0.3012 -0.0740 -0.6810
 6448TIP3    H140759   6.360   0.933  15.405  0.7173 -1.2402 -1.2389
 6448TIP3    H240760   6.233   0.961  15.327  0.5727  0.7619 -0.3352
 6449TIP3   OH240761   6.031   2.828  10.439  0.1602  0.4308 -0.5094
 6449TIP3    H140762   6.072   2.881  10.507 -0.0959 -0.3405  0.2632
 6449TIP3    H240763   6.104   2.787  10.393  0.3077 -1.1546  1.0368
 6450TIP3   OH240764   3.283   1.915  13.550 -0.0992  0.3528 -0.5498
 6450TIP3    H140765   3.210   1.855  13.567  1.7738 -1.5297  1.1624
 6450TIP3    H240766   3.313   1.941  13.637  1.2013  1.1980 -1.2359
 6451TIP3   OH240767   5.385   0.654   4.264  0.0233  0.1529  0.2769
 6451TIP3    H140768   5.413   0.636   4.174  1.1658 -1.2372  0.8804
 6451TIP3    H240769   5.339   0.737   4.259 -1.2957 -0.6777 -1.8532
 6452TIP3   OH240770   0.723   1.978   4.904 -0.1644 -0.3860  0.6921
 6452TIP3    H140771   0.793   2.013   4.848  0.7121 -2.0052  0.7661
 6452TIP3    H240772   0.643   2.012   4.865  0.5198 -0.4669 -0.8231
 6453TIP3   OH240773   5.289   1.447  12.515 -0.1332  0.2761 -0.3182
 6453TIP3    H140774   5.194   1.452  12.530 -0.7861 -1.8549 -3.2070
 6453TIP3    H240775   5.313   1.360  12.545  0.0706 -0.8043 -3.4736
 6454TIP3   OH240776   0.249   2.491   6.186 -0.1263  0.3098 -0.3456
 6454TIP3    H140777   0.243   2.397   6.207  0.1046  0.3402 -0.1404
 6454TIP3    H240778   0.340   2.513   6.204 -0.0559  0.4531 -0.9029
 6455TIP3   OH240779   0.437   6.235   2.673 -0.1545  0.7893  0.6299
 6455TIP3    H140780   0.346   6.265   2.674 -0.5912 -0.5086  1.8984
 6455TIP3    H240781   0.474   6.269   2.754  0.1210  0.2571  0.7305
 6456TIP3   OH240782   4.348   2.698  15.899  0.2775  0.5697 -0.0026
 6456TIP3    H140783   4.441   2.707  15.921  0.8189 -0.1912 -1.7895
 6456TIP3    H240784   4.305   2.771  15.942  1.4009 -0.2303  2.5384
 6457TIP3   OH240785   4.728   4.868  14.238  0.0092 -0.3788 -0.5571
 6457TIP3    H140786   4.811   4.848  14.195 -0.0099 -0.2574 -0.6513
 6457TIP3    H240787   4.663   4.861  14.168 -0.2272 -1.7223 -0.2068
 6458TIP3   OH240788   2.198   2.491   2.358 -0.1275 -0.0997  0.3193
 6458TIP3    H140789   2.244   2.524   2.435 -0.1567 -2.0970  1.2203
 6458TIP3    H240790   2.167   2.404   2.384  0.1589 -0.9471 -2.0564
 6459TIP3   OH240791   5.761   6.325   4.975 -0.7081 -0.1154 -0.2990
 6459TIP3    H140792   5.694   6.368   5.028 -1.0286 -1.3946  0.3589
 6459TIP3    H240793   5.839   6.378   4.988 -0.8273 -0.3117  1.3253
 6460TIP3   OH240794   1.446   2.089   4.181 -0.2108 -1.1089  0.3470
 6460TIP3    H140795   1.401   2.051   4.257 -0.2427  0.3557  1.0633
 6460TIP3    H240796   1.386   2.074   4.108 -0.4865 -1.9129  0.7265
 6461TIP3   OH240797   6.171   3.865  12.371  0.0346 -0.2936 -0.0637
 6461TIP3    H140798   6.137   3.892  12.286  0.6996  1.3475  0.1823
 6461TIP3    H240799   6.204   3.945  12.411  1.2709 -1.3197  1.0438
 6462TIP3   OH240800   2.426   0.796  14.667  0.7601 -0.4164  0.2534
 6462TIP3    H140801   2.459   0.708  14.686 -0.9276 -0.8658  1.2626
 6462TIP3    H240802   2.337   0.782  14.636  0.9270  0.8630 -0.8293
 6463TIP3   OH240803   2.023   5.654   1.932 -0.2253  0.6042  0.6692
 6463TIP3    H140804   2.078   5.716   1.883  0.8016 -0.6299  0.2192
 6463TIP3    H240805   2.085   5.601   1.982 -0.9035 -1.4588 -0.5907
 6464TIP3   OH240806   2.962   5.454  10.906  0.1333  0.7716  0.1579
 6464TIP3    H140807   3.026   5.387  10.928  0.3553  0.5677 -1.0609
 6464TIP3    H240808   2.995   5.493  10.825 -1.8892 -0.1799 -1.1810
 6465TIP3   OH240809   5.337   5.552  13.572 -0.4237  0.2576  0.1615
 6465TIP3    H140810   5.406   5.593  13.624 -0.5225  1.4265 -0.5940
 6465TIP3    H240811   5.297   5.488  13.630  1.8012 -0.9915  0.3757
 6466TIP3   OH240812   5.948   3.382  13.565  0.1826 -0.3153  0.3871
 6466TIP3    H140813   5.883   3.318  13.594  0.2344 -0.9329 -0.8309
 6466TIP3    H240814   5.927   3.462  13.614 -2.3079 -0.1141 -0.9023
 6467TIP3   OH240815   0.546   3.432   2.002  0.0707 -0.2617 -0.2533
 6467TIP3    H140816   0.557   3.382   1.921  0.9577  1.1593 -1.0301
 6467TIP3    H240817   0.546   3.523   1.974  1.8609  0.3178  1.5006
 6468TIP3   OH240818   4.114   3.377  13.085  0.5696  0.2342 -0.2996
 6468TIP3    H140819   4.088   3.286  13.076 -2.0934  0.8698  0.3609
 6468TIP3    H240820   4.093   3.417  13.001  0.0251  0.6098  0.0072
 6469TIP3   OH240821   0.169   5.436  11.052 -0.1793 -0.5616  0.2775
 6469TIP3    H140822   0.079   5.451  11.024 -0.4854  0.9826  1.9600
 6469TIP3    H240823   0.168   5.350  11.093 -0.7471 -0.7862 -0.1978
 6470TIP3   OH240824   4.325   2.688  16.517  0.2261 -0.2419  0.3881
 6470TIP3    H140825   4.394   2.630  16.550  0.5408  0.7621  1.5170
 6470TIP3    H240826   4.364   2.775  16.518 -0.8847  0.2664  0.5540
 6471TIP3   OH240827   6.530   0.312   4.772  0.1018 -0.3735  0.4781
 6471TIP3    H140828   6.565   0.346   4.690 -1.7846  0.6002  0.0469
 6471TIP3    H240829   6.604   0.269   4.814  1.0530 -0.9830 -1.7812
 6472TIP3   OH240830   2.323   4.869   0.257  0.1543 -0.4941  0.5217
 6472TIP3    H140831   2.299   4.816   0.333  1.8795 -0.8365  0.8652
 6472TIP3    H240832   2.390   4.817   0.212 -0.8405 -0.2844 -1.2355
 6473TIP3   OH240833   5.554   1.613   5.420  0.0028  0.1839 -0.3055
 6473TIP3    H140834   5.536   1.626   5.327 -0.0401 -2.0646 -0.6482
 6473TIP3    H240835   5.479   1.651   5.466 -0.2485  0.7884 -1.2112
 6474TIP3   OH240836   0.923   3.385  16.674 -0.1860  0.1160  0.3588
 6474TIP3    H140837   0.865   3.326  16.626 -0.5025  0.4522  0.3262
 6474TIP3    H240838   0.870   3.415  16.748  0.7454 -1.4884  1.7190
 6475TIP3   OH240839   4.153   0.405  12.817 -0.1263  0.4182 -0.1214
 6475TIP3    H140840   4.189   0.432  12.902 -0.9330  0.4463  0.2191
 6475TIP3    H240841   4.109   0.483  12.784 -0.1856  0.2806 -0.3662
 6476TIP3   OH240842   3.516   3.026   1.972  0.7575  0.1380 -0.3783
 6476TIP3    H140843   3.463   3.101   1.946 -2.0513 -0.6685  2.6147
 6476TIP3    H240844   3.555   3.052   2.056 -1.4362 -2.2018  1.4405
 6477TIP3   OH240845   4.045   4.367  17.052 -0.2478  0.5073  0.4938
 6477TIP3    H140846   4.109   4.437  17.060  1.0719 -0.3204 -2.2426
 6477TIP3    H240847   4.000   4.367  17.136  2.0749  2.3372  1.8254
 6478TIP3   OH240848   0.144   2.702  16.100 -0.0732  0.8241  0.1392
 6478TIP3    H140849   0.181   2.629  16.050  0.4013  0.5537  0.8701
 6478TIP3    H240850   0.221   2.751  16.130 -0.3413  0.6942  1.0303
 6479TIP3   OH240851   5.535   2.090   1.344  0.8158  0.2438  0.0401
 6479TIP3    H140852   5.470   2.158   1.327  1.3863  0.9383  0.6329
 6479TIP3    H240853   5.582   2.120   1.422  0.3755 -1.3369  0.9319
 6480TIP3   OH240854   1.083   4.921   5.217  0.2563  0.2292 -0.0660
 6480TIP3    H140855   1.008   4.955   5.266  0.9314 -1.2422  2.0444
 6480TIP3    H240856   1.049   4.845   5.171 -0.4995  1.8932 -2.3542
 6481TIP3   OH240857   0.966   2.388   1.485 -0.3856  0.3511  0.2188
 6481TIP3    H140858   1.002   2.379   1.574 -1.6762 -0.1756  0.6968
 6481TIP3    H240859   0.894   2.450   1.495  0.2211  1.2083 -0.6916
 6482TIP3   OH240860   0.694   0.110  15.312 -0.6707 -0.5129 -0.5906
 6482TIP3    H140861   0.761   0.157  15.361  0.0113  0.7228 -2.6597
 6482TIP3    H240862   0.612   0.128  15.359  0.2077 -0.8272  1.0998
 6483TIP3   OH240863   6.016   2.621   6.156 -0.0755  0.3749 -0.0154
 6483TIP3    H140864   6.078   2.665   6.214  1.6090 -2.6759  0.5777
 6483TIP3    H240865   5.955   2.576   6.215 -1.6259  1.5897 -0.6227
 6484TIP3   OH240866   6.520   1.973   5.048 -0.2602 -0.2850  0.1741
 6484TIP3    H140867   6.435   2.011   5.069  0.4661  0.3113  2.0956
 6484TIP3    H240868   6.504   1.918   4.971 -2.5233 -0.7925  0.9929
 6485TIP3   OH240869   1.127   4.362   2.775  0.3679 -0.0125 -0.1553
 6485TIP3    H140870   1.129   4.449   2.814  1.5710 -0.1988  0.2311
 6485TIP3    H240871   1.182   4.308   2.833 -0.5694 -1.0892 -0.2396
 6486TIP3   OH240872   1.357   3.061  13.262  0.0936  0.6007 -0.0093
 6486TIP3    H140873   1.263   3.079  13.266  0.2583  1.7193 -0.8677
 6486TIP3    H240874   1.396   3.143  13.232  1.0996 -0.5870 -2.1114
 6487TIP3   OH240875   0.445   2.135  14.820  0.0759  0.0814 -0.5184
 6487TIP3    H140876   0.487   2.180  14.747 -0.6577  0.1819 -0.8828
 6487TIP3    H240877   0.516   2.085  14.861  0.8642  1.4205 -0.2106
 6488TIP3   OH240878   3.501   4.735  12.332 -0.2219  0.1711 -0.0952
 6488TIP3    H140879   3.579   4.684  12.354 -0.2204  0.3424  0.2955
 6488TIP3    H240880   3.524   4.780  12.251 -0.0452 -0.0648 -0.1754
 6489TIP3   OH240881   1.687   3.223  11.909 -0.0208  0.1911  0.1454
 6489TIP3    H140882   1.739   3.292  11.868 -2.0586  2.1352  0.7478
 6489TIP3    H240883   1.641   3.267  11.981  0.4560 -2.3056  2.0485
 6490TIP3   OH240884   2.897   6.742   2.778 -0.0360 -0.1542  0.3833
 6490TIP3    H140885   2.932   6.831   2.780  0.0073 -0.1787  0.8635
 6490TIP3    H240886   2.816   6.749   2.727  1.0726 -0.2530 -1.4085
 6491TIP3   OH240887   4.603   5.428   4.018  0.1368  0.1690  0.3177
 6491TIP3    H140888   4.558   5.509   3.995 -1.3254 -0.7267 -0.0796
 6491TIP3    H240889   4.688   5.434   3.974  0.2525  1.6907  0.7177
 6492TIP3   OH240890   6.133   1.898  14.813 -0.7345 -0.1774  0.7712
 6492TIP3    H140891   6.043   1.875  14.790 -0.0651 -3.0364  0.8750
 6492TIP3    H240892   6.182   1.883  14.732 -0.7812  4.3615 -0.2234
 6493TIP3   OH240893   6.582   3.751   3.393 -0.0516  0.4272 -0.5968
 6493TIP3    H140894   6.610   3.809   3.463 -0.0195  0.5035 -0.6733
 6493TIP3    H240895   6.499   3.789   3.362 -0.3843  0.0487 -0.1847
 6494TIP3   OH240896   6.690   5.507   0.748  0.4790  0.5922  0.4669
 6494TIP3    H140897   6.780   5.535   0.765  1.5033 -1.3476 -1.5864
 6494TIP3    H240898   6.661   5.563   0.676 -0.0418  1.3470  1.2535
 6495TIP3   OH240899   4.922   4.595  11.086  0.1366 -0.2293 -0.4894
 6495TIP3    H140900   4.901   4.554  11.003  0.8957 -1.9500  0.1496
 6495TIP3    H240901   4.839   4.598  11.133 -0.3960  1.2098 -1.4730
 6496TIP3   OH240902   6.435   1.847  14.874  0.3836  0.4127 -0.5759
 6496TIP3    H140903   6.347   1.884  14.867  0.8042  1.3627 -0.8539
 6496TIP3    H240904   6.440   1.783  14.802 -1.4381 -2.5330  1.7752
 6497TIP3   OH240905   5.187   0.262   1.809 -0.2235 -0.3585 -0.2370
 6497TIP3    H140906   5.236   0.300   1.737  0.2094  0.3109  0.4060
 6497TIP3    H240907   5.110   0.222   1.768  0.1843 -0.2553 -1.0950
 6498TIP3   OH240908   3.423   0.881  16.364  0.0172  0.7695  0.1116
 6498TIP3    H140909   3.469   0.944  16.309 -0.3534  0.1296 -0.9285
 6498TIP3    H240910   3.484   0.808  16.374 -0.4405  0.2812 -0.5935
 6499TIP3   OH240911   0.124   6.709  11.692 -0.5756  0.4298 -0.0712
 6499TIP3    H140912   0.067   6.674  11.759 -1.5543  0.6837 -0.7638
 6499TIP3    H240913   0.210   6.669  11.710 -0.8396  0.4708  1.2832
 6500TIP3   OH240914   3.624   1.578  14.775 -0.7927  0.0099 -0.1151
 6500TIP3    H140915   3.613   1.488  14.806  0.0766  0.1214  0.5534
 6500TIP3    H240916   3.636   1.570  14.680 -0.7798 -0.5762 -0.0642
 6501TIP3   OH240917   2.949   2.927   1.590 -0.1983  0.3234  0.0159
 6501TIP3    H140918   2.960   2.872   1.668  0.8099  0.6897  0.1435
 6501TIP3    H240919   2.907   2.869   1.526 -0.5480 -0.1392  0.6485
 6502TIP3   OH240920   1.501   3.608  13.119 -0.0997  0.0028  0.1773
 6502TIP3    H140921   1.540   3.682  13.073  0.2138 -1.4554 -2.0102
 6502TIP3    H240922   1.532   3.531  13.071 -2.2485 -1.4161  0.9711
 6503TIP3   OH240923   4.315   5.209   3.291 -0.1637  0.4117 -0.3689
 6503TIP3    H140924   4.328   5.303   3.278 -1.0652  0.3895 -1.4769
 6503TIP3    H240925   4.220   5.198   3.288  0.0161 -0.8175 -2.2413
 6504TIP3   OH240926   1.196   0.045  10.366 -0.6203  0.2885 -0.3025
 6504TIP3    H140927   1.260   0.101  10.323 -0.6850  0.0078 -0.7687
 6504TIP3    H240928   1.144   0.105  10.420  0.2686  0.4647  0.3801
 6505TIP3   OH240929   3.720   1.463   1.745  0.5823 -0.0557  0.7706
 6505TIP3    H140930   3.679   1.377   1.745  0.5121 -0.0223  1.0586
 6505TIP3    H240931   3.653   1.522   1.779  0.4431  0.2066  0.0628
 6506TIP3   OH240932   5.395   2.481   3.105  0.3360 -0.0632  0.1550
 6506TIP3    H140933   5.431   2.564   3.135 -1.2794  0.6984 -0.0345
 6506TIP3    H240934   5.410   2.421   3.178  0.9587  0.5314  0.5187
 6507TIP3   OH240935   3.246   1.862   4.375 -0.2585  0.0069 -0.5602
 6507TIP3    H140936   3.266   1.905   4.291  1.0052 -0.6672 -0.6239
 6507TIP3    H240937   3.155   1.884   4.392 -0.1834  1.1352 -1.5327
 6508TIP3   OH240938   0.504   1.127   1.249 -0.1318 -0.4782  0.4855
 6508TIP3    H140939   0.445   1.180   1.302 -1.1630 -1.9532  0.8654
 6508TIP3    H240940   0.490   1.156   1.160 -0.2509  0.2791  0.7502
 6509TIP3   OH240941   6.295   6.301  12.473 -0.5339 -0.5890  0.2090
 6509TIP3    H140942   6.225   6.312  12.537 -0.7541 -1.2724  0.0900
 6509TIP3    H240943   6.254   6.256  12.399 -0.1865 -0.1701 -0.2485
 6510TIP3   OH240944   6.363   1.143   3.158 -0.5639  0.5829 -0.2835
 6510TIP3    H140945   6.417   1.086   3.214  0.5687  1.9710  0.0483
 6510TIP3    H240946   6.286   1.090   3.139 -0.6927 -0.1639  2.0889
 6511TIP3   OH240947   3.949   1.599   2.923  0.5772  0.0427  0.1093
 6511TIP3    H140948   3.860   1.580   2.953  0.8913  0.1123  1.0917
 6511TIP3    H240949   3.998   1.519   2.938  1.0979  0.5540  1.1737
 6512TIP3   OH240950   6.540   1.586  14.362  0.6237 -0.4204 -0.4557
 6512TIP3    H140951   6.583   1.540  14.290 -0.2914 -1.7761 -0.1591
 6512TIP3    H240952   6.503   1.665  14.322 -0.6412 -1.6023 -1.6588
 6513TIP3   OH240953   5.918   6.615  16.354  0.0933  0.1224  0.5050
 6513TIP3    H140954   5.939   6.645  16.265  2.1309  0.5497  1.0848
 6513TIP3    H240955   5.829   6.582  16.348  0.2198  0.0797 -1.7203
 6514TIP3   OH240956   0.010   1.096   1.672  0.0868  0.1450 -0.0699
 6514TIP3    H140957   0.010   1.189   1.693 -2.0017 -0.1045  1.2095
 6514TIP3    H240958  -0.066   1.083   1.616  1.2830 -0.5381 -1.5708
 6515TIP3   OH240959   6.445   1.320  14.743 -0.3818 -0.3576  0.0626
 6515TIP3    H140960   6.468   1.227  14.745 -0.2720 -0.3074  1.9012
 6515TIP3    H240961   6.482   1.355  14.824 -1.6771  0.9877  0.0827
 6516TIP3   OH240962   5.164   4.240  15.362 -0.1294 -0.2514 -0.6719
 6516TIP3    H140963   5.142   4.206  15.276 -0.6507  1.8442 -1.3913
 6516TIP3    H240964   5.252   4.277  15.352  0.4712 -1.3859  0.1302
 6517TIP3   OH240965   0.977   0.926  12.572 -0.4000  0.4101 -0.0133
 6517TIP3    H140966   0.943   0.868  12.504 -2.5479  1.3452  0.2000
 6517TIP3    H240967   0.973   1.013  12.533  1.1401  0.6265  0.2823
 6518TIP3   OH240968   5.500   1.206   2.360 -0.5407  0.3874  0.1539
 6518TIP3    H140969   5.491   1.111   2.354 -1.6485  0.4620  0.5373
 6518TIP3    H240970   5.430   1.241   2.305 -0.0298  0.9828 -0.1236
 6519TIP3   OH240971   4.676   6.142   1.196 -0.1358 -0.0182  0.0396
 6519TIP3    H140972   4.613   6.206   1.230 -0.0292 -0.0035  0.2080
 6519TIP3    H240973   4.622   6.066   1.173 -0.3880  0.4822 -1.0545
 6520TIP3   OH240974   4.054   5.302  11.740  0.0346 -0.3999  0.5171
 6520TIP3    H140975   4.018   5.385  11.770 -1.2217 -1.1154  1.0181
 6520TIP3    H240976   4.082   5.318  11.650 -1.4119  0.1970  0.1771
 6521TIP3   OH240977   5.408   4.771  16.352  0.0527  0.3582  0.5743
 6521TIP3    H140978   5.477   4.712  16.382  0.6786  0.5114 -0.5369
 6521TIP3    H240979   5.453   4.832  16.294 -1.1072  0.1434 -0.5634
 6522TIP3   OH240980   1.465   6.027   4.268  0.3466 -0.0591 -0.4158
 6522TIP3    H140981   1.395   5.963   4.278  0.5168 -0.5793 -2.3819
 6522TIP3    H240982   1.454   6.086   4.343 -1.7747 -0.5075 -0.3460
 6523TIP3   OH240983   3.180   3.002   3.420  0.2337 -0.6612  0.2526
 6523TIP3    H140984   3.232   2.963   3.350  0.9194 -1.4784  1.1985
 6523TIP3    H240985   3.127   2.931   3.454 -1.0532  0.0301 -0.2824
 6524TIP3   OH240986   6.649   3.710   0.205 -0.3440  0.1358 -0.3999
 6524TIP3    H140987   6.704   3.652   0.153  0.6152  1.0115 -0.3834
 6524TIP3    H240988   6.566   3.713   0.158 -0.3773 -1.1688 -0.4447
 6525TIP3   OH240989   2.394   0.760   5.778  0.3056  0.3987 -0.0295
 6525TIP3    H140990   2.393   0.838   5.834 -3.0199  0.5234 -0.1830
 6525TIP3    H240991   2.436   0.693   5.832  0.9123  1.6072  1.0395
 6526TIP3   OH240992   3.683   5.025   3.288  0.2939  0.2291  0.2322
 6526TIP3    H140993   3.746   5.084   3.330  0.0635  0.5752  0.0938
 6526TIP3    H240994   3.631   4.990   3.361 -1.4042  2.3379  0.0880
 6527TIP3   OH240995   1.052   2.902   6.601 -0.0525 -0.1728 -0.0722
 6527TIP3    H140996   1.107   2.941   6.669 -0.2581  2.9332 -1.5841
 6527TIP3    H240997   0.968   2.885   6.645  0.9915 -1.8176  1.3787
 6528TIP3   OH240998   3.916   4.011  14.568  0.2194 -0.3621 -0.5446
 6528TIP3    H140999   3.973   4.060  14.509 -0.7424  4.7340  2.4362
 6528TIP3    H241000   3.830   4.052  14.557 -0.6465 -1.4104  2.0557
 6529TIP3   OH241001   4.606   1.674   3.709  0.2583 -0.2116 -0.0263
 6529TIP3    H141002   4.697   1.702   3.694  0.0694 -0.1709 -1.0922
 6529TIP3    H241003   4.612   1.612   3.782  0.7482  2.1931  2.0387
 6530TIP3   OH241004   6.687   4.083   3.774  0.5265 -0.1484 -0.3233
 6530TIP3    H141005   6.768   4.108   3.730  1.3395  1.5501  1.9856
 6530TIP3    H241006   6.691   4.129   3.858 -1.4665 -2.3540  1.0469
 6531TIP3   OH241007   5.945   4.400   2.785 -0.1235  0.4517 -0.2770
 6531TIP3    H141008   5.885   4.461   2.827 -0.7698 -1.1839  1.2234
 6531TIP3    H241009   5.920   4.403   2.692 -1.0934  1.3994 -0.0016
 6532TIP3   OH241010   4.889   0.896   0.278  0.1782  0.4693  0.3115
 6532TIP3    H141011   4.875   0.922   0.369  0.9530  1.6169  0.1101
 6532TIP3    H241012   4.843   0.961   0.226 -2.1141 -1.4134 -0.0924
 6533TIP3   OH241013   1.963   3.528  15.917 -0.0441  0.5143 -0.1266
 6533TIP3    H141014   1.942   3.443  15.878 -1.2796 -0.4056  2.4159
 6533TIP3    H241015   1.884   3.554  15.964  2.9033 -1.0803  6.2740
 6534TIP3   OH241016   1.753   4.076  14.986 -0.0035 -0.4825 -0.1489
 6534TIP3    H141017   1.715   4.164  14.995  2.5356  0.7072 -0.5526
 6534TIP3    H241018   1.680   4.021  14.958 -1.9743  1.1793  1.5267
 6535TIP3   OH241019   5.210   6.483  16.300 -0.1587 -0.5866  0.3609
 6535TIP3    H141020   5.152   6.531  16.358 -1.7875 -1.1830 -0.7377
 6535TIP3    H241021   5.166   6.399  16.285  1.2926 -1.3094  0.0255
 6536TIP3   OH241022   4.842   1.883   3.941 -0.0645 -1.0099  0.4965
 6536TIP3    H141023   4.841   1.976   3.918 -2.1325 -1.5265 -1.6376
 6536TIP3    H241024   4.931   1.868   3.975  1.1029  1.1901 -1.4776
 6537TIP3   OH241025   6.592   5.470   2.208  0.3798 -0.4082 -0.4568
 6537TIP3    H141026   6.663   5.405   2.199  1.4102  0.6166  0.1839
 6537TIP3    H241027   6.617   5.522   2.285 -1.1014 -0.0636 -0.2012
 6538TIP3   OH241028   6.160   6.343  11.580  0.4432  0.0531 -0.7725
 6538TIP3    H141029   6.255   6.348  11.566  0.5075  0.9858 -0.0362
 6538TIP3    H241030   6.151   6.316  11.672  0.0030  0.5143 -0.6767
 6539TIP3   OH241031   3.169   1.581  13.858 -0.2800  0.1574 -0.4496
 6539TIP3    H141032   3.148   1.496  13.820  0.6437  0.0924 -0.8390
 6539TIP3    H241033   3.255   1.569  13.899  0.7957  1.4079 -2.2490
 6540TIP3   OH241034   1.997   2.642  11.402 -0.7622 -0.5988 -0.1838
 6540TIP3    H141035   2.083   2.612  11.430 -0.7856 -0.1491  0.3878
 6540TIP3    H241036   1.939   2.568  11.416 -0.3633 -1.0854 -1.0966
 6541TIP3   OH241037   4.262   5.920   3.166  0.1053  0.7026 -0.6069
 6541TIP3    H141038   4.254   5.948   3.257 -0.5737 -1.2470 -0.0494
 6541TIP3    H241039   4.253   6.001   3.115 -0.0048  1.7377  1.0240
 6542TIP3   OH241040   6.686   4.384   3.960 -0.4569  0.5252  0.1310
 6542TIP3    H141041   6.655   4.426   4.040  0.9359  1.0926  0.3790
 6542TIP3    H241042   6.675   4.291   3.976  0.0287  0.6244  1.0814
 6543TIP3   OH241043   6.391   3.504  16.467  0.7837 -0.1279 -1.2307
 6543TIP3    H141044   6.439   3.533  16.389  0.9303 -0.3726 -1.2337
 6543TIP3    H241045   6.386   3.409  16.457  0.6967 -0.1473 -0.9991
 6544TIP3   OH241046   1.219   2.054   4.648  0.2057  0.1760  0.3114
 6544TIP3    H141047   1.286   2.025   4.710  2.0934  2.1676 -0.6812
 6544TIP3    H241048   1.213   2.149   4.663 -0.2424  0.4715 -1.6110
 6545TIP3   OH241049   4.059   4.674   4.739  0.1164  0.5612  0.1767
 6545TIP3    H141050   4.017   4.593   4.710 -0.8065  1.3786 -0.8371
 6545TIP3    H241051   4.151   4.664   4.716  0.1228 -0.4687  0.6596
 6546TIP3   OH241052   0.756   1.329   3.862  0.4907 -0.3755 -0.2075
 6546TIP3    H141053   0.827   1.345   3.925  1.4237 -1.8921 -0.8353
 6546TIP3    H241054   0.750   1.410   3.812  0.8645  0.2565  0.7434
 6547TIP3   OH241055   6.375   5.406   5.935  0.0727 -0.2280 -0.1421
 6547TIP3    H141056   6.302   5.370   5.986  0.1681 -1.6122 -0.9831
 6547TIP3    H241057   6.341   5.414   5.846  1.0658 -1.2682 -0.6247
 6548TIP3   OH241058   6.492   2.968   6.504 -0.0452  0.3062 -0.5359
 6548TIP3    H141059   6.477   2.889   6.451  0.9085 -1.5944  1.9165
 6548TIP3    H241060   6.584   2.989   6.489  0.2414 -0.2689  0.3682
 6549TIP3   OH241061   5.789   6.591  15.114 -0.1592 -0.1773  0.0817
 6549TIP3    H141062   5.789   6.522  15.048 -1.9478 -1.9859  1.9049
 6549TIP3    H241063   5.838   6.556  15.187  0.8314  1.3682  0.1834
 6550TIP3   OH241064   1.596   2.098  14.492 -0.2440  0.3526 -0.1390
 6550TIP3    H141065   1.513   2.097  14.445 -0.4354 -0.3125  0.2105
 6550TIP3    H241066   1.571   2.104  14.584  0.1318  1.7153 -0.1243
 6551TIP3   OH241067   2.109   2.374   1.068 -0.0938 -0.2628 -0.2085
 6551TIP3    H141068   2.112   2.375   0.972 -2.9361  4.7464 -0.4000
 6551TIP3    H241069   2.184   2.426   1.095 -0.7127  0.4289  0.1874
 6552TIP3   OH241070   1.854   6.203  12.777  0.2994  0.1641 -0.1589
 6552TIP3    H141071   1.799   6.265  12.729 -0.4718 -0.3110  0.1045
 6552TIP3    H241072   1.940   6.245  12.779  0.0164  0.8010 -0.7910
 6553TIP3   OH241073   3.413   3.833   0.548  0.3168 -0.2138  0.7341
 6553TIP3    H141074   3.360   3.756   0.533 -0.1387  0.2882 -0.2616
 6553TIP3    H241075   3.503   3.805   0.531 -0.0652  0.0311 -1.8053
 6554TIP3   OH241076   4.666   4.173   0.383  0.5280 -0.0412  0.3006
 6554TIP3    H141077   4.753   4.156   0.347 -0.0592  0.1521 -1.2424
 6554TIP3    H241078   4.634   4.087   0.409  0.9461 -0.1924  0.3245
 6555TIP3   OH241079   5.622   1.641   3.934 -0.3511  0.5903 -0.2194
 6555TIP3    H141080   5.564   1.588   3.879 -2.2766  1.7829  0.5886
 6555TIP3    H241081   5.638   1.720   3.883 -0.4363  0.7882  0.0553
 6556TIP3   OH241082   1.737   0.857  14.040  0.4389  0.0068  0.4181
 6556TIP3    H141083   1.709   0.940  14.002 -0.3251 -0.9768 -1.2974
 6556TIP3    H241084   1.792   0.818  13.972  0.7690 -0.8746  1.1914
 6557TIP3   OH241085   3.861   5.133   4.749 -0.4713 -0.0187  0.3050
 6557TIP3    H141086   3.852   5.172   4.662  0.6485 -2.0646 -0.7701
 6557TIP3    H241087   3.923   5.190   4.794 -1.9024  1.6897  0.1764
 6558TIP3   OH241088   2.361   2.344  12.508  0.1556 -0.5945 -0.2769
 6558TIP3    H141089   2.288   2.370  12.452  0.4754  0.9649  0.0063
 6558TIP3    H241090   2.332   2.262  12.547 -0.0354 -1.7673 -2.7750
 6559TIP3   OH241091   3.561   4.070   4.789 -0.3703  0.1014 -1.0861
 6559TIP3    H141092   3.624   4.115   4.733 -0.7925 -1.0446 -2.4930
 6559TIP3    H241093   3.476   4.087   4.750 -1.0729  2.3445  1.2834
 6560TIP3   OH241094   5.604   2.118  13.616 -0.2463  0.1161  0.3358
 6560TIP3    H141095   5.698   2.134  13.628 -0.1769 -0.8955  1.1604
 6560TIP3    H241096   5.584   2.159  13.532  0.7200  1.2161  0.6258
 6561TIP3   OH241097   1.062   3.864   0.585  0.5255 -0.1042  0.5004
 6561TIP3    H141098   1.094   3.953   0.602 -0.2930 -0.2394  2.9439
 6561TIP3    H241099   0.977   3.861   0.629 -0.1513 -1.6235 -0.8719
 6562TIP3   OH241100   0.381   5.838  13.351  0.2662 -0.3698  0.3889
 6562TIP3    H141101   0.337   5.848  13.266 -0.6869 -0.2972  0.8830
 6562TIP3    H241102   0.465   5.797  13.330  0.9309  1.5505 -0.8202
 6563TIP3   OH241103   2.742   4.520   2.470 -0.5793  0.0376 -0.7528
 6563TIP3    H141104   2.805   4.478   2.411  0.6880  0.3373  0.3674
 6563TIP3    H241105   2.679   4.451   2.490  0.3208 -0.7484 -0.5852
 6564TIP3   OH241106   1.934   0.974  11.878  0.6237  0.1601  0.6447
 6564TIP3    H141107   1.928   1.011  11.791  0.2511  1.0762  1.0561
 6564TIP3    H241108   1.992   1.032  11.926 -1.1443  1.1010  1.7263
 6565TIP3   OH241109   5.405   1.731  14.718 -0.2303  0.4172  0.4284
 6565TIP3    H141110   5.433   1.657  14.664  1.4280  1.0264  0.3992
 6565TIP3    H241111   5.317   1.709  14.746 -0.2506 -0.9557 -0.6710
 6566TIP3   OH241112   4.268   5.701   4.553  0.1311  0.6478  0.0117
 6566TIP3    H141113   4.181   5.679   4.519  0.3847 -0.5847  0.1100
 6566TIP3    H241114   4.271   5.796   4.552 -2.1044  0.7996  2.2161
 6567TIP3   OH241115   3.059   5.749   1.050  0.1408 -0.4992 -0.0609
 6567TIP3    H141116   3.153   5.759   1.037  0.3265 -0.0998  1.4005
 6567TIP3    H241117   3.019   5.817   0.997  0.8536  1.2477  1.5829
 6568TIP3   OH241118   4.073   6.007  11.971 -0.1836  0.4591  0.6327
 6568TIP3    H141119   4.149   6.002  12.029  0.6872  1.3770 -0.4180
 6568TIP3    H241120   4.110   6.015  11.883 -1.4798  2.8290  0.2662
 6569TIP3   OH241121   3.925   0.472   3.667  0.1286  0.4827 -0.6603
 6569TIP3    H141122   3.998   0.518   3.710  0.7107  1.2111 -2.4087
 6569TIP3    H241123   3.849   0.526   3.686  0.2829  0.4975 -0.0607
 6570TIP3   OH241124   2.965   4.423   3.987 -0.2099  0.1204  0.4099
 6570TIP3    H141125   2.954   4.415   4.082 -1.7891 -1.0722  0.1442
 6570TIP3    H241126   2.907   4.495   3.962  1.9535  2.0067  0.6283
 6571TIP3   OH241127   2.769   5.584  11.829  0.0097 -0.3103  0.1816
 6571TIP3    H141128   2.775   5.585  11.734 -1.8390 -0.5057  0.0497
 6571TIP3    H241129   2.678   5.562  11.847  0.1229  0.6372  1.9891
 6572TIP3   OH241130   4.638   4.444   0.386 -0.0022 -0.2199  0.0862
 6572TIP3    H141131   4.633   4.349   0.397  0.9269 -0.1828  0.8387
 6572TIP3    H241132   4.591   4.461   0.304  0.3959 -1.3999 -0.3923
 6573TIP3   OH241133   3.275   5.931  15.682 -0.0995 -0.0830 -0.4251
 6573TIP3    H141134   3.251   5.839  15.697 -2.0720  0.0808 -2.3516
 6573TIP3    H241135   3.350   5.926  15.623  0.4525 -0.4713  0.2995
 6574TIP3   OH241136   5.370   5.633   6.050  0.1337  0.1440 -0.2522
 6574TIP3    H141137   5.276   5.652   6.054  0.2118  0.3621  0.5580
 6574TIP3    H241138   5.410   5.697   6.108  0.8107  0.2111 -0.7905
 6575TIP3   OH241139   5.262   6.348  12.846 -0.0389 -0.3536  0.2459
 6575TIP3    H141140   5.188   6.409  12.840  0.6667  0.3717 -1.5150
 6575TIP3    H241141   5.255   6.294  12.767  1.5664  0.0216 -0.1685
 6576TIP3   OH241142   4.411   4.655   6.102 -0.6746  0.3342 -0.1811
 6576TIP3    H141143   4.489   4.710   6.105 -0.2941 -0.2314  0.2607
 6576TIP3    H241144   4.400   4.635   6.009 -0.5970  0.8379 -0.3024
 6577TIP3   OH241145   1.434   4.792   4.114 -0.0620 -0.1320 -0.1449
 6577TIP3    H141146   1.514   4.806   4.165 -0.1526  0.0084 -0.0415
 6577TIP3    H241147   1.367   4.774   4.179 -0.4078  1.1218 -0.1507
 6578TIP3   OH241148   0.625   1.347   1.885  0.3851 -0.3110  0.0213
 6578TIP3    H141149   0.610   1.265   1.837  0.2745 -0.6431  0.6179
 6578TIP3    H241150   0.659   1.407   1.819  1.7013 -1.2190 -0.1577
 6579TIP3   OH241151   1.396   5.805  11.068 -0.1610  0.4937 -0.6777
 6579TIP3    H141152   1.341   5.853  11.006 -1.9894  0.2098  0.6813
 6579TIP3    H241153   1.336   5.777  11.138  1.7326  0.3003  0.9375
 6580TIP3   OH241154   5.468   2.154   3.224  0.3340 -0.1711  0.2911
 6580TIP3    H141155   5.404   2.110   3.167 -0.3262 -0.6777  1.4062
 6580TIP3    H241156   5.526   2.200   3.163 -1.4952  0.8645 -0.7258
 6581TIP3   OH241157   4.166   5.309  15.628  0.7521 -0.1457 -0.1359
 6581TIP3    H141158   4.235   5.330  15.566  0.8395  0.0467  0.0268
 6581TIP3    H241159   4.106   5.253  15.579  0.7693  0.0841 -0.4248
 6582TIP3   OH241160   1.531   2.625  13.016  0.3480  0.4068  0.1726
 6582TIP3    H141161   1.478   2.570  13.074 -1.5376  1.9334 -0.0212
 6582TIP3    H241162   1.534   2.710  13.060 -1.2421  1.6385 -2.0012
 6583TIP3   OH241163   1.018   1.432  15.549 -0.0759 -0.5346  0.3247
 6583TIP3    H141164   0.952   1.405  15.613  0.1866 -0.4712  0.6268
 6583TIP3    H241165   0.968   1.475  15.480 -0.3792 -0.7423  0.4114
 6584TIP3   OH241166   2.627   3.210  17.234  0.5433  0.1404 -0.1020
 6584TIP3    H141167   2.696   3.152  17.202  0.7738  0.2637  0.1720
 6584TIP3    H241168   2.560   3.151  17.270  0.8376  0.0530  0.2999
 6585TIP3   OH241169   4.909   0.733   5.257 -0.0688  0.2822 -0.0590
 6585TIP3    H141170   4.816   0.736   5.280  0.1003 -1.4955  1.0268
 6585TIP3    H241171   4.914   0.670   5.185  0.3435 -0.1171  0.3084
 6586TIP3   OH241172   0.969   3.463  14.933 -0.2437  0.1489  0.0787
 6586TIP3    H141173   0.961   3.406  15.009 -0.5851 -1.4450 -1.1177
 6586TIP3    H241174   0.988   3.403  14.860  0.9419  1.7123 -0.9400
 6587TIP3   OH241175   3.949   6.465   1.606 -0.7891 -0.3777 -0.2575
 6587TIP3    H141176   3.919   6.461   1.515  0.2448 -0.3346 -0.6134
 6587TIP3    H241177   3.896   6.400   1.652 -1.9176  0.2015 -0.7149
 6588TIP3   OH241178   3.431   3.788   0.057  0.0987 -0.0137 -0.3770
 6588TIP3    H141179   3.456   3.728   0.127  2.1347  0.7363 -0.4154
 6588TIP3    H241180   3.492   3.768  -0.014  0.2121  1.4648 -0.7092
 6589TIP3   OH241181   6.774   0.088  16.652 -0.2486  0.3637 -0.0196
 6589TIP3    H141182   6.782   0.128  16.565 -0.3972  2.5606  0.9508
 6589TIP3    H241183   6.681   0.065  16.659 -0.3661  0.7751 -0.1942
 6590TIP3   OH241184   6.616   6.506   2.717 -0.2536 -0.2471 -0.2960
 6590TIP3    H141185   6.663   6.479   2.796 -0.0335 -1.2244 -0.7546
 6590TIP3    H241186   6.525   6.518   2.745 -0.1020 -0.2169  0.1813
 6591TIP3   OH241187   3.531   6.103   5.148  0.8423  0.4770  0.7756
 6591TIP3    H141188   3.605   6.079   5.204  2.6896  2.2696 -0.8182
 6591TIP3    H241189   3.525   6.198   5.155 -1.4000  0.3518  0.9290
 6592TIP3   OH241190   5.178   1.324  12.981  0.3532 -0.2462  0.7505
 6592TIP3    H141191   5.204   1.244  13.026  0.7745  0.3152  1.5358
 6592TIP3    H241192   5.095   1.303  12.939  0.2789 -0.9838  1.2629
 6593TIP3   OH241193   0.284   1.216   2.572  0.8734 -0.3061  0.1058
 6593TIP3    H141194   0.367   1.263   2.559  0.7770 -0.2575 -0.3539
 6593TIP3    H241195   0.218   1.285   2.570  1.0329  0.0423  3.4137
 6594TIP3   OH241196   6.367   3.415  15.318  0.2259  0.2629  0.0498
 6594TIP3    H141197   6.460   3.393  15.311  0.0036 -0.6787  0.0192
 6594TIP3    H241198   6.329   3.386  15.235  0.2443  2.4050 -0.7458
 6595TIP3   OH241199   5.931   0.425   4.658 -0.0232  0.0537 -0.0549
 6595TIP3    H141200   5.866   0.366   4.621 -0.4458  0.7275 -0.4146
 6595TIP3    H241201   6.007   0.417   4.600 -1.2489  2.2918 -2.0667
 6596TIP3   OH241202   2.083   3.041   6.405  0.4910 -0.4192  0.4789
 6596TIP3    H141203   2.097   3.125   6.450  3.7078 -1.2490  1.1991
 6596TIP3    H241204   2.061   2.980   6.476 -3.2972  0.0244 -0.2038
 6597TIP3   OH241205   1.164   5.541  15.353  0.0291  0.3372  0.4404
 6597TIP3    H141206   1.138   5.459  15.311 -1.8722  0.3070  1.5823
 6597TIP3    H241207   1.140   5.529  15.445  0.3502  1.9264  0.7483
 6598TIP3   OH241208   6.782   4.626  12.198 -0.7598 -0.3543 -0.8314
 6598TIP3    H141209   6.692   4.632  12.168 -1.6494  2.9543  2.1076
 6598TIP3    H241210   6.826   4.701  12.159 -0.2749  0.2099  0.7544
 6599TIP3   OH241211   0.088   0.150   2.232  0.1463  0.2059  0.0639
 6599TIP3    H141212   0.142   0.115   2.161  0.4625  0.2507  0.2773
 6599TIP3    H241213   0.151   0.194   2.290 -0.2707  1.3176 -0.3156
 6600TIP3   OH241214   6.660   1.355  11.855 -0.2571  0.0994 -0.0487
 6600TIP3    H141215   6.596   1.285  11.845 -1.3833  1.2047 -0.7761
 6600TIP3    H241216   6.744   1.310  11.863 -0.9993 -1.3327 -0.1162
 6601TIP3   OH241217   5.682   4.309  13.332 -0.0176  0.3476  0.1591
 6601TIP3    H141218   5.597   4.264  13.341  0.8200 -1.4348 -0.6794
 6601TIP3    H241219   5.699   4.344  13.419 -1.7854  1.0400  0.2587
 6602TIP3   OH241220   2.981   1.821  12.946 -0.4956 -0.3871 -0.0173
 6602TIP3    H141221   2.905   1.763  12.941  1.1685 -2.4090 -2.5837
 6602TIP3    H241222   2.993   1.854  12.857  0.7116  1.1626  0.6894
 6603TIP3   OH241223   3.216   1.097  13.191  0.2800 -0.2247 -0.2232
 6603TIP3    H141224   3.154   1.037  13.232 -0.5357  0.8017  0.0781
 6603TIP3    H241225   3.215   1.072  13.098  1.1410 -1.6907  0.1458
 6604TIP3   OH241226   4.923   0.241   0.087 -0.5307  0.7886  0.1520
 6604TIP3    H141227   4.901   0.270   0.175  1.0319 -0.6359  1.0493
 6604TIP3    H241228   5.014   0.269   0.075  0.1246 -1.3074  0.0219
 6605TIP3   OH241229   4.373   2.329   4.521 -0.2650 -0.0486 -0.5684
 6605TIP3    H141230   4.279   2.346   4.515 -0.2600  0.0785 -0.3228
 6605TIP3    H241231   4.408   2.359   4.438 -0.3097  0.7986 -0.2888
 6606TIP3   OH241232   1.389   0.438  13.877  0.0420  0.4611 -0.0646
 6606TIP3    H141233   1.455   0.383  13.920 -1.2509 -1.2255 -0.1873
 6606TIP3    H241234   1.305   0.394  13.896 -0.8175  1.2493 -1.9335
 6607TIP3   OH241235   0.630   0.627   5.084  0.2561  0.1891  0.3684
 6607TIP3    H141236   0.674   0.697   5.132  0.8628 -0.2383  0.4362
 6607TIP3    H241237   0.537   0.645   5.096  0.4053  0.4774  1.1189
 6608TIP3   OH241238   6.537   6.410   4.020 -0.0691  0.5033  0.0212
 6608TIP3    H141239   6.464   6.432   3.963  0.4766  1.9400 -0.1413
 6608TIP3    H241240   6.598   6.483   4.011  1.9281 -1.1910 -0.7457
 6609TIP3   OH241241   4.143   5.273  11.445  0.2081 -0.3238  0.2017
 6609TIP3    H141242   4.214   5.288  11.383  0.4115  1.7502  0.9097
 6609TIP3    H241243   4.073   5.330  11.415 -0.1188 -0.2059  1.1833
 6610TIP3   OH241244   4.884   4.352  12.242  0.0968  0.0705 -0.3867
 6610TIP3    H141245   4.938   4.285  12.200  0.0809  0.4415 -1.0022
 6610TIP3    H241246   4.889   4.332  12.336  1.1209 -0.0254 -0.4595
 6611TIP3   OH241247   0.386   1.713   1.880  0.1260 -0.0729 -0.2687
 6611TIP3    H141248   0.426   1.730   1.965 -0.3070  0.8256 -0.2334
 6611TIP3    H241249   0.346   1.797   1.856 -0.6648 -0.6198 -0.8660
 6612TIP3   OH241250   2.616   1.165  13.004  0.0015 -0.4651 -0.2991
 6612TIP3    H141251   2.577   1.213  12.931  0.8895 -0.6850 -0.9184
 6612TIP3    H241252   2.555   1.180  13.077 -0.7985 -0.1115 -1.0318
 6613TIP3   OH241253   3.063   2.119   1.054 -1.2368  0.2027 -0.0767
 6613TIP3    H141254   3.005   2.158   0.989 -0.8304  2.0131  0.6139
 6613TIP3    H241255   3.059   2.025   1.037 -0.2497  0.7017 -3.4864
 6614TIP3   OH241256   2.790   5.628   2.894  0.0874  0.7591  0.4627
 6614TIP3    H141257   2.829   5.649   2.810 -0.1731 -0.7167 -0.0563
 6614TIP3    H241258   2.854   5.570   2.936 -2.0070 -2.7060 -0.9275
 6615TIP3   OH241259   3.782   5.652   5.534  0.1433 -0.4203 -1.1622
 6615TIP3    H141260   3.751   5.626   5.448  2.0254 -2.9021 -1.1266
 6615TIP3    H241261   3.874   5.628   5.536  0.2886  0.1547  1.3314
 6616TIP3   OH241262   2.826   1.907   1.095 -0.5130 -0.2343 -0.5087
 6616TIP3    H141263   2.899   1.846   1.091  0.0405  0.3438  0.4987
 6616TIP3    H241264   2.793   1.900   1.185 -0.5734  0.7906 -0.4390
 6617TIP3   OH241265   1.072   5.300  16.387  0.1310  0.1878 -0.9104
 6617TIP3    H141266   1.147   5.272  16.335  0.4201 -2.0063  0.6136
 6617TIP3    H241267   1.023   5.359  16.329  1.3685 -0.7961 -3.0264
 6618TIP3   OH241268   5.963   5.656   5.737 -0.1196 -0.2086 -0.4028
 6618TIP3    H141269   6.006   5.587   5.787  1.0870  0.9240  0.1402
 6618TIP3    H241270   5.930   5.717   5.803  3.6688  2.6151 -0.9608
 6619TIP3   OH241271   5.496   0.036   0.964 -0.0166 -0.1897 -0.0973
 6619TIP3    H141272   5.429  -0.003   0.907  1.0036 -0.8034 -0.9015
 6619TIP3    H241273   5.573   0.042   0.908  1.2494 -1.5731  1.4687
 6620TIP3   OH241274   6.072   3.024  11.329 -0.5647 -0.1007  0.9083
 6620TIP3    H141275   6.022   2.963  11.384  0.6757 -1.0575  1.0163
 6620TIP3    H241276   6.104   2.970  11.257  0.3381  0.4745  0.8706
 6621TIP3   OH241277   0.009   1.556   2.263  0.3916 -0.0513  0.3771
 6621TIP3    H141278   0.012   1.651   2.266  4.3960 -0.1263  1.3690
 6621TIP3    H241279   0.018   1.528   2.354 -2.3967 -1.4046  0.2867
 6622TIP3   OH241280   3.704   6.644  14.176 -0.0660  0.1374 -0.5550
 6622TIP3    H141281   3.625   6.609  14.218  0.8161 -0.6743  0.4639
 6622TIP3    H241282   3.776   6.596  14.216  1.1284  2.4461  0.1743
 6623TIP3   OH241283   1.989   1.317   1.760 -0.0868 -0.1897  0.7785
 6623TIP3    H141284   2.043   1.263   1.818  0.0678 -1.3603 -0.4404
 6623TIP3    H241285   1.943   1.376   1.820  2.6166  0.9266  1.8347
 6624TIP3   OH241286   2.609   0.220   4.187  0.1849 -0.3960  0.4542
 6624TIP3    H141287   2.580   0.297   4.236  3.1529  0.1125  1.4741
 6624TIP3    H241288   2.686   0.189   4.234  0.1000 -2.9179 -1.0082
 6625TIP3   OH241289   1.974   4.324   1.019 -0.1027 -0.6728  0.3730
 6625TIP3    H141290   1.997   4.283   1.103 -0.9817 -0.6843  0.6167
 6625TIP3    H241291   1.890   4.284   0.995 -1.0285  1.0454  0.6657
 6626TIP3   OH241292   6.463   5.623   1.081 -0.4502  0.0195 -0.0075
 6626TIP3    H141293   6.432   5.585   0.999 -2.2415  1.1206  0.1391
 6626TIP3    H241294   6.462   5.551   1.144  1.4734 -0.9752 -1.0448
 6627TIP3   OH241295   2.619   0.969   2.420  0.3187 -0.3570 -0.5764
 6627TIP3    H141296   2.643   0.879   2.395 -0.2437 -0.4573 -0.7493
 6627TIP3    H241297   2.628   1.019   2.339  2.5053  0.1309 -0.0710
 6628TIP3   OH241298   2.617   2.098   3.203  0.0773  0.3218 -0.6403
 6628TIP3    H141299   2.601   2.145   3.285 -1.7980  1.4852 -1.6425
 6628TIP3    H241300   2.648   2.165   3.142  0.8193 -0.4106 -1.0849
 6629TIP3   OH241301   1.760   3.538  12.611  0.3728  0.1655  0.8197
 6629TIP3    H141302   1.746   3.443  12.614 -1.1519  0.3987  2.4085
 6629TIP3    H241303   1.846   3.549  12.571  0.4833 -1.8865  0.4508
 6630TIP3   OH241304   3.577   5.158  14.957  0.0282  0.5123  0.4723
 6630TIP3    H141305   3.628   5.238  14.948 -0.6165  0.8665 -0.0095
 6630TIP3    H241306   3.497   5.185  15.002 -0.0398  0.0749  0.6209
 6631TIP3   OH241307   5.946   5.816  12.476 -0.3591  0.3990 -0.0015
 6631TIP3    H141308   6.026   5.771  12.503 -0.1979  1.0781  0.6709
 6631TIP3    H241309   5.966   5.909  12.486 -0.6723  0.6345 -1.4506
 6632TIP3   OH241310   2.650   3.731   4.302  0.1327  0.0633  0.6647
 6632TIP3    H141311   2.565   3.760   4.269  0.6397 -0.2669 -0.9374
 6632TIP3    H241312   2.710   3.741   4.229  1.8989  2.0179  2.3018
 6633TIP3   OH241313   3.619   6.009  14.033  0.3149 -0.5731 -0.3171
 6633TIP3    H141314   3.579   6.018  13.947 -1.9874 -1.7420  0.5827
 6633TIP3    H241315   3.691   5.948  14.021 -2.2708 -3.6500 -0.7475
 6634TIP3   OH241316   1.005   1.956   1.187 -0.3293 -0.2171  0.1370
 6634TIP3    H141317   0.942   1.995   1.126 -0.5660 -0.9375 -0.0746
 6634TIP3    H241318   1.031   1.874   1.146 -1.3104 -1.2474  1.5069
 6635TIP3   OH241319   4.414   4.709   0.890 -0.0626 -0.1416 -0.2440
 6635TIP3    H141320   4.487   4.730   0.831 -1.0199  0.5480 -1.2092
 6635TIP3    H241321   4.404   4.614   0.885  1.6705 -0.4132  0.9869
 6636TIP3   OH241322   0.126   4.832  12.092 -0.5318  0.4115 -0.0994
 6636TIP3    H141323   0.059   4.883  12.048 -1.5286  1.0940  2.1409
 6636TIP3    H241324   0.198   4.893  12.107 -1.0065  0.7163  0.9884
 6637TIP3   OH241325   2.777   1.730  15.808 -0.0364  0.3352 -0.0141
 6637TIP3    H141326   2.848   1.665  15.808 -0.0158  0.3533  0.5283
 6637TIP3    H241327   2.821   1.814  15.818 -0.0418  0.4575 -1.0505
 6638TIP3   OH241328   1.486   2.443  13.470 -0.1474 -0.2607  0.1197
 6638TIP3    H141329   1.463   2.494  13.393  0.3245 -0.5433 -0.2149
 6638TIP3    H241330   1.403   2.410  13.504 -0.2753 -0.9341 -0.8320
 6639TIP3   OH241331   5.554   2.626   5.238 -0.0790  0.2164 -0.2116
 6639TIP3    H141332   5.604   2.545   5.248 -1.7593 -1.2445 -3.3393
 6639TIP3    H241333   5.600   2.689   5.295  2.1767 -2.4557  1.0353
 6640TIP3   OH241334   5.406   4.866   2.485 -0.1419 -0.0712  0.0411
 6640TIP3    H141335   5.456   4.939   2.523  1.1109  0.6326 -2.8106
 6640TIP3    H241336   5.317   4.899   2.475  0.1862  0.7165 -0.2733
 6641TIP3   OH241337   6.682   5.430   3.120  0.1690  0.1438  0.7255
 6641TIP3    H141338   6.649   5.342   3.102 -0.5138  0.4599  0.3924
 6641TIP3    H241339   6.732   5.453   3.041  0.0950  0.1722  0.6869
 6642TIP3   OH241340   6.734   1.540  12.761  0.3687  0.3847  0.6815
 6642TIP3    H141341   6.793   1.466  12.752 -1.2119 -1.1235  2.3472
 6642TIP3    H241342   6.752   1.576  12.848  0.6096  1.4840  0.1804
 6643TIP3   OH241343   5.336   3.187  11.232 -0.8035 -0.4110 -0.1320
 6643TIP3    H141344   5.415   3.138  11.210  0.8300  2.3218 -0.6742
 6643TIP3    H241345   5.298   3.211  11.147 -0.3424  1.1073  0.0708
 6644TIP3   OH241346   1.070   2.889  14.991  0.4734 -0.0980  0.8603
 6644TIP3    H141347   1.018   2.822  14.946  0.3907 -0.8245  2.0130
 6644TIP3    H241348   1.140   2.911  14.929 -2.5215  2.6727 -1.7615
 6645TIP3   OH241349   6.207   2.010  16.174 -0.3496  0.1964  0.2241
 6645TIP3    H141350   6.194   1.975  16.262  0.1588  2.1031  1.0807
 6645TIP3    H241351   6.294   1.982  16.149 -0.7924 -0.9984  0.0219
 6646TIP3   OH241352   3.933   2.363  13.408  0.2104 -0.3268  0.3427
 6646TIP3    H141353   3.906   2.292  13.465 -0.2380 -0.8397 -0.4947
 6646TIP3    H241354   4.026   2.350  13.395  0.4143  0.0879  1.3593
 6647TIP3   OH241355   2.060   6.739  11.713 -1.0969 -0.5493 -0.5522
 6647TIP3    H141356   2.150   6.725  11.740 -1.2423 -2.0055 -0.7975
 6647TIP3    H241357   2.007   6.698  11.782 -1.5655 -0.2036 -0.6974
 6648TIP3   OH241358   1.618   5.204  14.389 -0.4319 -0.5338  0.1861
 6648TIP3    H141359   1.584   5.119  14.418 -0.6754 -0.9118 -1.1268
 6648TIP3    H241360   1.708   5.206  14.419 -0.0247 -1.8436 -0.8762
 6649TIP3   OH241361   3.199   6.543  13.934  0.5627 -0.2682 -0.1050
 6649TIP3    H141362   3.154   6.476  13.883 -1.7788  0.8554  0.3904
 6649TIP3    H241363   3.270   6.573  13.878 -1.6730  0.6450 -2.5657
 6650TIP3   OH241364   6.081   6.622   3.427 -0.4557  0.6253  0.7525
 6650TIP3    H141365   6.069   6.578   3.512  0.2332 -3.3207 -1.0736
 6650TIP3    H241366   6.174   6.612   3.408 -1.2873 -2.1351 -2.2617
 6651TIP3   OH241367   3.388   3.933  14.055  0.2422  0.6535 -0.1628
 6651TIP3    H141368   3.343   3.859  14.014  0.0075  0.4892  0.3910
 6651TIP3    H241369   3.465   3.895  14.096  0.1155  0.7117  0.1317
 6652TIP3   OH241370   6.178   2.386   6.032 -0.2202  0.4149  0.4240
 6652TIP3    H141371   6.130   2.363   5.952  1.0932  1.2435 -0.6246
 6652TIP3    H241372   6.121   2.449   6.076 -0.1086  1.4086 -0.8223
 6653TIP3   OH241373   4.863   3.851  10.802  0.0074 -0.1389  0.0294
 6653TIP3    H141374   4.873   3.913  10.874  0.4389  0.8560 -0.8781
 6653TIP3    H241375   4.868   3.765  10.844 -3.9105  0.3660  1.7604
 6654TIP3   OH241376   2.278   6.245  15.974 -0.2712 -1.0102 -0.0988
 6654TIP3    H141377   2.293   6.152  15.991 -0.0129 -0.8063  0.7739
 6654TIP3    H241378   2.229   6.246  15.891  2.6834 -1.7737 -1.9490
 6655TIP3   OH241379   5.783   3.141   5.865  0.0717  0.2306 -0.7700
 6655TIP3    H141380   5.808   3.118   5.775  2.3278  0.4120 -0.2172
 6655TIP3    H241381   5.779   3.057   5.911 -0.9269  0.1522 -0.9870
 6656TIP3   OH241382   0.704   2.194   1.579  0.5671 -0.5325 -0.0492
 6656TIP3    H141383   0.633   2.213   1.517 -0.5118  0.2751  1.4007
 6656TIP3    H241384   0.775   2.161   1.524 -0.1558  0.7064 -1.7864
 6657TIP3   OH241385   4.679   2.174   5.675 -0.1628 -0.0292 -0.8782
 6657TIP3    H141386   4.644   2.251   5.630  1.8616  0.4785 -1.6164
 6657TIP3    H241387   4.645   2.181   5.764 -1.2344  0.8870 -1.3415
 6658TIP3   OH241388   5.006   1.804   4.173  0.7600 -0.4608 -0.0001
 6658TIP3    H141389   4.932   1.747   4.195 -1.5706  1.3601 -2.6552
 6658TIP3    H241390   4.985   1.887   4.216  1.5415 -0.0935 -0.3177
 6659TIP3   OH241391   6.418   3.341  17.092  0.3281  0.5234  0.4197
 6659TIP3    H141392   6.466   3.281  17.035  0.5040 -0.8543  1.9742
 6659TIP3    H241393   6.402   3.418  17.038 -3.2681 -2.3813 -2.9021
 6660TIP3   OH241394   2.898   2.707  11.583  0.4646  0.2399 -0.1346
 6660TIP3    H141395   2.935   2.780  11.535 -0.8001  1.3391  0.5356
 6660TIP3    H241396   2.967   2.640  11.582  1.6154  1.4177 -0.7613
 6661TIP3   OH241397   5.920   5.415  16.093 -0.3422  0.3424  0.3059
 6661TIP3    H141398   5.899   5.326  16.065  1.7079 -0.5513  1.5231
 6661TIP3    H241399   5.985   5.445  16.029  0.7962  0.0497  1.3203
 6662TIP3   OH241400   6.137   5.579  12.759  0.0248 -0.1734  0.1959
 6662TIP3    H141401   6.073   5.510  12.778 -1.4280  0.8164 -0.9235
 6662TIP3    H241402   6.144   5.580  12.664  0.0175  1.2056  0.1901
 6663TIP3   OH241403   0.211   1.704  13.056 -0.5909 -0.4515 -0.1471
 6663TIP3    H141404   0.209   1.667  13.144 -0.2425 -1.1888 -0.4482
 6663TIP3    H241405   0.291   1.756  13.054 -0.9192  0.0706  0.1726
 6664TIP3   OH241406   3.696   1.692   0.279  0.0708  0.2022  0.5886
 6664TIP3    H141407   3.605   1.663   0.276  0.5096 -1.1857  0.2155
 6664TIP3    H241408   3.720   1.706   0.187  0.7250 -1.0649  0.5498
 6665TIP3   OH241409   1.982   2.703  15.183  0.1222  0.1912 -0.2892
 6665TIP3    H141410   1.919   2.762  15.226  0.7527 -0.0150  0.9446
 6665TIP3    H241411   1.932   2.663  15.111 -0.6296  1.3906 -0.4549
 6666TIP3   OH241412   3.661   5.078  13.059  0.1448  0.8285 -0.0022
 6666TIP3    H141413   3.716   5.130  13.000 -0.4913  0.3519 -1.0124
 6666TIP3    H241414   3.572   5.092  13.028 -0.0393 -0.8172 -0.2291
 6667TIP3   OH241415   2.225   5.715   5.526  0.5070 -0.0478  0.1257
 6667TIP3    H141416   2.291   5.655   5.492 -0.0754 -0.4391 -0.3339
 6667TIP3    H241417   2.270   5.799   5.535  0.9347 -0.1898 -0.6576
 6668TIP3   OH241418   0.702   0.834   4.001 -0.2377  0.0556 -0.4369
 6668TIP3    H141419   0.710   0.739   3.993 -1.1985  0.0245 -1.0840
 6668TIP3    H241420   0.608   0.850   4.011 -0.3519  1.1218 -2.8939
 6669TIP3   OH241421   2.475   6.665  11.786 -0.8059  0.2903 -0.3586
 6669TIP3    H141422   2.480   6.673  11.690 -0.1076  3.5717 -0.1059
 6669TIP3    H241423   2.509   6.578  11.804  1.5070  0.5648 -2.9408
 6670TIP3   OH241424   6.383   5.255  16.693  0.1075  0.2231  0.3621
 6670TIP3    H141425   6.295   5.292  16.687  0.1634  0.3218  0.1651
 6670TIP3    H241426   6.423   5.301  16.767  0.5834  1.4084 -0.6276
 6671TIP3   OH241427   3.186   4.183  14.103  0.5942  0.2030  0.4632
 6671TIP3    H141428   3.211   4.092  14.120  0.4747  0.2415  0.8446
 6671TIP3    H241429   3.221   4.232  14.178  0.3514  0.4213  0.4338
 6672TIP3   OH241430   2.503   2.130   5.730 -0.0703 -0.0893  0.1513
 6672TIP3    H141431   2.523   2.113   5.638  0.8623 -2.1763  0.7083
 6672TIP3    H241432   2.589   2.137   5.772 -0.4894 -0.4545  1.0770
 6673TIP3   OH241433   2.657   6.230  16.228 -0.0041 -0.0074  0.3109
 6673TIP3    H141434   2.699   6.184  16.155 -1.0375 -2.9883  1.5069
 6673TIP3    H241435   2.675   6.175  16.305  0.0172  2.4321  2.1128
 6674TIP3   OH241436   4.287   2.062   5.811  0.1661 -0.2700  0.1099
 6674TIP3    H141437   4.348   2.135   5.815 -0.1472 -0.0570  1.4829
 6674TIP3    H241438   4.342   1.984   5.814  0.4106 -0.0789  0.9140
 6675TIP3   OH241439   4.633   4.264   2.981  0.1862  0.5343 -0.1805
 6675TIP3    H141440   4.558   4.248   2.924  0.8823 -0.2031 -0.9054
 6675TIP3    H241441   4.674   4.343   2.946  0.2197  0.4639 -0.3018
 6676TIP3   OH241442   3.942   1.330  14.535  0.3981 -0.0576  0.6386
 6676TIP3    H141443   3.997   1.253  14.520 -1.0343 -1.4058  2.1115
 6676TIP3    H241444   3.915   1.323  14.626 -2.1581  0.5768 -0.0168
 6677TIP3   OH241445   2.856   3.744  13.271 -0.4487  0.4630  0.2400
 6677TIP3    H141446   2.849   3.818  13.331  1.2680 -0.4195  1.5748
 6677TIP3    H241447   2.886   3.671  13.326  3.1115  0.1051 -1.9915
 6678TIP3   OH241448   0.727   2.261   1.224  0.5583  0.1078 -0.1518
 6678TIP3    H141449   0.800   2.227   1.275  0.5599  0.2797 -0.0380
 6678TIP3    H241450   0.740   2.356   1.224  1.3080  0.0232 -1.6047
 6679TIP3   OH241451   2.361   1.211  15.557  0.2747 -0.1592 -0.5524
 6679TIP3    H141452   2.332   1.234  15.645 -2.7624  1.0190 -1.7785
 6679TIP3    H241453   2.377   1.117  15.560 -1.4827 -0.4355  0.8203
 6680TIP3   OH241454   3.223   1.239   3.477  0.0907 -0.1219  0.7407
 6680TIP3    H141455   3.192   1.314   3.426 -0.4740 -0.3643  0.7281
 6680TIP3    H241456   3.144   1.192   3.501  0.5262 -1.5359 -0.5009
 6681TIP3   OH241457   1.797   4.375   4.200  0.2950 -0.2483 -0.3200
 6681TIP3    H141458   1.702   4.383   4.213  0.5525  0.5287  1.2124
 6681TIP3    H241459   1.823   4.307   4.262  0.8628  0.2122 -0.0471
 6682TIP3   OH241460   1.014   3.861  12.344 -0.5381  0.4009 -0.0965
 6682TIP3    H141461   1.065   3.940  12.324 -2.8645  1.4668 -2.0662
 6682TIP3    H241462   1.050   3.830  12.428  1.2660  2.8223  0.0799
 6683TIP3   OH241463   0.328   5.057  12.105  0.1873  0.5983 -0.6039
 6683TIP3    H141464   0.312   5.109  12.184  1.8754 -0.0122  0.1674
 6683TIP3    H241465   0.331   5.122  12.035  4.0012  1.8856  0.5652
 6684TIP3   OH241466   0.244   1.735   2.293 -0.3000  0.6660 -0.2454
 6684TIP3    H141467   0.292   1.653   2.282 -1.4810  0.0320 -0.8925
 6684TIP3    H241468   0.287   1.796   2.233 -0.2045  0.1448 -0.7191
 6685TIP3   OH241469   4.626   0.503  13.677 -0.3267 -0.0330  0.9545
 6685TIP3    H141470   4.707   0.461  13.706 -0.9947 -1.1059  1.3024
 6685TIP3    H241471   4.570   0.503  13.755 -1.8625 -2.2670 -0.0860
 6686TIP3   OH241472   4.447   1.907   4.920  0.4464  0.0327  0.0363
 6686TIP3    H141473   4.525   1.928   4.971  0.3179  1.3097 -0.2657
 6686TIP3    H241474   4.472   1.923   4.829  1.0369 -3.3705 -0.4543
 6687TIP3   OH241475   1.304   2.412   0.348 -0.3908 -0.6363 -0.1339
 6687TIP3    H141476   1.330   2.491   0.300 -1.3520  1.0579  2.0532
 6687TIP3    H241477   1.371   2.347   0.324  0.1948  0.6874 -2.2669
 6688TIP3   OH241478   0.171   3.774  17.098  0.1858 -0.3380 -0.3003
 6688TIP3    H141479   0.164   3.831  17.021 -1.4854  0.3488  0.3356
 6688TIP3    H241480   0.180   3.835  17.172  1.3759 -0.9841  0.1021
 6689TIP3   OH241481   1.871   1.582   1.056 -0.1280  0.2954 -0.2677
 6689TIP3    H141482   1.918   1.635   1.120  0.0384 -0.2852  0.0956
 6689TIP3    H241483   1.878   1.492   1.089 -0.2797  0.0259 -0.9517
 6690TIP3   OH241484   6.335   6.104  12.972  0.0183 -0.5187  0.2599
 6690TIP3    H141485   6.308   6.192  12.945 -0.0102 -1.0547 -1.5236
 6690TIP3    H241486   6.272   6.081  13.040 -0.7422  0.3689 -0.1162
 6691TIP3   OH241487   4.634   6.746   1.371 -0.0729 -0.2955  0.4031
 6691TIP3    H141488   4.602   6.756   1.281 -0.6444  1.4542  0.7773
 6691TIP3    H241489   4.565   6.696   1.415 -1.2358  1.4227  0.6003
 6692TIP3   OH241490   4.839   2.568  14.136 -0.0778  0.1298  0.0874
 6692TIP3    H141491   4.932   2.580  14.120 -0.0847 -0.2043 -0.1894
 6692TIP3    H241492   4.835   2.531  14.225 -0.0123  1.3328  0.6022
 6693TIP3   OH241493   2.113   0.163   3.773  0.3555 -0.0118  0.9054
 6693TIP3    H141494   2.203   0.129   3.777  1.2437  1.7703 -1.7557
 6693TIP3    H241495   2.067   0.120   3.844  2.5183 -3.4089  0.3506
 6694TIP3   OH241496   2.814   1.875   1.365 -0.5811  0.7025 -0.3184
 6694TIP3    H141497   2.763   1.826   1.429 -1.2688  1.1009 -0.5669
 6694TIP3    H241498   2.860   1.942   1.417 -0.1685  0.2383 -0.0751
 6695TIP3   OH241499   1.558   3.743   5.214  0.2594 -0.0415 -0.0544
 6695TIP3    H141500   1.564   3.696   5.297  3.0150  0.7313  0.2078
 6695TIP3    H241501   1.580   3.677   5.148  0.2639 -0.0832 -0.0117
 6696TIP3   OH241502   6.346   4.604  16.290 -0.2231  0.1006 -0.1079
 6696TIP3    H141503   6.301   4.687  16.275 -0.5426  0.1739  1.1549
 6696TIP3    H241504   6.436   4.629  16.312 -0.5891  0.1944  1.3512
 6697TIP3   OH241505   0.965   2.472   3.929  0.3389  0.1663 -0.2575
 6697TIP3    H141506   0.965   2.513   3.843  0.6200 -0.9345 -0.7936
 6697TIP3    H241507   0.963   2.378   3.911 -0.9065 -0.0561  0.9565
 6698TIP3   OH241508   0.275   4.112  11.851  0.4736 -0.1827  0.0242
 6698TIP3    H141509   0.364   4.079  11.857  0.4928 -0.1324  0.0123
 6698TIP3    H241510   0.282   4.205  11.870  0.5136 -0.0524 -0.6141
 6699TIP3   OH241511   0.282   6.668  15.368  0.3634 -0.5799 -0.5983
 6699TIP3    H141512   0.357   6.630  15.322  1.5417  1.5454 -0.4435
 6699TIP3    H241513   0.296   6.644  15.459 -0.0769 -1.6555 -0.7953
 6700TIP3   OH241514   1.658   5.845  15.008 -0.3363 -0.0850 -0.3166
 6700TIP3    H141515   1.579   5.887  15.043  0.1355 -0.4969  1.2927
 6700TIP3    H241516   1.709   5.917  14.971 -1.3460  0.2162 -1.1399
 6701TIP3   OH241517   5.179   3.787  13.600 -0.6220  0.2148 -0.4432
 6701TIP3    H141518   5.128   3.846  13.655 -0.0345  1.7953 -1.5920
 6701TIP3    H241519   5.250   3.841  13.565 -0.2888 -1.0729 -1.7901
 6702TIP3   OH241520   6.634   5.296   1.943  0.1632  0.5819 -0.1443
 6702TIP3    H141521   6.567   5.359   1.970  0.1991  0.7354 -0.4123
 6702TIP3    H241522   6.713   5.326   1.988 -0.1655 -0.1619  0.9324
 6703TIP3   OH241523   0.416   3.645   0.594  0.0763 -0.1726  0.1018
 6703TIP3    H141524   0.341   3.705   0.588 -0.9350 -1.3134  1.1213
 6703TIP3    H241525   0.467   3.678   0.668 -0.6606 -0.7680  0.8782
 6704TIP3   OH241526   3.015   2.973  16.675  0.0152 -0.3384  0.1648
 6704TIP3    H141527   3.016   2.891  16.626  0.5286 -0.6586  0.6938
 6704TIP3    H241528   3.106   3.003  16.672 -0.0534 -0.0993  0.4787
 6705TIP3   OH241529   1.990   3.424  14.747 -0.2084 -0.0997  0.1829
 6705TIP3    H141530   1.978   3.332  14.726  1.4850 -1.0458  3.1491
 6705TIP3    H241531   2.054   3.455  14.682 -1.6065 -0.6782 -1.5071
 6706TIP3   OH241532   3.654   2.285   1.215 -0.7307 -0.3810 -0.1209
 6706TIP3    H141533   3.738   2.304   1.257 -0.5495  0.6284 -0.9175
 6706TIP3    H241534   3.674   2.279   1.121 -1.7323  1.1707 -0.4751
 6707TIP3   OH241535   4.834   5.367  13.501 -0.6752 -0.3317  0.2869
 6707TIP3    H141536   4.837   5.431  13.430 -0.6813 -0.3936  0.2308
 6707TIP3    H241537   4.822   5.283  13.457  3.0224 -0.8238  0.1134
 6708TIP3   OH241538   1.172   5.055   4.971  0.3691 -0.6276  0.3916
 6708TIP3    H141539   1.137   4.981   4.921 -0.0713 -0.4586  0.4455
 6708TIP3    H241540   1.133   5.045   5.058  0.7538 -0.6503  0.5614
 6709TIP3   OH241541   2.809   3.833   5.389  0.2158 -0.8146  0.3740
 6709TIP3    H141542   2.900   3.804   5.390  0.4876 -0.1031 -1.5421
 6709TIP3    H241543   2.793   3.857   5.298 -1.1734  1.2639  1.1335
 6710TIP3   OH241544   1.823   6.505  16.732  0.4438  0.2711 -0.6697
 6710TIP3    H141545   1.802   6.501  16.639  0.7353 -1.0280 -0.6930
 6710TIP3    H241546   1.838   6.414  16.757 -0.9841  0.4634  0.9779
 6711TIP3   OH241547   6.647   6.144   5.809  0.0720  0.5314  0.5456
 6711TIP3    H141548   6.727   6.191   5.787  1.6626 -1.3904  2.0814
 6711TIP3    H241549   6.661   6.113   5.899 -1.9086 -0.8089  0.4280
 6712TIP3   OH241550   3.409   4.910  14.902 -0.3519  0.6511  0.6499
 6712TIP3    H141551   3.386   4.982  14.961  0.6111  0.5519  1.1582
 6712TIP3    H241552   3.484   4.868  14.943 -0.1538  0.0954 -0.2554
 6713TIP3   OH241553   1.177   3.630   0.536 -0.0362  0.0833  0.6646
 6713TIP3    H141554   1.110   3.563   0.543  1.6676 -1.4455  3.3677
 6713TIP3    H241555   1.130   3.713   0.546 -1.6744 -0.9115  1.2833
 6714TIP3   OH241556   3.666   6.595  15.714  0.1775 -0.6272  0.2854
 6714TIP3    H141557   3.673   6.540  15.791  0.2474  1.0199  1.4875
 6714TIP3    H241558   3.609   6.667  15.741  0.8982  0.4234 -0.8976
 6715TIP3   OH241559   4.805   1.613  15.395  0.0149  0.7844  0.0700
 6715TIP3    H141560   4.816   1.558  15.318 -0.0506 -0.3086  0.8308
 6715TIP3    H241561   4.712   1.608  15.416 -0.3500  2.7672 -1.0120
 6716TIP3   OH241562   3.040   0.431  11.868  0.4914 -0.1909  0.4247
 6716TIP3    H141563   2.956   0.470  11.846 -0.1439 -1.4703  0.5906
 6716TIP3    H241564   3.103   0.477  11.812 -0.2705  0.9485  0.4940
 6717TIP3   OH241565   1.821   1.759  12.414 -0.5279  0.4827  0.5658
 6717TIP3    H141566   1.806   1.853  12.424 -0.5030  0.5740 -0.1933
 6717TIP3    H241567   1.845   1.748  12.322  1.1125 -0.0544  1.0325
 6718TIP3   OH241568   3.091   3.575  15.121  0.1748  0.3222  0.9587
 6718TIP3    H141569   3.133   3.541  15.042  1.6002 -0.6985  2.1139
 6718TIP3    H241570   3.019   3.515  15.139 -0.1664  0.5723  0.4231
 6719TIP3   OH241571   0.253   3.807   5.687  0.0532 -0.0346  0.0579
 6719TIP3    H141572   0.276   3.724   5.728  0.4936 -0.5555 -1.2123
 6719TIP3    H241573   0.294   3.873   5.743  0.2025 -0.7019  0.7451
 6720TIP3   OH241574   0.721   6.786   0.786 -0.1048 -0.5386 -0.2661
 6720TIP3    H141575   0.703   6.830   0.702 -1.2132 -0.9073 -0.2329
 6720TIP3    H241576   0.646   6.727   0.798  0.6337 -1.3383  0.4221
 6721TIP3   OH241577   6.258   0.490   3.112 -0.2584  0.6150 -0.6362
 6721TIP3    H141578   6.230   0.521   3.199  0.3116  0.4050 -0.3697
 6721TIP3    H241579   6.343   0.449   3.129 -0.2853  0.3123 -1.2522
 6722TIP3   OH241580   5.347   2.690   2.396 -0.1913 -0.3241  0.1634
 6722TIP3    H141581   5.435   2.652   2.395 -0.0553 -0.0404  0.8008
 6722TIP3    H241582   5.354   2.766   2.338 -0.5924 -1.5216 -1.4873
 6723TIP3   OH241583   1.545   6.688   5.359 -0.0256 -0.6874 -0.2281
 6723TIP3    H141584   1.545   6.592   5.358 -0.8861 -0.7166  1.3979
 6723TIP3    H241585   1.468   6.713   5.308 -0.7493 -0.8957  0.7523
 6724TIP3   OH241586   5.309   1.999  12.687  0.7261 -0.3845  0.1763
 6724TIP3    H141587   5.381   1.942  12.662 -0.9127 -1.5201 -2.2449
 6724TIP3    H241588   5.348   2.086  12.692  2.5841 -1.2137  0.6309
 6725TIP3   OH241589   3.466   6.036  12.452 -0.3886 -0.2121  0.0334
 6725TIP3    H141590   3.471   6.116  12.505  0.4725  0.8097 -1.5048
 6725TIP3    H241591   3.389   6.049  12.396  2.2035  1.6588 -3.3539
 6726TIP3   OH241592   2.276   2.166  11.734  0.0977  0.5332  0.1727
 6726TIP3    H141593   2.322   2.228  11.790  0.9257 -0.8613  1.0607
 6726TIP3    H241594   2.239   2.220  11.664  1.9018  1.8501  0.2057
 6727TIP3   OH241595   5.936   5.349  12.997 -0.0315  0.3451 -0.0947
 6727TIP3    H141596   5.948   5.426  13.054 -0.9461  0.0974  0.4340
 6727TIP3    H241597   5.848   5.318  13.016 -0.3835  0.2886 -1.6961
 6728TIP3   OH241598   1.395   3.593  16.290 -0.3676  0.3379 -0.4694
 6728TIP3    H141599   1.450   3.585  16.368  1.4485 -1.1921 -1.8806
 6728TIP3    H241600   1.336   3.518  16.295 -1.3288  1.1207  0.2303
 6729TIP3   OH241601   5.444   3.894   4.847  0.3357 -0.0962 -0.3632
 6729TIP3    H141602   5.529   3.852   4.835  0.6971  0.7122 -0.6745
 6729TIP3    H241603   5.402   3.844   4.918 -1.0245 -3.7133 -3.5543
 6730TIP3   OH241604   4.196   5.128  13.969 -0.0339 -0.5512 -0.2855
 6730TIP3    H141605   4.135   5.108  13.898  0.0743  1.5689 -1.0175
 6730TIP3    H241606   4.218   5.220  13.956  2.4110 -0.9665  0.6731
 6731TIP3   OH241607   2.725   5.540  12.286 -0.7545  0.4180  0.0029
 6731TIP3    H141608   2.722   5.568  12.377  0.2054 -0.0525  0.1890
 6731TIP3    H241609   2.771   5.611  12.240 -2.3580  1.2556 -0.3642
 6732TIP3   OH241610   1.274   0.271   5.633 -0.3739  0.1059 -0.1781
 6732TIP3    H141611   1.287   0.352   5.682 -1.2275 -0.0349  0.2751
 6732TIP3    H241612   1.360   0.253   5.594  0.6534 -0.4575  2.2894
 6733TIP3   OH241613   4.246   0.561   0.780  0.1302  0.6776  0.2388
 6733TIP3    H141614   4.176   0.626   0.793 -2.9899 -2.8118  1.6188
 6733TIP3    H241615   4.303   0.573   0.856 -1.6360  0.3503  1.6454
 6734TIP3   OH241616   1.333   0.331  13.473 -0.1540 -0.0673  0.2812
 6734TIP3    H141617   1.275   0.372  13.538  1.4852  2.7148  0.0613
 6734TIP3    H241618   1.408   0.389  13.468  0.3904 -0.9659 -3.1190
 6735TIP3   OH241619   4.201   5.897   5.413  0.3470  0.4778  0.2876
 6735TIP3    H141620   4.109   5.904   5.437  0.2793  0.5908 -0.0069
 6735TIP3    H241621   4.248   5.913   5.495  0.0778 -1.2019  0.7850
 6736TIP3   OH241622   0.884   3.955   1.661 -0.1602  0.0334  0.3605
 6736TIP3    H141623   0.888   3.890   1.731  2.4036 -0.6748 -0.3939
 6736TIP3    H241624   0.899   4.039   1.704 -0.2584 -0.2121  0.8796
 6737TIP3   OH241625   1.015   3.576   5.443 -0.4825  0.0826  0.2474
 6737TIP3    H141626   1.062   3.602   5.522  0.6723 -1.4503  0.0914
 6737TIP3    H241627   0.925   3.604   5.458  0.2495  2.1456  0.9905
 6738TIP3   OH241628   4.683   3.559  13.633  0.1388  0.1546 -0.1999
 6738TIP3    H141629   4.740   3.587  13.561  1.3694  2.3445  1.5619
 6738TIP3    H241630   4.657   3.641  13.676 -1.9181 -1.0254  0.8655
 6739TIP3   OH241631   1.754   4.696   1.019  0.5155  0.5105  0.5944
 6739TIP3    H141632   1.707   4.659   0.944 -0.7287  0.0529  1.5830
 6739TIP3    H241633   1.695   4.764   1.052  1.0416  0.6742  1.1945
 6740TIP3   OH241634   1.380   3.211  14.620  0.0898 -0.2623 -0.0021
 6740TIP3    H141635   1.310   3.155  14.585  1.3581 -0.9936 -1.4444
 6740TIP3    H241636   1.335   3.292  14.645 -1.1914 -0.4427 -1.5680
 6741TIP3   OH241637   1.513   4.240   3.052 -0.0015  0.3270  0.4084
 6741TIP3    H141638   1.469   4.257   3.135 -3.6262 -0.5066 -1.2298
 6741TIP3    H241639   1.531   4.327   3.016 -1.0548  0.6851  0.7443
 6742TIP3   OH241640   1.342   6.717   5.536 -0.4814  0.3864  0.4129
 6742TIP3    H141641   1.329   6.644   5.596  0.3862 -0.1742 -0.0563
 6742TIP3    H241642   1.425   6.697   5.492 -0.4051  1.4838  0.0315
 6743TIP3   OH241643   4.544   0.124   1.573  0.2005  0.2925 -0.0032
 6743TIP3    H141644   4.593   0.067   1.515  0.6127  2.2700 -1.6601
 6743TIP3    H241645   4.610   0.164   1.630 -0.2735 -2.1824  2.3956
 6744TIP3   OH241646   0.756   0.921  14.177  0.4886  0.0988  0.2076
 6744TIP3    H141647   0.774   1.013  14.159  0.5059  0.4206  1.7631
 6744TIP3    H241648   0.716   0.888  14.097 -1.0419  1.8840  0.2089
 6745TIP3   OH241649   0.988   2.800  15.607 -0.4104 -0.4706  0.0213
 6745TIP3    H141650   0.981   2.805  15.511  0.9626 -0.4529 -0.0813
 6745TIP3    H241651   0.897   2.805  15.637 -0.8724 -0.6449 -1.2874
 6746TIP3   OH241652   5.290   0.896   4.914 -0.0188  0.6606 -0.1032
 6746TIP3    H141653   5.229   0.892   4.987 -1.4857  2.9779 -1.1308
 6746TIP3    H241654   5.307   0.805   4.891  0.2031 -0.0802  2.8861
 6747TIP3   OH241655   3.270   2.215  13.528  0.0894  0.3291 -0.2508
 6747TIP3    H141656   3.279   2.120  13.526  1.7772  0.4529  0.7401
 6747TIP3    H241657   3.229   2.233  13.613 -0.9070  0.4436 -0.7507
 6748TIP3   OH241658   3.799   4.733   0.363 -0.8269 -0.1661 -0.3261
 6748TIP3    H141659   3.727   4.707   0.305  0.5397 -1.1172 -1.6029
 6748TIP3    H241660   3.878   4.709   0.316  0.3287 -0.0715  1.5311
 6749TIP3   OH241661   1.955   2.193  11.367  0.4240 -0.4588 -0.1317
 6749TIP3    H141662   1.895   2.237  11.427  2.2918  0.4044  1.1610
 6749TIP3    H241663   1.917   2.207  11.280  0.3498  2.7499  0.3414
 6750TIP3   OH241664   1.218   5.029   4.483  0.4914 -0.2553  0.0876
 6750TIP3    H141665   1.206   5.123   4.474 -1.0736 -0.2880  1.6361
 6750TIP3    H241666   1.180   4.992   4.404 -1.8802  0.2217  0.9668
 6751TIP3   OH241667   6.501   3.805  11.280 -0.6193  0.3782  0.1257
 6751TIP3    H141668   6.411   3.833  11.295 -0.6007  1.2382 -1.1900
 6751TIP3    H241669   6.507   3.797  11.185  0.9560  1.2827  0.1304
 6752TIP3   OH241670   2.130   2.836  15.566  0.3798 -0.3947  0.4024
 6752TIP3    H141671   2.147   2.781  15.643 -0.6110  0.3679  1.1756
 6752TIP3    H241672   2.172   2.920  15.587 -0.7388  0.1379  0.5440
 6753TIP3   OH241673   2.947   6.443   3.145  0.2176  0.0059 -0.2413
 6753TIP3    H141674   2.952   6.538   3.134 -0.9866 -0.1542 -2.3357
 6753TIP3    H241675   2.887   6.414   3.077  1.2015 -2.3660 -0.1427
 6754TIP3   OH241676   0.977   4.532  11.281 -0.2745 -0.0340  0.1012
 6754TIP3    H141677   0.944   4.443  11.280 -0.0790 -0.1143 -2.7261
 6754TIP3    H241678   1.066   4.525  11.244 -0.1961  1.2929  0.0127
 6755TIP3   OH241679   2.658   3.784  14.305  0.0474 -0.0374 -0.2237
 6755TIP3    H141680   2.673   3.809  14.214  1.5455  0.9850  0.2917
 6755TIP3    H241681   2.637   3.690  14.301  4.2813 -1.0497 -1.2456
 6756TIP3   OH241682   1.435   4.455   0.912  0.1039 -0.2553 -0.2578
 6756TIP3    H141683   1.430   4.386   0.847 -1.8194 -0.6812  0.3390
 6756TIP3    H241684   1.400   4.416   0.992  0.0556  1.0526  0.3729
 6757TIP3   OH241685   1.800   1.330  13.584  0.0300 -0.3471 -0.4134
 6757TIP3    H141686   1.837   1.250  13.547 -1.1652 -1.3740  0.5407
 6757TIP3    H241687   1.732   1.299  13.644  1.0751  1.3159  1.7016
 6758TIP3   OH241688   2.022   2.938   2.278 -0.1251 -0.5715  0.1940
 6758TIP3    H141689   1.959   2.912   2.211 -0.1616 -0.8518  0.3359
 6758TIP3    H241690   1.984   3.017   2.317 -0.4916 -0.8567  0.4193
 6759TIP3   OH241691   0.488   2.052   0.724 -0.5365  0.1665  0.3549
 6759TIP3    H141692   0.568   2.102   0.709 -0.8938  1.2343  1.8728
 6759TIP3    H241693   0.435   2.069   0.647  0.7246 -0.6169 -0.7013
 6760TIP3   OH241694   2.864   5.162   3.956 -0.3597 -0.0964 -0.5169
 6760TIP3    H141695   2.807   5.232   3.924 -1.4266 -1.2127 -1.1147
 6760TIP3    H241696   2.809   5.113   4.017  0.2155 -0.6970 -0.4774
 6761TIP3   OH241697   3.110   5.192  12.801  0.1101  0.3481 -0.6505
 6761TIP3    H141698   3.166   5.269  12.806  0.4468  0.2593 -2.8520
 6761TIP3    H241699   3.031   5.222  12.757  0.3551 -0.6030 -1.7777
 6762TIP3   OH241700   5.844   4.257   0.164  0.1938 -0.1660 -0.0848
 6762TIP3    H141701   5.848   4.284   0.072  1.8427 -1.7209 -0.4993
 6762TIP3    H241702   5.760   4.211   0.171  0.2094 -0.3282 -0.8991
 6763TIP3   OH241703   0.528   3.560  16.696 -0.5984 -0.4042 -0.3934
 6763TIP3    H141704   0.598   3.604  16.648  0.8548 -1.6881  0.5162
 6763TIP3    H241705   0.514   3.614  16.774  1.3123 -1.6066  0.8192
 6764TIP3   OH241706   6.122   3.619  13.675 -0.3415 -0.4024 -0.2813
 6764TIP3    H141707   6.127   3.707  13.713  0.9138  0.0332 -1.4087
 6764TIP3    H241708   6.052   3.625  13.611 -0.9872 -0.5261  0.4124
 6765TIP3   OH241709   0.451   5.256  13.287 -0.3699 -0.8187 -0.2045
 6765TIP3    H141710   0.399   5.220  13.215 -1.1234  0.4511 -0.3202
 6765TIP3    H241711   0.536   5.214  13.279 -0.8996 -1.7753 -0.9579
 6766TIP3   OH241712   3.073   6.470  11.741  0.1321  0.5774  0.3762
 6766TIP3    H141713   3.151   6.507  11.783 -0.0149 -0.3580  1.4884
 6766TIP3    H241714   3.107   6.421  11.667  0.6518 -0.2261  1.1357
 6767TIP3   OH241715   3.871   4.316  13.650  0.2470 -0.4719 -0.4027
 6767TIP3    H141716   3.905   4.349  13.733  1.0284 -1.3427 -0.3611
 6767TIP3    H241717   3.808   4.382  13.621 -0.8743 -0.7228  1.4313
 6768TIP3   OH241718   0.795   1.751  12.635  0.4397  0.1059  0.0487
 6768TIP3    H141719   0.835   1.774  12.718  1.0463  1.0204 -0.4801
 6768TIP3    H241720   0.855   1.787  12.569 -0.4748  0.1599 -0.7638
 6769TIP3   OH241721   2.000   5.518  12.616 -0.7411 -0.1699 -0.5339
 6769TIP3    H141722   2.044   5.461  12.553  0.7724 -0.0701  0.4240
 6769TIP3    H241723   2.064   5.585  12.637 -1.6753  0.5020  0.1892
 6770TIP3   OH241724   0.398   1.175   4.574  1.0359  0.3776  0.3463
 6770TIP3    H141725   0.340   1.231   4.522  0.3657 -1.4347 -0.8807
 6770TIP3    H241726   0.486   1.210   4.558  0.7661  0.2347 -1.4948
 6771TIP3   OH241727   1.649   2.064  11.221  0.1109 -0.0512 -0.0736
 6771TIP3    H141728   1.681   1.977  11.197  2.0508  0.4232  0.6509
 6771TIP3    H241729   1.723   2.123  11.204 -0.7128  1.2495  0.7061
 6772TIP3   OH241730   2.207   2.580  16.534 -0.0428  0.1128 -0.5133
 6772TIP3    H141731   2.167   2.633  16.464 -0.5938  0.2671 -0.0809
 6772TIP3    H241732   2.284   2.541  16.493 -0.6295 -0.1767 -1.3518
 6773TIP3   OH241733   3.578   2.526   3.666 -0.1791 -0.4162 -0.2557
 6773TIP3    H141734   3.515   2.577   3.718  0.3260 -0.5178  0.4738
 6773TIP3    H241735   3.638   2.592   3.631  0.3956 -0.4840  0.5789
 6774TIP3   OH241736   2.660   4.442  17.049 -0.4196 -0.2274  0.4575
 6774TIP3    H141737   2.656   4.536  17.063 -1.5133 -0.2796  0.4996
 6774TIP3    H241738   2.576   4.409  17.081 -0.0052 -1.2229  0.5294
 6775TIP3   OH241739   2.885   4.645  11.373 -0.2090  0.0904  0.3142
 6775TIP3    H141740   2.828   4.691  11.436 -0.9607  1.7554 -1.5456
 6775TIP3    H241741   2.973   4.659  11.408 -0.4223  2.8347 -0.0728
 6776TIP3   OH241742   4.276   2.366   3.378  0.2862  0.3610  0.1253
 6776TIP3    H141743   4.197   2.315   3.393  2.0696 -2.4460  0.2385
 6776TIP3    H241744   4.316   2.375   3.464  1.8267 -1.2078 -0.4016
 6777TIP3   OH241745   3.473   2.563  16.142  0.3853  0.0560  0.3897
 6777TIP3    H141746   3.471   2.645  16.192  0.6966  0.4652 -0.2715
 6777TIP3    H241747   3.384   2.529  16.149 -0.5062  1.8459 -1.6446
 6778TIP3   OH241748   0.663   0.391   5.361 -0.6551  0.6153  0.5754
 6778TIP3    H141749   0.588   0.448   5.347  0.6042  2.6461  1.8284
 6778TIP3    H241750   0.702   0.380   5.274 -2.7228 -0.9803 -0.1892
 6779TIP3   OH241751   0.653   6.407  13.538 -1.3364 -0.2001  0.3564
 6779TIP3    H141752   0.711   6.421  13.614 -0.3451 -1.4169 -0.1553
 6779TIP3    H241753   0.565   6.408  13.575 -0.9624  1.0182  1.2582
 6780TIP3   OH241754   3.597   3.919   2.188  0.2937  0.5206  0.2360
 6780TIP3    H141755   3.518   3.948   2.142 -0.5643 -3.4284 -0.9502
 6780TIP3    H241756   3.664   3.911   2.120  1.1045  1.6098  0.8805
 6781TIP3   OH241757   6.682   2.059  16.676 -0.3839  0.3772  0.2985
 6781TIP3    H141758   6.695   2.013  16.593 -1.3214 -0.2802  0.5053
 6781TIP3    H241759   6.619   2.006  16.723 -1.7231  2.0106  0.4173
 6782TIP3   OH241760   6.687   6.228   0.138  0.1648  0.8301 -0.0708
 6782TIP3    H141761   6.672   6.306   0.084 -1.0057  1.1146  0.6580
 6782TIP3    H241762   6.675   6.155   0.078  1.4153  1.2090 -0.7954
 6783TIP3   OH241763   5.087   2.930  12.149  0.5870 -0.8571  0.2402
 6783TIP3    H141764   5.183   2.923  12.143  1.1004  3.3856  1.7969
 6783TIP3    H241765   5.070   2.936  12.243 -1.0979 -0.3365 -0.0932
 6784TIP3   OH241766   0.838   0.078   1.569 -0.0216 -0.3394  0.1414
 6784TIP3    H141767   0.837   0.071   1.665  1.2649 -1.9266  0.0518
 6784TIP3    H241768   0.829  -0.012   1.538  0.8870  0.0169 -1.2172
 6785TIP3   OH241769   3.607   3.873   0.265  0.1608  0.5160  0.9773
 6785TIP3    H141770   3.511   3.868   0.258  0.2713  0.3614 -0.7183
 6785TIP3    H241771   3.637   3.871   0.174  1.8980 -1.9793  1.5702
 6786TIP3   OH241772   0.556   5.820   2.315  0.3505  0.0493 -0.2556
 6786TIP3    H141773   0.566   5.756   2.385  1.6007  0.1851 -0.3110
 6786TIP3    H241774   0.644   5.834   2.282  0.0554  1.6191 -0.4149
 6787TIP3   OH241775   0.698   6.093  13.604  0.2278  0.2425  0.3207
 6787TIP3    H141776   0.747   6.127  13.678  0.3498 -0.2926  0.4882
 6787TIP3    H241777   0.609   6.128  13.616  0.0198 -0.5475  1.2023
 6788TIP3   OH241778   0.549   5.448   4.332 -0.1917 -0.0496 -0.6288
 6788TIP3    H141779   0.627   5.398   4.356  0.2253  0.0027 -1.8839
 6788TIP3    H241780   0.576   5.540   4.340  0.0137 -0.0341 -1.5403
 6789TIP3   OH241781   0.827   4.174  15.077 -0.0215  0.3968  0.2639
 6789TIP3    H141782   0.872   4.167  14.992 -1.2780  1.3641 -0.4847
 6789TIP3    H241783   0.822   4.083  15.108  0.0654 -0.0121 -0.8868
 6790TIP3   OH241784   0.639   2.834   0.705 -0.1505 -0.4658  1.3045
 6790TIP3    H141785   0.691   2.792   0.636 -0.9050 -0.7987  0.9306
 6790TIP3    H241786   0.555   2.789   0.702 -1.3111  1.7165  0.2832
 6791TIP3   OH241787   0.942   4.236  13.708  0.0248  0.0651 -0.0329
 6791TIP3    H141788   0.879   4.281  13.765 -0.1596 -0.9103  0.5385
 6791TIP3    H241789   0.916   4.144  13.711 -1.4135  0.2628 -3.4646
 6792TIP3   OH241790   4.807   3.436   5.510  0.4894  0.0501  0.3197
 6792TIP3    H141791   4.876   3.376   5.480  0.3946  0.7587 -1.3238
 6792TIP3    H241792   4.795   3.498   5.438 -1.0611  0.6464  1.0664
 6793TIP3   OH241793   2.599   0.600  16.340  0.1360 -0.0903 -0.0228
 6793TIP3    H141794   2.612   0.692  16.318 -0.3784  0.3037  1.2945
 6793TIP3    H241795   2.673   0.555  16.299 -0.5533  0.6624 -2.1737
 6794TIP3   OH241796   0.794   0.898  15.342  0.1570 -0.0037 -0.2682
 6794TIP3    H141797   0.853   0.881  15.269 -1.4746  1.4956 -1.9680
 6794TIP3    H241798   0.850   0.935  15.410  1.3847  0.2641 -1.4024
 6795TIP3   OH241799   5.251   1.311   3.464  0.2233 -0.2245 -0.1365
 6795TIP3    H141800   5.229   1.369   3.391 -0.7422  1.2162  1.2649
 6795TIP3    H241801   5.180   1.247   3.466  1.3633 -1.5844 -1.7761
 6796TIP3   OH241802   6.079   5.572   2.754 -0.0500 -0.0539  0.0999
 6796TIP3    H141803   6.031   5.629   2.814  0.3284  0.6189 -0.2267
 6796TIP3    H241804   6.171   5.589   2.773  0.0657 -0.7071  0.1342
 6797TIP3   OH241805   1.933   3.809  13.808 -0.2617 -0.3080 -0.0800
 6797TIP3    H141806   1.937   3.899  13.777 -1.0321 -0.2516 -0.0315
 6797TIP3    H241807   1.954   3.756  13.731 -1.0957 -0.1274 -0.4400
 6798TIP3   OH241808   0.440   5.528  16.183  0.3046 -0.2802  0.1173
 6798TIP3    H141809   0.463   5.531  16.276  0.8960 -1.4742  0.0211
 6798TIP3    H241810   0.520   5.555  16.138 -0.2928  1.3257 -0.0249
 6799TIP3   OH241811   3.613   0.671  16.465 -0.6640 -0.6000  0.2080
 6799TIP3    H141812   3.691   0.690  16.413 -0.5033  0.2891  0.7763
 6799TIP3    H241813   3.598   0.577  16.452  1.3940 -1.0992  1.3298
 6800TIP3   OH241814   4.434   1.025   2.017  0.0034 -0.3042 -0.6783
 6800TIP3    H141815   4.347   0.997   2.046  0.4382 -1.0731 -0.1098
 6800TIP3    H241816   4.472   0.947   1.976  1.5151 -0.7952  1.5680
 6801TIP3   OH241817   5.324   3.789  16.730 -0.2945 -0.2838 -0.2878
 6801TIP3    H141818   5.277   3.860  16.686  0.2822  1.7253  2.2847
 6801TIP3    H241819   5.416   3.814  16.723 -0.1468 -0.3718  1.3153
 6802TIP3   OH241820   3.694   1.567   1.455 -0.0105  0.0883  0.2000
 6802TIP3    H141821   3.731   1.528   1.534 -0.5999  0.4536  0.6654
 6802TIP3    H241822   3.766   1.569   1.393  0.8208  0.9708  1.1588
 6803TIP3   OH241823   1.414   3.758  14.060  0.2955 -0.1095  0.0076
 6803TIP3    H141824   1.322   3.785  14.056  0.3487 -0.0382 -1.0913
 6803TIP3    H241825   1.456   3.808  13.990  0.8902 -1.2042 -0.4331
 6804TIP3   OH241826   0.868   6.549  11.328  0.5080 -0.0391  0.1177
 6804TIP3    H141827   0.835   6.619  11.384  0.7612 -0.3372  0.6368
 6804TIP3    H241828   0.870   6.471  11.383 -0.0649 -0.5333 -0.5501
 6805TIP3   OH241829   5.184   4.388   0.367  0.2222 -0.3242 -0.0499
 6805TIP3    H141830   5.227   4.460   0.413 -1.1597 -0.5112  1.5643
 6805TIP3    H241831   5.093   4.415   0.358  0.4055 -0.4036 -2.4912
 6806TIP3   OH241832   1.082   0.758  11.891 -0.1601 -0.1719  0.6075
 6806TIP3    H141833   1.132   0.793  11.964  0.3851 -0.0269  0.1701
 6806TIP3    H241834   1.023   0.828  11.866  1.4013  0.6971 -0.7067
 6807TIP3   OH241835   3.197   0.730  16.293 -0.0824 -0.4498  0.0002
 6807TIP3    H141836   3.155   0.678  16.225 -1.7291  0.8495 -0.0203
 6807TIP3    H241837   3.275   0.767  16.251 -0.3424 -0.7687 -0.7660
 6808TIP3   OH241838   5.962   2.194   0.355 -0.5060  0.2717 -0.7425
 6808TIP3    H141839   5.940   2.180   0.447 -2.3431  0.3378 -1.1503
 6808TIP3    H241840   6.054   2.220   0.356 -0.3531 -0.2486  1.0230
 6809TIP3   OH241841   1.135   2.552  14.124 -0.6183  0.6272  0.1834
 6809TIP3    H141842   1.159   2.494  14.195 -0.7172 -0.5522 -0.7343
 6809TIP3    H241843   1.129   2.639  14.165  1.1216  0.2765  1.2265
 6810TIP3   OH241844   6.047   5.619   4.188 -0.7094  0.0200  0.1185
 6810TIP3    H141845   6.018   5.698   4.233 -1.3943 -0.1142 -0.0870
 6810TIP3    H241846   6.134   5.601   4.225 -1.3811 -0.2480  1.5777
 6811TIP3   OH241847   0.835   3.246  12.701  0.1608 -0.3889  0.2038
 6811TIP3    H141848   0.768   3.305  12.734  0.0937 -0.7075  0.6448
 6811TIP3    H241849   0.864   3.197  12.778 -0.1466 -1.2887 -0.2372
 6812TIP3   OH241850   0.746   0.156  16.054  0.9369 -0.5741  0.5454
 6812TIP3    H141851   0.693   0.219  16.005 -0.5373 -1.9963  0.2374
 6812TIP3    H241852   0.798   0.209  16.114  2.7946  1.2437 -2.5403
 6813TIP3   OH241853   4.756   3.214  11.283 -0.0454  0.1752 -0.5474
 6813TIP3    H141854   4.714   3.298  11.263  2.7909  2.2756  1.8235
 6813TIP3    H241855   4.818   3.201  11.211 -0.1839  0.2956 -0.6909
 6814TIP3   OH241856   2.364   3.600  15.180 -0.0409 -0.0971  0.1228
 6814TIP3    H141857   2.330   3.685  15.150 -1.2454 -0.5859  0.0870
 6814TIP3    H241858   2.320   3.585  15.263  2.1965  0.5681  1.4635
 6815TIP3   OH241859   4.096   1.868  13.213 -0.5565  0.0619 -0.1287
 6815TIP3    H141860   4.045   1.808  13.267  0.3542  0.2234  0.9233
 6815TIP3    H241861   4.099   1.827  13.126  2.3528 -2.8147  1.2372
 6816TIP3   OH241862   5.054   5.594   5.420 -0.1920  0.2980 -0.2560
 6816TIP3    H141863   5.118   5.613   5.352 -0.3378  0.9889 -0.2080
 6816TIP3    H241864   5.032   5.502   5.408  0.8891  0.0280 -0.1978
 6817TIP3   OH241865   0.998   0.329   3.815  0.2024 -0.2349 -0.1402
 6817TIP3    H141866   0.958   0.356   3.898 -0.2180 -0.8430 -0.1402
 6817TIP3    H241867   1.052   0.404   3.789 -0.5295  0.3952  0.1278
 6818TIP3   OH241868   6.139   0.844   0.998 -0.1964  0.4096  0.4204
 6818TIP3    H141869   6.054   0.820   1.033 -0.7232  1.1306 -0.3496
 6818TIP3    H241870   6.128   0.934   0.967  0.5564  0.1587 -0.5963
 6819TIP3   OH241871   5.382   5.496   0.944 -0.2028 -0.1716 -0.3066
 6819TIP3    H141872   5.378   5.525   0.853 -0.9582  1.1060  0.1139
 6819TIP3    H241873   5.306   5.537   0.986  1.1271  0.7775  1.2941
 6820TIP3   OH241874   4.986   1.662   5.117  0.5729 -0.2095  0.4578
 6820TIP3    H141875   4.973   1.579   5.164 -1.6782  1.0438  2.1709
 6820TIP3    H241876   5.036   1.716   5.178 -1.1470  0.9386  0.8964
 6821TIP3   OH241877   6.255   4.759   1.163  0.4104  0.4921 -0.0133
 6821TIP3    H141878   6.342   4.767   1.200  0.9385 -0.0338 -1.1250
 6821TIP3    H241879   6.268   4.760   1.068 -0.9364  1.9758 -0.2117
 6822TIP3   OH241880   1.616   1.556  11.702 -0.3147 -0.2159 -0.0937
 6822TIP3    H141881   1.700   1.590  11.735 -0.6865  2.4087 -1.6759
 6822TIP3    H241882   1.641   1.490  11.637  0.5181 -0.1113  0.1093
 6823TIP3   OH241883   3.489   6.265   1.920 -0.0206  0.4575  0.5418
 6823TIP3    H141884   3.567   6.317   1.938 -0.7273  1.4619  0.7319
 6823TIP3    H241885   3.506   6.225   1.835  1.0817 -0.0680  0.9927
 6824TIP3   OH241886   3.603   6.243  12.779 -0.1163  0.0597  0.0076
 6824TIP3    H141887   3.579   6.151  12.789 -0.3045  0.1989  0.8020
 6824TIP3    H241888   3.563   6.268  12.695 -0.4429 -0.4602  0.0026
 6825TIP3   OH241889   5.692   5.924  17.122 -0.1207  0.3255 -0.1702
 6825TIP3    H141890   5.745   5.911  17.043 -0.6775 -1.5223 -0.2682
 6825TIP3    H241891   5.747   5.977  17.180  2.0820 -2.0247 -0.0248
 6826TIP3   OH241892   0.330   6.686   1.444 -0.1993 -0.0960  0.2327
 6826TIP3    H141893   0.261   6.738   1.402 -0.7934 -1.1613 -0.1326
 6826TIP3    H241894   0.322   6.705   1.537 -1.5378 -0.8508  0.2802
 6827TIP3   OH241895   5.989   6.547  16.611  0.5613  0.2225 -0.9657
 6827TIP3    H141896   5.961   6.570  16.522 -0.9954 -0.1381 -0.5883
 6827TIP3    H241897   6.050   6.475  16.599  1.0004  0.7268 -1.8009
 6828TIP3   OH241898   1.542   5.843  15.642 -0.0154 -0.0011  0.2225
 6828TIP3    H141899   1.604   5.830  15.570 -1.2602  0.9073 -1.0270
 6828TIP3    H241900   1.470   5.783  15.622  1.0508 -2.0923  2.4122
 6829TIP3   OH241901   4.185   6.085   2.362 -0.2233 -0.5246 -0.4619
 6829TIP3    H141902   4.199   6.069   2.455 -1.0516  0.8417 -0.0851
 6829TIP3    H241903   4.271   6.110   2.328 -0.5482  2.2878  0.6532
 6830TIP3   OH241904   1.300   3.828   0.310  0.4235  0.0879 -0.5470
 6830TIP3    H141905   1.226   3.783   0.268  0.2240  0.2149 -0.3320
 6830TIP3    H241906   1.259   3.894   0.365  0.5787 -1.9863  2.1294
 6831TIP3   OH241907   1.448   4.272  12.287  0.4317 -0.9210  0.8494
 6831TIP3    H141908   1.431   4.228  12.371  0.7808 -0.6215  1.0731
 6831TIP3    H241909   1.492   4.353  12.311 -2.0659  0.5760  0.5861
 6832TIP3   OH241910   0.124   6.553   4.708 -0.3772  0.1158 -0.7567
 6832TIP3    H141911   0.055   6.618   4.690  1.1099  2.3235  1.1665
 6832TIP3    H241912   0.204   6.595   4.677  0.4733 -1.2714 -0.4684
 6833TIP3   OH241913   0.420   5.601  10.745  0.0176  0.5580 -0.5267
 6833TIP3    H141914   0.457   5.687  10.726  2.5211  0.0281  1.6012
 6833TIP3    H241915   0.443   5.547  10.670 -1.0826  1.5980 -1.6212
 6834TIP3   OH241916   3.984   3.268   6.216 -0.3132 -0.3826  0.0716
 6834TIP3    H141917   3.969   3.355   6.179  0.5059 -0.9485 -1.6690
 6834TIP3    H241918   3.900   3.242   6.253 -0.9158  0.6121 -0.5845
 6835TIP3   OH241919   4.495   0.330   4.250 -0.1824  0.2857  0.0790
 6835TIP3    H141920   4.547   0.384   4.190 -1.2756  0.1018 -1.0630
 6835TIP3    H241921   4.555   0.261   4.278  0.9042  1.4579  0.7088
 6836TIP3   OH241922   5.738   0.363   2.963  0.2437  0.0836  0.2862
 6836TIP3    H141923   5.823   0.341   3.001  0.0278 -0.1267  0.6492
 6836TIP3    H241924   5.729   0.304   2.889 -0.9418 -2.0560  2.0642
 6837TIP3   OH241925   5.493   1.674   0.261  0.6978 -0.2838 -0.1246
 6837TIP3    H141926   5.462   1.601   0.314  0.5917 -1.0531 -1.2228
 6837TIP3    H241927   5.421   1.737   0.262  1.0178  0.0711  1.3026
 6838TIP3   OH241928   5.831   5.825   3.679 -0.0879  0.1145  0.4203
 6838TIP3    H141929   5.919   5.862   3.677 -0.3513  0.7242 -1.9800
 6838TIP3    H241930   5.775   5.897   3.709  0.1767 -0.1952  1.6895
 6839TIP3   OH241931   6.712   5.935  14.527 -0.1883 -0.8539 -0.2831
 6839TIP3    H141932   6.715   6.000  14.457 -1.7347  0.0910  0.4930
 6839TIP3    H241933   6.652   5.868  14.495 -2.6453  0.6599  0.9774
 6840TIP3   OH241934   6.082   1.048   3.649  0.5196 -0.1571 -0.7722
 6840TIP3    H141935   6.127   1.096   3.578  0.7676  2.8176  1.2926
 6840TIP3    H241936   6.061   0.963   3.610  1.8196  0.8840 -4.0004
 6841TIP3   OH241937   6.469   4.773   3.538  0.1361 -0.1814  0.3641
 6841TIP3    H141938   6.516   4.788   3.455 -1.3930  1.0790 -0.2848
 6841TIP3    H241939   6.434   4.684   3.529  0.5009 -0.2890 -0.0643
 6842TIP3   OH241940   3.240   0.822  13.077  0.6640 -0.1300  0.3823
 6842TIP3    H141941   3.252   0.730  13.101 -1.9345 -0.6428 -0.1289
 6842TIP3    H241942   3.289   0.831  12.995  0.6282 -1.1705  0.2292
 6843TIP3   OH241943   6.081   6.395  12.632  1.0690  0.2518  0.3019
 6843TIP3    H141944   6.040   6.473  12.668  0.9197  1.0323 -1.4598
 6843TIP3    H241945   6.009   6.345  12.594  1.4005  0.3068 -0.4200
 6844TIP3   OH241946   5.597   4.135   4.676  0.9947  0.5753 -0.3654
 6844TIP3    H141947   5.538   4.138   4.751  0.3836 -0.5012 -0.7910
 6844TIP3    H241948   5.637   4.222   4.674  0.2593  0.9518  0.5955
 6845TIP3   OH241949   4.527   1.526  12.299 -0.3687 -0.0673  0.0880
 6845TIP3    H141950   4.442   1.491  12.272 -0.0014  0.5039 -1.8694
 6845TIP3    H241951   4.508   1.616  12.327 -0.4435 -0.0130 -0.1368
 6846TIP3   OH241952   2.347   2.647  13.054 -0.1123  0.0379 -0.1391
 6846TIP3    H141953   2.369   2.731  13.093 -0.6258  0.2884 -0.3778
 6846TIP3    H241954   2.280   2.668  12.989 -1.2027 -0.7400  0.7271
 6847TIP3   OH241955   2.497   1.297  13.469  0.6433  0.4307 -0.3581
 6847TIP3    H141956   2.494   1.260  13.557 -1.8036  0.8125 -0.2633
 6847TIP3    H241957   2.483   1.391  13.481 -2.3556  0.1486 -1.3440
 6848TIP3   OH241958   5.571   0.320  15.952 -0.0599 -0.3501  0.3263
 6848TIP3    H141959   5.476   0.314  15.941  0.0815 -2.3064  0.0673
 6848TIP3    H241960   5.595   0.401  15.907 -1.3309 -0.9470 -1.4940
 6849TIP3   OH241961   2.588   6.301  15.933 -0.2889 -0.0220 -0.7344
 6849TIP3    H141962   2.568   6.208  15.927  0.0839 -0.1538  0.1067
 6849TIP3    H241963   2.577   6.323  16.025  3.1287 -0.0453 -0.2447
 6850TIP3   OH241964   3.106   5.544   4.347 -0.0476  0.0891 -0.7850
 6850TIP3    H141965   3.103   5.554   4.442  1.7052  1.8281 -0.8703
 6850TIP3    H241966   3.033   5.486   4.326  0.1297 -1.1081  1.7216
 6851TIP3   OH241967   6.438   3.219   1.248 -0.0796 -0.3929  0.0261
 6851TIP3    H141968   6.528   3.214   1.217 -0.4907 -0.5779 -1.1584
 6851TIP3    H241969   6.388   3.167   1.185 -1.2980  1.2775 -0.4103
 6852TIP3   OH241970   5.810   1.566   1.248 -0.0987  0.4761  0.2600
 6852TIP3    H141971   5.778   1.551   1.159  1.0434  0.2225 -0.1125
 6852TIP3    H241972   5.771   1.650   1.274 -2.2543 -0.5204  0.3808
 6853TIP3   OH241973   4.825   3.261   6.483  0.0580  0.4101 -0.1590
 6853TIP3    H141974   4.762   3.309   6.537  0.1051  1.1571 -0.7732
 6853TIP3    H241975   4.773   3.223   6.412  0.1814  0.3759 -0.2313
 6854TIP3   OH241976   4.729   2.371   5.037  0.1396 -0.1838  0.4288
 6854TIP3    H141977   4.660   2.343   5.097 -0.1002  0.1663  0.3225
 6854TIP3    H241978   4.810   2.363   5.087 -0.1404  0.8349  1.0559
 6855TIP3   OH241979   0.591   4.105  14.645  0.0518  0.0020 -0.8236
 6855TIP3    H141980   0.650   4.154  14.589  1.2054 -0.3197  0.0781
 6855TIP3    H241981   0.645   4.077  14.719 -1.1366 -0.6186 -0.1552
 6856TIP3   OH241982   1.710   3.495   5.086 -0.0616 -0.6864 -0.4989
 6856TIP3    H141983   1.701   3.453   5.000  0.7992 -1.5138 -0.1961
 6856TIP3    H241984   1.770   3.437   5.134 -3.9245 -2.6906  2.1895
 6857TIP3   OH241985   6.488   5.804   6.052  0.2737 -0.0035  0.2123
 6857TIP3    H141986   6.525   5.746   6.117  1.8818  0.4757 -0.2526
 6857TIP3    H241987   6.458   5.746   5.982  1.1714 -0.3296  0.0924
 6858TIP3   OH241988   1.461   2.096   4.486 -0.4541  0.2674 -0.0108
 6858TIP3    H141989   1.382   2.095   4.432  0.3098 -1.2822 -1.1689
 6858TIP3    H241990   1.465   2.008   4.524  0.0372  0.7444  1.0570
 6859TIP3   OH241991   5.029   0.595  16.695 -0.5189 -0.2709 -0.0546
 6859TIP3    H141992   5.073   0.620  16.614 -0.0539  1.6741  0.7600
 6859TIP3    H241993   5.100   0.574  16.756 -0.8287 -0.5680  0.2115
 6860TIP3   OH241994   3.780   0.933   4.780  0.0946 -0.5216 -0.5020
 6860TIP3    H141995   3.754   0.929   4.872  0.4432 -0.6572 -0.4078
 6860TIP3    H241996   3.787   0.841   4.754 -0.9864 -0.4869 -0.9456
 6861TIP3   OH241997   4.644   1.516   3.952 -0.0323 -0.0736  0.0947
 6861TIP3    H141998   4.569   1.525   4.011 -0.4268 -1.3585 -0.1874
 6861TIP3    H241999   4.645   1.422   3.930 -0.1577  0.4497 -2.2507
 6862TIP3   OH242000   0.154   0.655   1.583  0.2889  0.2187  0.4813
 6862TIP3    H142001   0.196   0.676   1.667 -0.7887 -0.3312  1.1632
 6862TIP3    H242002   0.125   0.564   1.593 -1.0785  0.6043  0.0161
 6863TIP3   OH242003   1.750   2.204   6.081  0.3072  0.3591 -0.4863
 6863TIP3    H142004   1.778   2.113   6.077  0.0657  0.1674  1.4431
 6863TIP3    H242005   1.830   2.255   6.070  0.6622 -0.1097 -0.0901
 6864TIP3   OH242006   6.432   1.995  14.501 -0.4625 -0.0898  0.0705
 6864TIP3    H142007   6.391   2.060  14.445 -0.9898  1.3080  2.0244
 6864TIP3    H242008   6.500   2.043  14.548 -1.6629 -0.6060  2.4428
 6865TIP3   OH242009   2.100   6.364   0.038  0.2600 -0.5460 -0.5154
 6865TIP3    H142010   2.016   6.317   0.035 -0.6605  1.1603 -2.1768
 6865TIP3    H242011   2.141   6.346  -0.046  0.0264  1.3759 -1.0548
 6866TIP3   OH242012   6.394   3.818  15.387  0.1736  0.3219 -0.1645
 6866TIP3    H142013   6.375   3.911  15.376 -2.0312 -0.1288 -0.4236
 6866TIP3    H242014   6.464   3.815  15.453  0.8284  2.1786 -0.7465
 6867TIP3   OH242015   5.937   4.522   5.649  0.3244 -0.1069  0.1013
 6867TIP3    H142016   6.005   4.461   5.677 -0.5816 -0.5496  1.4186
 6867TIP3    H242017   5.910   4.490   5.563  1.4429 -0.2055 -0.2182
 6868TIP3   OH242018   5.361   3.693  13.834  0.2931  0.3852 -0.3500
 6868TIP3    H142019   5.446   3.735  13.815  0.6112 -0.3196 -0.4925
 6868TIP3    H242020   5.315   3.757  13.888  0.6322  1.0836 -0.8749
 6869TIP3   OH242021   3.336   0.303   3.699 -0.1592  0.1117  0.0829
 6869TIP3    H142022   3.280   0.226   3.693  0.8736 -0.7980  1.9224
 6869TIP3    H242023   3.380   0.306   3.614  0.7532 -2.0961  0.4324
 6870TIP3   OH242024   2.274   1.776  14.295 -0.2301  0.8004  0.1342
 6870TIP3    H142025   2.230   1.692  14.308 -1.7825  1.5405 -0.2739
 6870TIP3    H242026   2.220   1.839  14.343  0.4920  1.6919 -0.2191
 6871TIP3   OH242027   5.540   0.182  12.211  0.9338 -0.3794  0.1373
 6871TIP3    H142028   5.461   0.148  12.253  1.1782  2.8048  3.3568
 6871TIP3    H242029   5.611   0.130  12.248  0.6677 -1.4295 -0.7593
 6872TIP3   OH242030   0.841   2.983   6.090 -0.2637  0.0142  0.0731
 6872TIP3    H142031   0.887   3.015   6.167 -0.4791  2.9086 -0.9246
 6872TIP3    H242032   0.846   2.888   6.096  4.1747  0.1969  0.9935
 6873TIP3   OH242033   2.135   3.504   3.566 -0.4101 -0.3294  0.0233
 6873TIP3    H142034   2.138   3.414   3.535  0.1107  0.2756 -1.7292
 6873TIP3    H242035   2.043   3.519   3.589 -1.0825 -0.3903 -2.5117
 6874TIP3   OH242036   5.358   2.088   3.483 -0.4373 -0.4496 -0.2521
 6874TIP3    H142037   5.419   2.035   3.432  2.0593  1.2209  0.9544
 6874TIP3    H242038   5.305   2.134   3.417  0.1388 -1.2875 -1.3083
 6875TIP3   OH242039   5.227   5.013  12.052 -0.3009 -0.1382  0.1855
 6875TIP3    H142040   5.160   4.970  12.106 -0.2607  0.2489  0.5498
 6875TIP3    H242041   5.184   5.093  12.021 -0.7006 -0.9004 -1.2718
 6876TIP3   OH242042   5.567   0.010   2.212 -0.3134  0.1519  0.0589
 6876TIP3    H142043   5.644   0.045   2.257 -0.3484 -1.5656  1.5216
 6876TIP3    H242044   5.497   0.014   2.276 -0.7024 -1.0828 -0.2699
 6877TIP3   OH242045   6.564   6.394  13.996 -0.6882 -0.0035  0.3466
 6877TIP3    H142046   6.616   6.399  13.916 -0.3796 -0.1025  0.5384
 6877TIP3    H242047   6.502   6.466  13.989 -1.3172 -0.6111 -0.4440
 6878TIP3   OH242048   2.292   2.834  14.142  0.2964  0.2833 -0.4617
 6878TIP3    H142049   2.368   2.794  14.101 -0.0700 -0.5487 -0.3378
 6878TIP3    H242050   2.229   2.845  14.070 -0.1123 -0.6110 -0.2489
 6879TIP3   OH242051   0.928   2.899   0.423 -0.1090  0.4846 -0.2021
 6879TIP3    H142052   0.911   2.957   0.349  1.7615  1.4739  0.1106
 6879TIP3    H242053   1.019   2.871   0.410  0.7656  1.8905  2.4917
 6880TIP3   OH242054   5.559   5.901   0.168  0.1740 -0.5455 -0.9854
 6880TIP3    H142055   5.630   5.962   0.148  0.5581 -1.1786 -1.5985
 6880TIP3    H242056   5.599   5.835   0.225 -0.8618  1.1191  1.7347
 6881TIP3   OH242057   2.534   2.147  12.038  0.0842 -0.4626 -0.1038
 6881TIP3    H142058   2.494   2.063  12.013 -2.1068  0.4150  0.3130
 6881TIP3    H242059   2.530   2.200  11.958 -1.3345  0.2619  0.4261
 6882TIP3   OH242060   2.581   5.792   1.696 -0.5582 -0.2004 -0.1170
 6882TIP3    H142061   2.515   5.728   1.723 -1.5697  2.0091  2.8893
 6882TIP3    H242062   2.536   5.852   1.637 -1.4658  1.6482  2.3907
 6883TIP3   OH242063   5.238   3.382   4.090  1.1021  0.1751  0.6512
 6883TIP3    H142064   5.177   3.368   4.162 -0.1169  0.2477 -0.3571
 6883TIP3    H242065   5.307   3.317   4.104  0.2762 -0.5926  1.2096
 6884TIP3   OH242066   3.439   6.336  14.149 -0.3625 -0.0874  0.0856
 6884TIP3    H142067   3.450   6.371  14.061 -0.3533 -0.4567 -0.0622
 6884TIP3    H242068   3.489   6.395  14.205  2.1323 -1.5533 -0.5399
 6885TIP3   OH242069   5.907   2.020   1.111  0.3133  0.1416  1.0808
 6885TIP3    H142070   5.936   1.931   1.132  0.4720  0.0555  0.5081
 6885TIP3    H242071   5.942   2.074   1.182  1.2868 -0.0726  0.7740
 6886TIP3   OH242072   2.939   2.278   3.638  0.4131 -0.3804 -0.2115
 6886TIP3    H142073   2.911   2.217   3.569 -0.0080 -0.2059 -0.1983
 6886TIP3    H242074   2.994   2.225   3.695 -0.1856 -0.8307 -0.0347
 6887TIP3   OH242075   5.429   2.265   3.761 -0.1522 -0.2090 -0.0514
 6887TIP3    H142076   5.396   2.210   3.690 -0.0010 -0.2397 -0.0986
 6887TIP3    H242077   5.524   2.254   3.758 -0.1993 -0.8034  0.6534
 6888TIP3   OH242078   4.643   5.839  11.671 -0.0704 -0.6219  0.1337
 6888TIP3    H142079   4.650   5.762  11.614  1.0140 -0.6754  0.3426
 6888TIP3    H242080   4.706   5.901  11.635  0.5581 -0.6232  1.2288
 6889TIP3   OH242081   3.121   1.033  16.266 -0.2912  0.3565  0.4583
 6889TIP3    H142082   3.103   1.064  16.177  0.9451  0.4203  0.2133
 6889TIP3    H242083   3.101   0.940  16.264  1.4003 -0.0170 -0.4037
 6890TIP3   OH242084   5.014   4.573   1.336 -0.3233  0.1725 -0.0454
 6890TIP3    H142085   4.975   4.576   1.249 -1.5622  2.0541  0.5451
 6890TIP3    H242086   4.978   4.494   1.376  0.0332 -0.5378 -1.1252
 6891TIP3   OH242087   2.109   2.179  13.493  0.4511 -0.7452 -0.2720
 6891TIP3    H142088   2.203   2.198  13.489 -0.1852  2.8365  0.4767
 6891TIP3    H242089   2.071   2.232  13.422 -1.3815  0.5281  1.6094
 6892TIP3   OH242090   1.939   0.228  13.242  0.2215 -0.6963 -0.1446
 6892TIP3    H142091   1.892   0.257  13.321 -0.5229  0.8232 -1.1317
 6892TIP3    H242092   2.029   0.215  13.272 -0.3906 -1.7209  1.3201
 6893TIP3   OH242093   1.630   2.518  11.438  0.5505  0.1373  0.2331
 6893TIP3    H142094   1.612   2.555  11.524  1.2177 -0.8393  0.8092
 6893TIP3    H242095   1.551   2.537  11.387  1.0763  2.7766  0.3309
 6894TIP3   OH242096   2.498   5.772  10.434 -0.0561  0.2381 -0.2955
 6894TIP3    H142097   2.538   5.842  10.383 -0.1959 -0.9726 -2.1491
 6894TIP3    H242098   2.552   5.766  10.513  0.1771  2.1568 -0.2849
 6895TIP3   OH242099   5.401   1.824  16.566  0.3635  0.6385  0.4258
 6895TIP3    H142100   5.457   1.773  16.507  0.4300  1.0895  0.1035
 6895TIP3    H242101   5.337   1.866  16.509  0.2467  0.8409  0.7032
 6896TIP3   OH242102   5.299   4.325  14.073 -0.1846  0.0305  0.0351
 6896TIP3    H142103   5.338   4.322  13.985  0.9919  2.2802  0.4503
 6896TIP3    H242104   5.366   4.289  14.130  0.0419  0.9276  0.3368
 6897TIP3   OH242105   0.711   1.709  11.469  0.3345  0.0392  0.3553
 6897TIP3    H142106   0.715   1.632  11.412 -1.1180  0.8795 -0.9397
 6897TIP3    H242107   0.617   1.726  11.479  0.5373 -0.2293  3.2506
 6898TIP3   OH242108   4.687   0.852  17.163  0.0845 -0.8296  0.0529
 6898TIP3    H142109   4.599   0.822  17.182 -0.3455  0.0484 -0.5070
 6898TIP3    H242110   4.735   0.773  17.140 -0.7183 -1.2324 -0.2416
 6899TIP3   OH242111   4.597   0.753  14.146  0.3055  0.8454 -0.1697
 6899TIP3    H142112   4.558   0.731  14.061  0.6430  0.8325 -0.3224
 6899TIP3    H242113   4.629   0.669  14.179 -0.8793  0.6444  0.5119
 6900TIP3   OH242114   4.135   5.714   1.745 -0.2652 -0.2640  0.3651
 6900TIP3    H142115   4.078   5.710   1.668  1.4778  1.9751 -1.1064
 6900TIP3    H242116   4.116   5.800   1.784  2.0020  0.4659 -0.0902
 6901TIP3   OH242117   4.051   2.370  14.755  0.1134 -0.1579 -0.3283
 6901TIP3    H142118   4.069   2.390  14.847  0.3907 -0.1372 -0.3849
 6901TIP3    H242119   3.956   2.361  14.750  0.0540  0.3570 -0.1426
 6902TIP3   OH242120   4.404   4.781  13.830 -0.1353  0.9332  0.5484
 6902TIP3    H142121   4.334   4.748  13.886 -2.3569  0.5465 -2.3382
 6902TIP3    H242122   4.404   4.722  13.754  0.5277  3.3942 -1.4247
 6903TIP3   OH242123   5.524   3.076   0.283 -0.3345  0.1753  0.4611
 6903TIP3    H142124   5.532   3.109   0.372  0.5591 -0.4617  0.6295
 6903TIP3    H242125   5.489   2.987   0.294 -1.4152  0.5485  0.0978
 6904TIP3   OH242126   4.346   3.134  15.555 -0.0013 -0.1416  0.1477
 6904TIP3    H142127   4.380   3.053  15.592  1.2136  0.3386  0.0825
 6904TIP3    H242128   4.398   3.149  15.477 -0.5561  0.4482 -0.1158
 6905TIP3   OH242129   4.506   2.639   4.012  0.2023 -0.2588  0.5752
 6905TIP3    H142130   4.551   2.718   4.043 -0.2938 -0.1480  1.0028
 6905TIP3    H242131   4.577   2.576   3.998  0.6256  0.3225  0.0312
 6906TIP3   OH242132   4.430   1.442   0.382 -0.0136  0.3804 -0.1377
 6906TIP3    H142133   4.399   1.406   0.298 -1.1732 -0.3701  0.5892
 6906TIP3    H242134   4.351   1.474   0.425  0.6147  1.0261  0.5535
 6907TIP3   OH242135   6.148   4.035   1.968  0.5757 -0.2650 -0.2222
 6907TIP3    H142136   6.135   4.007   2.059 -0.2119 -0.4088 -0.3842
 6907TIP3    H242137   6.242   4.053   1.963  0.5051  0.4116  0.8100
 6908TIP3   OH242138   4.172   4.168  14.805  0.3141  0.3768 -0.0680
 6908TIP3    H142139   4.194   4.177  14.712  0.5073  0.5984 -0.0016
 6908TIP3    H242140   4.077   4.179  14.808  0.1356 -1.0137 -0.4129
 6909TIP3   OH242141   3.836   6.474  11.825  0.2081 -0.2119 -0.4587
 6909TIP3    H142142   3.867   6.387  11.800 -0.2292 -0.4508 -0.1841
 6909TIP3    H242143   3.914   6.529  11.824  0.4989 -0.6257 -0.5634
 6910TIP3   OH242144   5.149   4.067   0.177 -0.5027  0.0987 -0.1317
 6910TIP3    H142145   5.199   3.988   0.199  3.1086  2.2470 -0.3144
 6910TIP3    H242146   5.127   4.057   0.085 -0.6425 -0.9980  0.0165
 6911TIP3   OH242147   5.912   5.021   1.430  0.3422 -0.6030 -0.0798
 6911TIP3    H142148   5.942   4.996   1.517  0.5446  2.1967  0.7029
 6911TIP3    H242149   5.870   5.106   1.442 -0.6294 -0.6824 -2.5323
 6912TIP3   OH242150   5.371   0.046   2.421  0.1482  0.2961  0.0609
 6912TIP3    H142151   5.336   0.130   2.454  2.9213  1.3473  0.4299
 6912TIP3    H242152   5.431   0.017   2.489  0.0177 -1.4871 -0.5647
 6913TIP3   OH242153   4.370   2.322   0.963 -0.0782 -0.3760  0.0510
 6913TIP3    H142154   4.408   2.284   0.883 -0.5211 -0.2623 -0.2161
 6913TIP3    H242155   4.307   2.386   0.931 -1.6827 -1.7108  0.4777
 6914TIP3   OH242156   4.979   2.838   2.376 -0.3665 -0.0147  0.2452
 6914TIP3    H142157   4.976   2.760   2.320  1.2099  0.1894 -0.1426
 6914TIP3    H242158   5.036   2.813   2.449 -0.4096  0.5512  0.4726
 6915TIP3   OH242159   2.699   3.103   2.468  0.2639  0.4004  0.0263
 6915TIP3    H142160   2.684   3.022   2.516 -2.2206  0.3711 -0.7250
 6915TIP3    H242161   2.793   3.118   2.474  0.4440 -1.3790  2.0159
 6916TIP3   OH242162   4.120   0.344   2.724 -0.4443  0.3522  0.0968
 6916TIP3    H142163   4.086   0.284   2.658  0.6944 -1.2873  0.9543
 6916TIP3    H242164   4.050   0.408   2.737 -2.2912 -1.6640  0.2588
 6917TIP3   OH242165   5.567   5.630  12.648 -0.0476 -0.0882 -0.0163
 6917TIP3    H142166   5.600   5.713  12.681 -1.6136  0.2083  0.8502
 6917TIP3    H242167   5.542   5.648  12.557  1.4021 -0.1084 -0.4168
 6918TIP3   OH242168   4.952   0.179   2.498  0.9426  0.5227 -0.0492
 6918TIP3    H142169   5.011   0.196   2.572  0.2769 -2.3068  1.1971
 6918TIP3    H242170   4.874   0.231   2.518  1.6710  1.6321 -0.0047
 6919TIP3   OH242171   2.788   5.212   2.910 -0.0142 -0.6206 -1.0207
 6919TIP3    H142172   2.712   5.256   2.948 -0.0622  0.2115 -2.0495
 6919TIP3    H242173   2.833   5.174   2.985  0.2770  1.5810 -0.0178
 6920TIP3   OH242174   0.589   0.927  10.137  0.0545 -0.4787 -0.2806
 6920TIP3    H142175   0.515   0.956  10.191  0.4934  1.2362 -0.5582
 6920TIP3    H242176   0.591   0.832  10.148 -2.2845 -0.5774 -0.3977
 6921TIP3   OH242177   0.368   3.332  12.615  0.0558 -0.0248 -0.3046
 6921TIP3    H142178   0.308   3.304  12.684 -0.6260  1.5114 -0.2355
 6921TIP3    H242179   0.451   3.348  12.659 -0.2318  0.4432  0.0659
 6922TIP3   OH242180   0.620   1.366   4.573 -0.4995  0.2775 -0.2124
 6922TIP3    H142181   0.694   1.355   4.634 -2.0189  1.5448  1.9247
 6922TIP3    H242182   0.649   1.323   4.493  2.5389  0.6541  0.6103
 6923TIP3   OH242183   2.563   2.409   2.048 -0.2069  0.1550  0.6125
 6923TIP3    H142184   2.586   2.502   2.037 -0.8765  0.2967  0.4141
 6923TIP3    H242185   2.481   2.399   2.001  0.4221 -0.7906 -0.2925
 6924TIP3   OH242186   1.555   6.335   6.538 -0.2245  0.0323  0.2465
 6924TIP3    H142187   1.469   6.312   6.502 -0.7804  2.8996 -0.4442
 6924TIP3    H242188   1.605   6.254   6.537 -2.2015 -1.1981 -1.4823
 6925TIP3   OH242189   2.629   2.415   2.349  0.3302 -0.1127  0.2335
 6925TIP3    H142190   2.564   2.354   2.383  0.2510  0.8583  1.8372
 6925TIP3    H242191   2.614   2.414   2.254 -2.0375  0.0991  0.5678
 6926TIP3   OH242192   4.433   0.840   2.667 -0.3021  0.4979 -0.1991
 6926TIP3    H142193   4.496   0.901   2.630  1.3986 -1.4662 -0.6464
 6926TIP3    H242194   4.439   0.854   2.761  2.4582 -1.1430 -0.0637
 6927TIP3   OH242195   0.164   0.114   4.029 -0.0716 -0.1140 -0.5841
 6927TIP3    H142196   0.127   0.178   4.089 -0.5254 -1.5833  0.7631
 6927TIP3    H242197   0.103   0.111   3.956 -0.6958  0.1304 -0.0800
 6928TIP3   OH242198   0.720   5.548   1.596  0.2483  0.7033 -0.4227
 6928TIP3    H142199   0.652   5.483   1.614  1.5600 -0.1572  1.6960
 6928TIP3    H242200   0.794   5.496   1.565  0.7341  1.3758 -0.3929
 6929TIP3   OH242201   1.961   0.757  17.090 -0.0390  0.4538  0.6079
 6929TIP3    H142202   2.022   0.685  17.075 -0.4679 -0.1031  1.4531
 6929TIP3    H242203   1.876   0.722  17.062  0.1972  1.6346 -1.7023
 6930TIP3   OH242204   4.821   3.004  11.748 -0.3530  0.2092 -0.7794
 6930TIP3    H142205   4.811   3.061  11.825  1.8384  1.0396 -1.0828
 6930TIP3    H242206   4.764   3.043  11.682 -1.7328 -0.1257  0.1740
 6931TIP3   OH242207   0.935   6.223   1.002 -0.1551  0.1213  0.4766
 6931TIP3    H142208   0.873   6.227   1.075 -0.1460 -1.5327  0.6039
 6931TIP3    H242209   0.986   6.144   1.019  2.0973  1.5362  0.4332
 6932TIP3   OH242210   3.723   4.951  14.719 -0.3160 -0.2246  0.5928
 6932TIP3    H142211   3.658   4.901  14.769  1.8204 -2.0197  1.6498
 6932TIP3    H242212   3.737   4.899  14.639 -2.8914  2.0652 -1.4521
 6933TIP3   OH242213   6.520   6.425   3.157  0.5900  0.2003 -0.2730
 6933TIP3    H142214   6.513   6.498   3.095  1.7782 -0.5473 -1.3048
 6933TIP3    H242215   6.434   6.422   3.199  0.3330  1.8205 -0.6265
 6934TIP3   OH242216   0.075   4.108   1.718  0.1600 -0.8935 -0.2248
 6934TIP3    H142217  -0.014   4.143   1.714  0.2079 -0.7816 -0.3324
 6934TIP3    H242218   0.131   4.185   1.730  0.3933 -0.7541 -1.9396
 6935TIP3   OH242219   3.544   4.887  12.117  0.0712  0.2379 -0.0931
 6935TIP3    H142220   3.616   4.943  12.091  1.4286 -2.0959 -1.4792
 6935TIP3    H242221   3.483   4.889  12.043 -0.5781  0.9686  0.4417
 6936TIP3   OH242222   6.353   2.488   3.952  0.3404  0.1857 -0.4070
 6936TIP3    H142223   6.351   2.530   4.038 -2.9899  2.4343 -1.4940
 6936TIP3    H242224   6.287   2.419   3.958 -2.6936  2.7951 -2.2343
 6937TIP3   OH242225   1.475   5.977   3.895 -0.1886 -0.4954 -0.2744
 6937TIP3    H142226   1.436   6.053   3.938 -0.0000 -0.8210  0.4929
 6937TIP3    H242227   1.569   5.992   3.902 -0.1597  0.1182 -1.8095
 6938TIP3   OH242228   0.065   0.361  16.832 -0.1880 -0.4368  0.2531
 6938TIP3    H142229   0.004   0.358  16.758 -0.7071  0.0596  0.6450
 6938TIP3    H242230   0.068   0.271  16.864 -0.7536 -0.4610  0.2497
 6939TIP3   OH242231   1.778   2.518   1.197  0.3267 -0.0199  0.6613
 6939TIP3    H142232   1.766   2.424   1.202  0.1482 -0.1411 -1.6197
 6939TIP3    H242233   1.748   2.551   1.282 -1.1959 -1.8564  0.8675
 6940TIP3   OH242234   0.199   3.581  15.537 -0.0320 -0.0966 -0.6712
 6940TIP3    H142235   0.177   3.610  15.449  1.4291  1.1449 -0.6291
 6940TIP3    H242236   0.235   3.658  15.581 -0.2648 -0.8212  0.8566
 6941TIP3   OH242237   6.329   5.072   2.062 -0.4081 -0.1084 -0.5590
 6941TIP3    H142238   6.349   5.142   2.000  1.7530  0.7031  0.9791
 6941TIP3    H242239   6.367   4.993   2.022  0.6035  0.3333 -0.4889
 6942TIP3   OH242240   1.450   0.827  12.579  0.1061 -0.0946 -0.4529
 6942TIP3    H142241   1.417   0.893  12.517 -2.3659  0.4128  1.3345
 6942TIP3    H242242   1.433   0.744  12.535  0.0486  0.3108 -1.2245
 6943TIP3   OH242243   3.872   2.826   2.230  0.1598 -0.4510 -0.1752
 6943TIP3    H142244   3.945   2.819   2.291  0.0347  0.1926  0.0499
 6943TIP3    H242245   3.912   2.813   2.144  0.3816 -1.0502  0.0099
 6944TIP3   OH242246   1.599   1.583  12.407  0.3702  0.4707 -0.6052
 6944TIP3    H142247   1.606   1.520  12.335 -0.4391 -0.3831  0.0655
 6944TIP3    H242248   1.683   1.630  12.405  1.2143 -1.0120 -0.7322
 6945TIP3   OH242249   0.507   5.631  16.482 -0.5664  0.1980 -0.2153
 6945TIP3    H142250   0.559   5.585  16.547 -1.9611 -1.6874 -0.4053
 6945TIP3    H242251   0.555   5.712  16.466  0.3778  0.1872  2.3156
 6946TIP3   OH242252   5.492   1.585   1.444  0.4035  0.6830 -0.2699
 6946TIP3    H142253   5.421   1.531   1.479  1.8526 -1.4414 -0.4901
 6946TIP3    H242254   5.469   1.599   1.352 -0.9095  2.0569  0.2417
 6947TIP3   OH242255   1.904   2.373   1.657  0.0562 -0.6967 -0.1063
 6947TIP3    H142256   1.919   2.281   1.637  0.1256 -0.5932 -0.5250
 6947TIP3    H242257   1.936   2.384   1.747  2.4099 -0.5065 -0.9289
 6948TIP3   OH242258   5.565   0.455   5.559 -0.3339  0.2881 -0.5198
 6948TIP3    H142259   5.507   0.381   5.540 -0.2013  0.1912 -0.5528
 6948TIP3    H242260   5.651   0.414   5.573 -0.2804  0.4276 -0.4433
 6949TIP3   OH242261   3.924   4.956  15.311  1.0684  0.4579 -0.7937
 6949TIP3    H142262   3.864   4.983  15.242  0.6585 -2.2419 -1.5428
 6949TIP3    H242263   4.011   4.955  15.269  0.7376 -1.7697 -1.4802
 6950TIP3   OH242264   2.784   4.524  16.319  0.5585 -0.2334 -0.4086
 6950TIP3    H142265   2.717   4.523  16.388  1.1766  1.0793  0.2344
 6950TIP3    H242266   2.767   4.445  16.268 -0.8317 -0.4596  0.3714
 6951TIP3   OH242267   5.235   5.749   0.333  0.7083 -0.4799 -0.0284
 6951TIP3    H142268   5.249   5.790   0.248  1.6116  1.2936  0.9542
 6951TIP3    H242269   5.155   5.698   0.322 -0.1770  1.1470 -1.4329
 6952TIP3   OH242270   5.993   5.370   0.677  0.1262 -0.6366 -0.1746
 6952TIP3    H142271   5.943   5.328   0.747 -0.7624 -2.4169 -1.8203
 6952TIP3    H242272   6.016   5.299   0.618  1.9826  0.6453 -1.0291
 6953TIP3   OH242273   0.996   0.719   1.266 -0.5705 -0.3414  0.5566
 6953TIP3    H142274   1.077   0.755   1.229 -0.0968  0.4098  2.3111
 6953TIP3    H242275   0.927   0.751   1.208  0.3282 -0.6083 -0.6883
 6954TIP3   OH242276   2.859   2.030  12.388  0.3219  0.2908  0.1672
 6954TIP3    H142277   2.819   1.965  12.446  1.5468  0.9429  1.8114
 6954TIP3    H242278   2.912   1.978  12.328 -0.3416 -0.3563  0.1247
 6955TIP3   OH242279   1.080   4.282   2.215 -0.8415 -0.6326 -0.1169
 6955TIP3    H142280   1.061   4.248   2.302 -1.8697  0.1476 -0.0374
 6955TIP3    H242281   1.076   4.205   2.158 -0.6149 -1.0687  0.4508
 6956TIP3   OH242282   3.953   6.021  15.220 -0.0661  0.3303  0.1884
 6956TIP3    H142283   3.880   6.059  15.172  0.4249  0.5241 -0.4204
 6956TIP3    H242284   3.976   5.943  15.170  0.6865  0.7350 -0.1082
 6957TIP3   OH242285   4.012   5.197  15.442  0.0498 -0.4836 -0.2392
 6957TIP3    H142286   3.927   5.213  15.400  0.3337 -0.4765 -0.8058
 6957TIP3    H242287   4.046   5.119  15.399 -0.0383 -0.9779  0.5675
 6958TIP3   OH242288   3.979   3.611   5.428 -0.1291  0.0763 -0.4780
 6958TIP3    H142289   4.072   3.617   5.405 -0.0907  1.4309 -0.0354
 6958TIP3    H242290   3.965   3.684   5.488 -1.0545 -1.2253  0.9350
 6959TIP3   OH242291   1.729   5.907   4.891  0.0908  0.2393 -0.2691
 6959TIP3    H142292   1.702   5.971   4.958 -0.5259 -0.3000  0.0064
 6959TIP3    H242293   1.648   5.886   4.845  0.2854 -0.3772 -0.3317
 6960TIP3   OH242294   6.080   3.551   5.776 -0.0242 -0.1577 -0.0582
 6960TIP3    H142295   6.024   3.620   5.811  0.3167  1.0082 -1.7825
 6960TIP3    H242296   6.028   3.471   5.785 -1.6847  0.8000 -0.9676
 6961TIP3   OH242297   1.641   1.678  11.985  0.4189 -0.3926 -0.2693
 6961TIP3    H142298   1.634   1.770  11.963  0.0151 -0.7159 -1.5528
 6961TIP3    H242299   1.701   1.642  11.919  2.6740 -0.5364  1.8068
 6962TIP3   OH242300   4.855   3.659   3.326 -0.0555  0.0779 -0.9633
 6962TIP3    H142301   4.886   3.742   3.290  0.7587  0.6260  0.9565
 6962TIP3    H242302   4.763   3.654   3.298 -0.3805  2.0723 -0.3586
 6963TIP3   OH242303   3.686   0.332   5.389 -0.4628  0.9170  0.4322
 6963TIP3    H142304   3.636   0.327   5.471 -1.1838 -3.4199 -0.1665
 6963TIP3    H242305   3.711   0.241   5.371 -0.2223  1.8020 -4.0976
 6964TIP3   OH242306   1.042   0.481  16.265 -0.2773  0.2745  0.5660
 6964TIP3    H142307   1.033   0.500  16.358  1.1222 -1.5456  1.0902
 6964TIP3    H242308   0.973   0.419  16.245  1.1674 -1.5184  1.0461
 6965TIP3   OH242309   4.448   0.252  14.814  0.4756 -0.2595  0.2762
 6965TIP3    H142310   4.427   0.214  14.900 -1.1898 -2.1656 -0.9379
 6965TIP3    H242311   4.541   0.237  14.803  0.7389  0.1530  1.8298
 6966TIP3   OH242312   1.877   2.370   2.409 -0.1855 -0.4167  0.1277
 6966TIP3    H142313   1.887   2.289   2.358 -0.4694 -0.0781 -0.4671
 6966TIP3    H242314   1.953   2.370   2.467  0.8184 -0.1857 -1.1627
 6967TIP3   OH242315   1.141   6.263  14.462 -0.3889  0.5647 -0.0155
 6967TIP3    H142316   1.051   6.246  14.434 -0.4358 -2.4057  1.7013
 6967TIP3    H242317   1.132   6.309  14.545 -0.3208  1.6495 -0.6122
 6968TIP3   OH242318   2.576   4.039   1.116  0.2105 -0.3417  0.1104
 6968TIP3    H142319   2.574   4.109   1.182  0.2194 -0.4810  0.2599
 6968TIP3    H242320   2.622   3.967   1.159  1.2997 -0.0085 -0.4770
 6969TIP3   OH242321   4.496   0.466  15.162 -0.3230 -0.0634 -0.5785
 6969TIP3    H142322   4.563   0.401  15.183  0.8237  1.9405  2.3622
 6969TIP3    H242323   4.424   0.446  15.221  0.0107  1.2464  0.2955
 6970TIP3   OH242324   6.108   1.695   0.156 -0.2316 -0.7942  0.3224
 6970TIP3    H142325   6.193   1.706   0.198  0.6168 -1.5728 -1.1592
 6970TIP3    H242326   6.128   1.661   0.069 -1.8820  1.9918 -1.2068
 6971TIP3   OH242327   0.454   5.336   2.669  0.0756  0.0096 -0.1536
 6971TIP3    H142328   0.525   5.328   2.606  0.3459 -1.5570  0.3314
 6971TIP3    H242329   0.378   5.298   2.626 -0.4571  1.5519 -0.6151
 6972TIP3   OH242330   4.095   5.650  16.856 -0.1096  0.4773  0.1730
 6972TIP3    H142331   4.013   5.665  16.810  0.3882 -0.2121 -0.9701
 6972TIP3    H242332   4.102   5.555  16.864  0.5367  0.5277  0.3018
 6973TIP3   OH242333   1.380   2.786   4.069  0.1044  0.8139 -0.0281
 6973TIP3    H142334   1.391   2.738   4.151  0.0740 -1.2600 -1.1895
 6973TIP3    H242335   1.469   2.799   4.036  0.0443  0.2556 -0.4226
 6974TIP3   OH242336   2.558   1.841  12.268  0.1125  0.4002  0.0858
 6974TIP3    H142337   2.525   1.798  12.346  1.2425  1.2610  1.0511
 6974TIP3    H242338   2.570   1.933  12.294  2.7663  0.2173 -0.3647
 6975TIP3   OH242339   1.362   3.451   2.578 -0.4068 -0.1989  0.2664
 6975TIP3    H142340   1.354   3.445   2.483 -3.1618  1.6736  0.3254
 6975TIP3    H242341   1.311   3.377   2.611  1.4277 -1.4763  0.3057
 6976TIP3   OH242342   3.168   3.420   1.284 -0.5437 -0.8776 -0.2748
 6976TIP3    H142343   3.227   3.438   1.357 -0.3018 -0.5232 -0.5519
 6976TIP3    H242344   3.218   3.446   1.207 -1.2730 -0.0375 -0.4664
 6977TIP3   OH242345   6.370   4.222  16.536 -0.0631  0.1438  0.3240
 6977TIP3    H142346   6.414   4.164  16.598 -0.7111  0.0671  0.7229
 6977TIP3    H242347   6.426   4.299  16.530  1.0393 -0.7205 -0.5618
 6978TIP3   OH242348   2.476   6.442   0.085  0.6021  0.2294 -0.3116
 6978TIP3    H142349   2.397   6.490   0.111 -0.2577 -1.3665  0.0987
 6978TIP3    H242350   2.500   6.480   0.000 -0.2947  1.1034 -0.1852
 6979TIP3   OH242351   3.445   2.417  15.242  0.4495 -0.7154 -0.6455
 6979TIP3    H142352   3.399   2.409  15.159  1.6323 -1.1266 -1.2738
 6979TIP3    H242353   3.419   2.502  15.277 -2.2935 -1.7436 -0.0498
 6980TIP3   OH242354   0.308   3.194  13.834  0.0079  0.2785 -0.3520
 6980TIP3    H142355   0.343   3.122  13.783  1.1419  1.0916 -0.7268
 6980TIP3    H242356   0.338   3.273  13.790 -4.0618  1.0557 -1.9569
 6981TIP3   OH242357   6.118   0.452  12.472  0.2391 -0.3572  0.1455
 6981TIP3    H142358   6.212   0.466  12.476  0.5259 -1.7994 -1.2580
 6981TIP3    H242359   6.105   0.392  12.399 -1.9009  1.0337 -0.7014
 6982TIP3   OH242360   3.245   1.378  12.497  0.3850 -0.3585 -0.2045
 6982TIP3    H142361   3.283   1.387  12.584 -0.1777 -3.0482  0.3499
 6982TIP3    H242362   3.288   1.300  12.460  0.7140  0.8067 -2.4043
 6983TIP3   OH242363   0.667   4.479  15.999  0.2387  0.1495  0.0822
 6983TIP3    H142364   0.603   4.440  15.939  0.8274  1.8211 -1.6851
 6983TIP3    H242365   0.619   4.490  16.082 -1.7054  1.1567 -1.1368
 6984TIP3   OH242366   5.280   4.567  13.347  0.1798 -0.6787  0.1177
 6984TIP3    H142367   5.218   4.596  13.414  1.4543  0.5478  0.7854
 6984TIP3    H242368   5.231   4.504  13.295 -1.9138  0.9525  0.0686
 6985TIP3   OH242369   4.642   6.308  15.345  0.3391  0.1970 -0.9483
 6985TIP3    H142370   4.613   6.217  15.349  1.0399 -0.0029 -0.1286
 6985TIP3    H242371   4.652   6.333  15.437 -0.8410  1.4284 -1.1481
 6986TIP3   OH242372   1.656   2.632  15.763  0.8343 -0.2509  0.1179
 6986TIP3    H142373   1.740   2.624  15.717  0.4782 -2.6368 -0.1779
 6986TIP3    H242374   1.590   2.629  15.693  0.4155 -0.8968  0.5280
 6987TIP3   OH242375   4.475   0.698  13.903  0.4172  0.1153  0.5917
 6987TIP3    H142376   4.495   0.759  13.831  0.8865 -0.0876  0.5516
 6987TIP3    H242377   4.392   0.658  13.877  0.0479  0.8250  0.6739
 6988TIP3   OH242378   5.442   3.340  13.405 -0.5124  0.3570 -0.4752
 6988TIP3    H142379   5.441   3.403  13.333 -0.0586 -0.2465 -1.0197
 6988TIP3    H242380   5.487   3.385  13.476  0.0783  0.5439 -0.9633
 6989TIP3   OH242381   5.790   1.630   2.232  0.2564 -0.0596 -0.5952
 6989TIP3    H142382   5.869   1.611   2.283 -1.6201 -0.4438  2.2459
 6989TIP3    H242383   5.756   1.712   2.270 -2.4648 -1.6101  0.4428
 6990TIP3   OH242384   2.884   5.252  12.377  0.6474 -0.0360  0.6979
 6990TIP3    H142385   2.842   5.227  12.295  0.6577 -1.8868  1.2357
 6990TIP3    H242386   2.970   5.284  12.351  1.6309 -2.9343  0.1248
 6991TIP3   OH242387   2.289   4.060  11.042  0.7891  0.2497 -0.3410
 6991TIP3    H142388   2.294   4.001  10.967  1.4383  0.4671 -0.4665
 6991TIP3    H242389   2.195   4.075  11.054  0.6568 -0.2134 -0.7695
 6992TIP3   OH242390   1.178   5.694   5.122  0.3377  0.0331  0.4387
 6992TIP3    H142391   1.093   5.731   5.096 -0.4018 -1.7327  0.2077
 6992TIP3    H242392   1.233   5.702   5.044 -0.3017 -0.7173 -0.1040
 6993TIP3   OH242393   1.121   0.122   1.588 -0.0069  0.4037 -0.1073
 6993TIP3    H142394   1.035   0.083   1.604 -0.2852  0.4407 -1.4399
 6993TIP3    H242395   1.131   0.188   1.657 -0.5187 -0.4363  0.7849
 6994TIP3   OH242396   2.926   3.547  14.141 -0.1496  0.0800 -0.0935
 6994TIP3    H142397   2.899   3.455  14.140 -1.9121  0.5678  0.4427
 6994TIP3    H242398   2.934   3.569  14.234  0.3233  0.4627 -0.2193
 6995TIP3   OH242399   1.814   3.221  12.944 -0.5560  0.2802  0.5143
 6995TIP3    H142400   1.888   3.281  12.940 -0.7542  0.4894 -0.0339
 6995TIP3    H242401   1.847   3.146  12.993  0.0528  0.3240  0.1774
 6996TIP3   OH242402   4.299   0.448  13.079  0.3466 -0.0251  0.2901
 6996TIP3    H142403   4.364   0.518  13.083 -0.7172  1.0448 -0.8162
 6996TIP3    H242404   4.215   0.493  13.083 -0.3369 -1.3925  1.5685
 6997TIP3   OH242405   2.810   4.103  16.967 -0.4478 -0.8326 -0.0786
 6997TIP3    H142406   2.758   4.024  16.975  0.3986 -1.3747  0.1097
 6997TIP3    H242407   2.798   4.148  17.051  1.3731 -2.1967  0.9626
 6998TIP3   OH242408   0.708   1.831   4.100 -0.0019  0.5781  1.2252
 6998TIP3    H142409   0.633   1.806   4.046  0.9867  0.9596 -0.3237
 6998TIP3    H242410   0.709   1.927   4.098  2.0889  0.5418 -0.9421
 6999TIP3   OH242411   3.916   2.102  13.913 -0.1746 -0.0719 -0.0839
 6999TIP3    H142412   3.940   2.187  13.877 -0.6016 -0.6860 -1.8287
 6999TIP3    H242413   3.946   2.039  13.848 -2.2920 -1.1101 -0.0806
 7000TIP3   OH242414   3.034   1.208  12.555  0.6235 -0.3642 -0.2267
 7000TIP3    H142415   3.104   1.158  12.597  0.6120 -0.5672 -0.4470
 7000TIP3    H242416   3.075   1.289  12.527  0.9390 -0.7891 -1.0008
 7001TIP3   OH242417   5.965   5.688   4.550  0.3209 -0.0503  0.3041
 7001TIP3    H142418   6.034   5.689   4.616  1.1954 -2.4137 -0.5042
 7001TIP3    H242419   5.895   5.635   4.589 -0.3331  0.9083  0.4408
 7002TIP3   OH242420   6.769   3.237  13.427 -0.2923  0.0109 -0.2002
 7002TIP3    H142421   6.728   3.155  13.398  0.6008 -0.7557  0.6600
 7002TIP3    H242422   6.753   3.240  13.521 -0.7715  1.0984 -0.3131
 7003TIP3   OH242423   6.586   0.905  11.729 -0.8268  0.4752 -0.3305
 7003TIP3    H142424   6.664   0.885  11.780 -1.5334 -1.0695  0.1780
 7003TIP3    H242425   6.620   0.924  11.641  0.0965 -0.8105 -0.2803
 7004TIP3   OH242426   2.193   0.577   0.764  0.3508 -0.1384  0.9499
 7004TIP3    H142427   2.150   0.591   0.679  0.7239 -2.3422  0.3829
 7004TIP3    H242428   2.285   0.593   0.748  0.7498 -2.8555  0.3517
 7005TIP3   OH242429   3.797   1.667  15.192 -0.7850  0.0182  0.3011
 7005TIP3    H142430   3.851   1.745  15.191 -0.9326  0.1766  2.1675
 7005TIP3    H242431   3.838   1.608  15.129  0.0074  1.1408 -0.2431
 7006TIP3   OH242432   2.090   1.444   4.825  0.6100 -0.4149 -0.7269
 7006TIP3    H142433   2.121   1.409   4.908  0.4927 -0.7509 -0.8245
 7006TIP3    H242434   2.140   1.397   4.758  1.1866  0.3312 -0.8277
 7007TIP3   OH242435   3.571   3.218   4.884  0.0420  0.4945  0.3847
 7007TIP3    H142436   3.592   3.310   4.865  1.5338 -0.0368 -0.6147
 7007TIP3    H242437   3.651   3.171   4.864 -1.7180 -1.4606 -2.3601
 7008TIP3   OH242438   4.916   1.960  12.303 -0.0945  0.2668  0.5903
 7008TIP3    H142439   4.845   1.942  12.365 -0.3834  0.5985  0.3540
 7008TIP3    H242440   4.917   1.884  12.245 -2.5365  1.7924 -1.5719
 7009TIP3   OH242441   3.414   4.098  15.644  0.5124 -0.7229 -0.8176
 7009TIP3    H142442   3.436   4.191  15.643  0.4279 -0.7080 -1.2073
 7009TIP3    H242443   3.396   4.079  15.736  2.6274 -0.8391 -0.3894
 7010TIP3   OH242444   1.559   3.591  14.558  0.4438  0.5292  0.2707
 7010TIP3    H142445   1.600   3.677  14.558  2.1947 -0.2622 -0.7522
 7010TIP3    H242446   1.607   3.541  14.625 -0.5155  0.3255  0.8186
 7011TIP3   OH242447   1.845   0.326   0.787  0.0670 -0.2721  0.2482
 7011TIP3    H142448   1.941   0.320   0.787  0.0547 -0.5635  1.0958
 7011TIP3    H242449   1.827   0.406   0.838 -0.1290  0.0854 -0.3752
 7012TIP3   OH242450   2.679   2.626   0.293 -0.2369  0.3060 -0.4696
 7012TIP3    H142451   2.649   2.560   0.231  0.4789  0.7603 -1.3040
 7012TIP3    H242452   2.714   2.697   0.239  1.6523  0.1115  0.4646
 7013TIP3   OH242453   5.139   4.919  12.737 -0.0479 -0.8268  0.4061
 7013TIP3    H142454   5.056   4.871  12.742 -1.1318  0.8578 -0.6985
 7013TIP3    H242455   5.170   4.922  12.827 -2.5520  0.8004  1.2856
 7014TIP3   OH242456   4.495   3.341  13.637  0.0722  0.3719  0.3630
 7014TIP3    H142457   4.554   3.416  13.635 -0.2540  0.6377  0.5519
 7014TIP3    H242458   4.465   3.332  13.547  0.3618  0.2658  0.2781
 7015TIP3   OH242459   0.158   2.780  15.486 -0.7441  0.1394  0.0242
 7015TIP3    H142460   0.115   2.729  15.417  0.1820  0.4786 -0.8258
 7015TIP3    H242461   0.184   2.715  15.551  2.0034 -0.7728 -1.8721
 7016TIP3   OH242462   0.567   5.861  17.110  0.4331  0.2972  0.0190
 7016TIP3    H142463   0.531   5.884  17.195 -0.4403 -1.1475  0.0675
 7016TIP3    H242464   0.653   5.902  17.108  0.6707 -0.0716  1.7988
 7017TIP3   OH242465   3.789   3.340   1.414 -0.1219 -0.5825 -0.3528
 7017TIP3    H142466   3.709   3.290   1.395  0.2245 -0.6297 -1.7255
 7017TIP3    H242467   3.759   3.430   1.423 -0.4153 -0.6860 -0.2603
 7018TIP3   OH242468   5.807   4.809  14.321  0.3815  0.5566 -0.1935
 7018TIP3    H142469   5.843   4.884  14.369 -1.1986  0.6777  0.8082
 7018TIP3    H242470   5.728   4.843  14.279  0.1875 -0.3017 -0.5301
 7019TIP3   OH242471   6.465   0.655  12.476 -0.2777 -0.6360  0.1441
 7019TIP3    H142472   6.497   0.571  12.444 -1.4297 -0.6256 -1.0736
 7019TIP3    H242473   6.487   0.717  12.406 -0.4534 -0.1236  0.5392
 7020TIP3   OH242474   3.242   6.247   2.752 -0.5919 -0.0162  0.4854
 7020TIP3    H142475   3.251   6.181   2.682 -0.8990  0.7462 -0.2831
 7020TIP3    H242476   3.159   6.290   2.733  0.0125  1.1634  0.5038
 7021TIP3   OH242477   4.179   0.554  15.934 -0.4859  0.1965  0.0927
 7021TIP3    H142478   4.115   0.612  15.895  1.6592  2.5257 -0.0942
 7021TIP3    H242479   4.241   0.612  15.978  0.1815 -2.1000  2.2801
 7022TIP3   OH242480   2.454   0.022   3.781 -0.5758  0.1528 -0.0220
 7022TIP3    H142481   2.536   0.065   3.756  0.4550 -0.6211  1.9047
 7022TIP3    H242482   2.473  -0.072   3.773 -0.8449 -0.0635  1.5992
 7023TIP3   OH242483   2.754   3.037  13.916  0.3521  0.5862  0.0637
 7023TIP3    H142484   2.696   2.988  13.857  0.7645  0.4056 -0.1962
 7023TIP3    H242485   2.761   2.982  13.994  2.3244 -0.6961 -0.9652
 7024TIP3   OH242486   6.735   0.922   1.900 -0.6218 -0.2771  0.1243
 7024TIP3    H142487   6.681   0.992   1.936 -0.2098  0.4679 -0.6940
 7024TIP3    H242488   6.780   0.962   1.825  1.4712 -0.7123  1.0985
 7025TIP3   OH242489   2.029   5.897  15.903  0.1836  0.2152 -0.5716
 7025TIP3    H142490   2.095   5.834  15.931 -1.2047 -1.5146 -1.1361
 7025TIP3    H242491   1.983   5.853  15.831 -1.4816  1.4617 -0.2809
 7026TIP3   OH242492   3.424   2.769   2.488 -0.3593  0.4379  0.5784
 7026TIP3    H142493   3.360   2.839   2.497 -1.0230  0.0111 -0.6974
 7026TIP3    H242494   3.506   2.806   2.522 -0.9124  1.5075  0.7483
 7027TIP3   OH242495   5.960   3.663   4.815  0.0307 -1.0841  0.4027
 7027TIP3    H142496   6.040   3.646   4.765 -1.5834 -1.7230 -2.0531
 7027TIP3    H242497   5.962   3.757   4.832  2.7534 -1.5295  3.0249
 7028TIP3   OH242498   1.950   3.382   5.495  0.3088 -0.2331  0.0914
 7028TIP3    H142499   1.940   3.467   5.539 -1.1750 -1.0189  1.3072
 7028TIP3    H242500   1.987   3.325   5.562 -2.6870 -1.6422  0.6255
 7029TIP3   OH242501   1.297   4.473   5.686  0.3066  0.2991  0.0025
 7029TIP3    H142502   1.333   4.391   5.721  0.3874  0.6382  0.7212
 7029TIP3    H242503   1.287   4.529   5.763 -2.0568  0.1007 -0.1427
 7030TIP3   OH242504   2.414   4.681   1.187 -0.1654 -0.1289  0.2394
 7030TIP3    H142505   2.439   4.719   1.271 -0.7470 -0.2669  0.4760
 7030TIP3    H242506   2.329   4.720   1.167  0.4933  0.7834 -0.8494
 7031TIP3   OH242507   2.753   1.971  16.685  0.0455 -0.2277  0.2223
 7031TIP3    H142508   2.840   2.008  16.667  0.2128 -0.8504 -0.2554
 7031TIP3    H242509   2.692   2.033  16.644  0.2548  0.2872  0.6840
 7032TIP3   OH242510   2.203   1.945   3.435 -0.3429  0.8451 -0.7501
 7032TIP3    H142511   2.282   1.955   3.383  2.2655  0.2025  2.8589
 7032TIP3    H242512   2.164   1.863   3.405  0.3689  1.1278 -2.4954
 7033TIP3   OH242513   6.297   2.579  14.720  0.0520 -0.6745  0.2805
 7033TIP3    H142514   6.304   2.636  14.797  0.6048 -1.1879  0.6175
 7033TIP3    H242515   6.203   2.576  14.701 -0.1721 -1.1264  1.3938
 7034TIP3   OH242516   3.565   1.318   0.763 -0.6373  0.2118 -0.2478
 7034TIP3    H142517   3.625   1.245   0.777 -0.0389  0.2682 -2.4218
 7034TIP3    H242518   3.478   1.281   0.779 -0.3210 -0.9339 -1.1260
 7035TIP3   OH242519   4.650   3.985  16.953  0.3691  0.5060  0.1464
 7035TIP3    H142520   4.653   4.077  16.979 -0.9890  0.3912  0.7265
 7035TIP3    H242521   4.562   3.955  16.977  0.0775 -0.3957 -1.9552
 7036TIP3   OH242522   6.490   0.579   3.665  0.6428 -0.1188 -0.1641
 7036TIP3    H142523   6.429   0.534   3.725  0.5869  0.9032  0.5551
 7036TIP3    H242524   6.466   0.546   3.579  0.8751 -1.7966  0.3819
 7037TIP3   OH242525   4.213   0.504   1.175  0.7611  0.5230 -0.1523
 7037TIP3    H142526   4.193   0.528   1.266 -1.4480  0.9021 -0.6936
 7037TIP3    H242527   4.128   0.479   1.138  2.2668 -3.8485 -0.9268
 7038TIP3   OH242528   4.766   2.779   1.973  0.4884 -0.1105 -0.2802
 7038TIP3    H142529   4.780   2.870   1.948  0.4179  0.3584  1.3812
 7038TIP3    H242530   4.715   2.742   1.900  1.0400  0.9927 -1.2447
 7039TIP3   OH242531   5.535   1.043  15.155  0.6110  0.5891 -0.5118
 7039TIP3    H142532   5.612   1.062  15.102 -0.2232  1.0523 -1.5612
 7039TIP3    H242533   5.464   1.089  15.112 -0.2648  0.1536  0.4467
 7040TIP3   OH242534   3.558   6.673   4.299 -0.1146 -0.4788  0.2591
 7040TIP3    H142535   3.532   6.763   4.282 -0.4361 -0.6948 -0.4185
 7040TIP3    H242536   3.650   6.678   4.326  0.1937 -0.0551 -0.8594
 7041TIP3   OH242537   1.035   4.585  16.286  0.5996 -0.7781 -0.1605
 7041TIP3    H142538   1.099   4.652  16.309  0.5305 -0.0330 -2.0884
 7041TIP3    H242539   0.950   4.628  16.297  0.5831 -0.0807 -2.6812
 7042TIP3   OH242540   4.055   3.658   5.031 -0.0380  0.1508  0.2495
 7042TIP3    H142541   4.107   3.646   5.110 -2.1564 -0.1508  1.6416
 7042TIP3    H242542   3.964   3.654   5.061 -0.8875  2.0599 -1.8994
 7043TIP3   OH242543   2.108   2.794  16.352 -0.4073  0.2540  0.1721
 7043TIP3    H142544   2.112   2.890  16.349  0.6184  0.1709 -2.0433
 7043TIP3    H242545   2.078   2.768  16.265  0.3867 -1.4831  0.3966
 7044TIP3   OH242546   6.124   4.786  11.826  0.4193 -1.0082  0.1798
 7044TIP3    H142547   6.202   4.841  11.818 -1.4891  1.5695 -1.4259
 7044TIP3    H242548   6.086   4.811  11.910 -1.2457  1.2952 -1.2083
 7045TIP3   OH242549   0.440   2.485  12.750 -0.2153  0.2971  0.4307
 7045TIP3    H142550   0.499   2.537  12.805  1.4944 -0.6591 -0.4698
 7045TIP3    H242551   0.478   2.490  12.662 -0.8198 -1.2787  0.0663
 7046TIP3   OH242552   2.086   3.889  12.419  0.0553  0.5267 -0.2728
 7046TIP3    H142553   2.169   3.855  12.385  0.0905 -0.3800  0.6777
 7046TIP3    H242554   2.093   3.984  12.410  0.9376  0.4149 -0.7844
 7047TIP3   OH242555   5.779   1.980  13.332 -0.2128  0.2394 -0.1042
 7047TIP3    H142556   5.737   2.065  13.319  1.2117  0.7990 -1.1370
 7047TIP3    H242557   5.833   1.991  13.410  0.3844  0.4457 -0.5454
 7048TIP3   OH242558   3.493   2.281   4.961 -0.6917  0.2523  0.0164
 7048TIP3    H142559   3.476   2.189   4.942  0.6297 -0.1905  0.9271
 7048TIP3    H242560   3.549   2.280   5.038  1.3719  1.7259 -1.4039
 7049TIP3   OH242561   1.127   0.146  13.796  0.3815  0.4295  0.4167
 7049TIP3    H142562   1.078   0.224  13.821 -1.5513 -0.8649  0.7585
 7049TIP3    H242563   1.166   0.115  13.878 -0.0114  0.2531  0.5392
 7050TIP3   OH242564   3.349   1.647  13.222  0.5261 -0.4357  0.3721
 7050TIP3    H142565   3.383   1.587  13.288 -0.4325  0.7156  1.9482
 7050TIP3    H242566   3.396   1.729  13.237 -1.2049  0.4711  1.0470
 7051TIP3   OH242567   2.197   2.647  15.361 -0.0782  0.7105 -0.4251
 7051TIP3    H142568   2.128   2.629  15.297 -1.3451  0.5323  0.9611
 7051TIP3    H242569   2.166   2.724  15.409  0.9795  0.9968 -0.1815
 7052TIP3   OH242570   3.856   6.058   0.300 -0.5785  0.3467  0.0711
 7052TIP3    H142571   3.793   5.986   0.294 -1.1024  0.8454 -0.4843
 7052TIP3    H242572   3.891   6.066   0.212 -0.3087  0.5814  0.2003
 7053TIP3   OH242573   6.120   5.314  16.643  0.2320  0.2597  0.4523
 7053TIP3    H142574   6.057   5.342  16.710  0.4353  0.2749  0.6411
 7053TIP3    H242575   6.087   5.352  16.562 -1.2662 -1.6279  0.1348
 7054TIP3   OH242576   4.144   0.643  14.495 -0.1934 -0.5001  0.4661
 7054TIP3    H142577   4.062   0.609  14.460 -0.3478  0.5825 -0.2547
 7054TIP3    H242578   4.200   0.566  14.504 -0.8580 -1.0737 -0.2438
 7055TIP3   OH242579   2.122   1.606  12.942 -0.2062  0.0813 -0.1466
 7055TIP3    H142580   2.050   1.669  12.949 -0.7129 -0.6607  1.3725
 7055TIP3    H242581   2.098   1.551  12.867  0.6551  2.1816 -2.0220
 7056TIP3   OH242582   3.578   0.146  11.354 -0.4623  0.0454 -0.3787
 7056TIP3    H142583   3.587   0.087  11.279  1.5490 -2.0936  1.4373
 7056TIP3    H242584   3.484   0.154  11.368 -0.8174 -0.7711 -2.1639
 7057TIP3   OH242585   6.722   4.417  15.612 -0.1062  0.1241  0.0748
 7057TIP3    H142586   6.777   4.357  15.562  0.4833  0.7080  0.0256
 7057TIP3    H242587   6.635   4.377  15.609  0.4559 -1.2006  0.8044
 7058TIP3   OH242588   3.873   1.321  14.805 -0.4499 -0.5489  0.2046
 7058TIP3    H142589   3.879   1.362  14.891  0.7986 -0.7736  0.2302
 7058TIP3    H242590   3.783   1.286  14.802 -0.3835 -0.8968  1.5814
 7059TIP3   OH242591   6.536   0.928  16.136  0.7021 -0.2193  0.1286
 7059TIP3    H142592   6.605   0.992  16.119  0.1137  0.4445  0.2093
 7059TIP3    H242593   6.485   0.926  16.055  0.6981 -0.5698  0.1383
 7060TIP3   OH242594   6.672   1.504  14.887 -0.1211  0.0098 -0.7160
 7060TIP3    H142595   6.715   1.445  14.825  0.7547 -0.3887  0.2632
 7060TIP3    H242596   6.605   1.547  14.835  1.3357  0.5166 -2.2413
 7061TIP3   OH242597   0.125   6.602  17.171 -0.3952 -0.4125  0.0259
 7061TIP3    H142598   0.107   6.574  17.082 -3.3723  0.4622  0.2865
 7061TIP3    H242599   0.102   6.695  17.172 -0.4053 -0.4183  1.6872
 7062TIP3   OH242600   2.304   5.873   5.953  0.1207 -0.8772  0.0026
 7062TIP3    H142601   2.397   5.859   5.972 -0.1191 -2.5955  0.0024
 7062TIP3    H242602   2.258   5.815   6.014 -1.0067  0.9106  0.8836
 7063TIP3   OH242603   1.751   0.085   4.779  0.1448 -0.3913 -0.3114
 7063TIP3    H142604   1.718   0.018   4.718  1.7063  0.1918 -1.8260
 7063TIP3    H242605   1.701   0.164   4.756  0.2752 -0.3334 -0.3938
 7064TIP3   OH242606   3.271   4.759   5.289  0.0873 -0.0935 -0.7394
 7064TIP3    H142607   3.225   4.677   5.271  2.0729 -0.9561 -2.0802
 7064TIP3    H242608   3.358   4.731   5.319  1.3372  1.4655 -2.7292
 7065TIP3   OH242609   4.014   2.224   4.033 -0.7481 -0.1986  0.0614
 7065TIP3    H142610   3.942   2.277   4.069 -1.5071 -0.6681 -0.7578
 7065TIP3    H242611   4.073   2.288   3.993  0.5481  0.4285  2.8351
 7066TIP3   OH242612   3.361   6.053  17.201 -0.2159  0.1572  0.0849
 7066TIP3    H142613   3.290   6.077  17.141 -0.6374  0.2115  0.5996
 7066TIP3    H242614   3.406   5.980  17.158 -1.6384 -1.0112  0.5222
 7067TIP3   OH242615   5.589   3.462  11.309  0.2773  0.7010  0.0862
 7067TIP3    H142616   5.680   3.433  11.309 -0.1479 -0.7465  2.2323
 7067TIP3    H242617   5.576   3.498  11.397 -0.7280  2.5533 -0.8007
 7068TIP3   OH242618   4.115   4.700  10.884 -0.1301  0.5990  0.1935
 7068TIP3    H142619   4.197   4.672  10.843  0.1059  0.5353  0.6943
 7068TIP3    H242620   4.139   4.778  10.934  0.2998 -1.0973  2.7670
 7069TIP3   OH242621   0.174   2.603   2.305  0.1025 -0.3659  0.0922
 7069TIP3    H142622   0.160   2.657   2.226  0.6701  0.0621  0.2774
 7069TIP3    H242623   0.174   2.666   2.377 -1.5570 -0.8876  0.5653
 7070TIP3   OH242624   2.142   2.348   0.805  0.1609 -0.3977  0.0037
 7070TIP3    H142625   2.142   2.264   0.758 -1.2911 -0.4405  0.0539
 7070TIP3    H242626   2.099   2.409   0.746  3.5406  1.0044 -1.1342
 7071TIP3   OH242627   5.080   4.992  14.010  0.3260  0.2735 -0.0662
 7071TIP3    H142628   4.998   5.041  13.999  0.8474  1.2646  0.3747
 7071TIP3    H242629   5.091   4.985  14.105  0.4459 -0.3974 -0.1272
 7072TIP3   OH242630   1.791   3.280   6.587 -0.0856  0.0146  0.3460
 7072TIP3    H142631   1.873   3.272   6.635  1.4719  2.1374 -1.8154
 7072TIP3    H242632   1.726   3.236   6.642  3.0575 -4.6912  0.5766
 7073TIP3   OH242633   4.726   2.121  11.469  0.6179 -0.3348 -0.2434
 7073TIP3    H142634   4.699   2.210  11.443  2.0968 -0.0377 -0.7802
 7073TIP3    H242635   4.737   2.074  11.386 -0.1203 -1.0216  0.0396
 7074TIP3   OH242636   3.698   0.250  13.460  0.1578 -0.0360 -0.4018
 7074TIP3    H142637   3.616   0.291  13.432 -0.7626 -1.1045  0.6938
 7074TIP3    H242638   3.680   0.215  13.547  1.5162 -1.0231 -0.4872
 7075TIP3   OH242639   1.744   5.179   3.455 -0.2161 -0.1215  0.0290
 7075TIP3    H142640   1.807   5.248   3.477 -0.4703  0.2344 -0.3489
 7075TIP3    H242641   1.705   5.208   3.373  0.7198 -1.4152 -0.9039
 7076TIP3   OH242642   2.984   3.677  11.030 -0.1705  0.5795 -0.5178
 7076TIP3    H142643   3.035   3.698  10.952 -0.0072 -0.4564 -0.6922
 7076TIP3    H242644   2.915   3.744  11.033 -1.5725 -0.7132 -2.8363
 7077TIP3   OH242645   5.367   4.608  14.128  0.3180 -0.0409  0.3931
 7077TIP3    H142646   5.369   4.636  14.037 -1.2422 -0.1485  0.3230
 7077TIP3    H242647   5.350   4.514  14.125 -0.5636  0.1051  0.8227
 7078TIP3   OH242648   0.850   3.196  12.219  0.2814 -0.1153  0.2621
 7078TIP3    H142649   0.782   3.130  12.223 -0.8837  1.0489 -0.1393
 7078TIP3    H242650   0.804   3.280  12.226  1.6475  0.6939 -0.1001
 7079TIP3   OH242651   0.214   2.431   4.456  0.5521  0.3064  0.6218
 7079TIP3    H142652   0.207   2.382   4.538 -0.3830  0.1386  0.4482
 7079TIP3    H242653   0.273   2.504   4.477  1.7962 -0.7802  0.9314
 7080TIP3   OH242654   3.938   3.084  15.449  0.3240  0.1077 -0.0101
 7080TIP3    H142655   3.949   3.053  15.359  0.7455 -2.7564  0.9477
 7080TIP3    H242656   3.849   3.059  15.473  1.3994 -2.5340  1.5164
 7081TIP3   OH242657   0.906   6.714  13.403  0.3689  0.6101 -0.0120
 7081TIP3    H142658   0.980   6.724  13.463 -1.0107  0.5795  1.7358
 7081TIP3    H242659   0.888   6.803  13.373  1.0043  0.6371 -0.3397
 7082TIP3   OH242660   3.543   2.182  15.621  0.2774  0.0807 -0.0748
 7082TIP3    H142661   3.475   2.208  15.683 -0.3218 -1.3329 -0.1405
 7082TIP3    H242662   3.521   2.092  15.597  1.2707  0.1597 -1.3082
 7083TIP3   OH242663   0.432   6.453  16.488 -0.1126 -0.3625 -0.0079
 7083TIP3    H142664   0.459   6.486  16.403 -0.0114 -0.1679  0.1006
 7083TIP3    H242665   0.343   6.420  16.474 -0.6593  0.9962  0.1547
 7084TIP3   OH242666   2.622   1.749  15.516  0.2607 -0.3385 -0.0620
 7084TIP3    H142667   2.701   1.704  15.485  1.4298  1.1274  0.6973
 7084TIP3    H242668   2.626   1.742  15.611  0.8024  1.8343  0.1164
 7085TIP3   OH242669   6.355   4.256  15.239 -0.0826  0.1900 -0.0237
 7085TIP3    H142670   6.305   4.270  15.158 -1.4964  2.0154  1.1247
 7085TIP3    H242671   6.305   4.191  15.287  0.8654 -1.0435 -0.6892
 7086TIP3   OH242672   5.607   1.985   0.052  0.6333 -0.2585  0.0730
 7086TIP3    H142673   5.624   2.064   0.103 -2.0747 -0.6212  1.6393
 7086TIP3    H242674   5.527   2.005   0.004  1.6126 -0.9715 -1.9132
 7087TIP3   OH242675   4.328   6.291   3.132 -0.2415 -0.1119  0.6034
 7087TIP3    H142676   4.389   6.257   3.198 -1.0537 -1.6647  0.5577
 7087TIP3    H242677   4.346   6.385   3.131  0.8394 -0.2753  1.9585
 7088TIP3   OH242678   6.421   4.579   5.316  0.2769 -0.0273 -0.1738
 7088TIP3    H142679   6.494   4.625   5.276  1.0223 -1.3896 -0.4008
 7088TIP3    H242680   6.343   4.629   5.290  0.8747 -0.1038 -2.1626
 7089TIP3   OH242681   4.116   4.348  10.827 -0.2908  0.1788  0.5625
 7089TIP3    H142682   4.047   4.407  10.858 -2.4519 -2.4316  0.8990
 7089TIP3    H242683   4.084   4.318  10.741  0.3845 -1.0927  0.7482
 7090TIP3   OH242684   2.188   5.250   5.269 -0.6235  0.8640  0.1470
 7090TIP3    H142685   2.248   5.194   5.220 -2.1454 -0.9193  0.3068
 7090TIP3    H242686   2.225   5.338   5.258  1.2365 -0.0043 -0.9227
 7091TIP3   OH242687   1.456   4.612   0.551  1.0198 -0.3058 -0.0398
 7091TIP3    H142688   1.370   4.585   0.521  0.5847  0.7729  0.2135
 7091TIP3    H242689   1.512   4.603   0.473  0.1885  1.1841 -0.8391
 7092TIP3   OH242690   0.903   4.409   3.425 -0.5487 -0.0865 -0.4587
 7092TIP3    H142691   0.932   4.496   3.450  0.1179 -0.3406 -0.3424
 7092TIP3    H242692   0.978   4.353   3.441 -0.2901 -0.3583 -2.4533
 7093TIP3   OH242693   0.695   2.273  13.118  0.3851  0.8223  0.6661
 7093TIP3    H142694   0.666   2.199  13.065 -0.5255  0.5609  1.5186
 7093TIP3    H242695   0.661   2.350  13.073  0.5476  0.6709  0.2811
 7094TIP3   OH242696   2.689   0.623  13.920  0.1923 -0.5105  0.4016
 7094TIP3    H142697   2.771   0.578  13.899  0.4207 -0.2529  0.7441
 7094TIP3    H242698   2.674   0.680  13.845  0.1025 -0.8722  0.1429
 7095TIP3   OH242699   0.722   5.103  11.095 -0.4843  0.4241  0.2150
 7095TIP3    H142700   0.775   5.152  11.032 -0.2167  0.0735  0.1686
 7095TIP3    H242701   0.639   5.087  11.049  0.1265 -0.8471 -0.4903
 7096TIP3   OH242702   6.608   4.449   0.942  0.2067  0.3178 -0.0472
 7096TIP3    H142703   6.648   4.364   0.924 -1.3771 -0.2755 -0.8830
 7096TIP3    H242704   6.515   4.437   0.919  0.1402  2.5508 -1.0778
 7097TIP3   OH242705   5.139   0.698  13.814 -0.0487  0.3424  0.0259
 7097TIP3    H142706   5.200   0.698  13.741 -0.3357 -0.1778 -0.2170
 7097TIP3    H242707   5.124   0.605  13.833 -1.2331  0.4426 -0.3258
 7098TIP3   OH242708   1.310   1.531   4.076  0.2236  0.1242  0.5107
 7098TIP3    H142709   1.387   1.515   4.132 -1.1926  1.1604  2.8382
 7098TIP3    H242710   1.236   1.505   4.130 -1.1707  0.6080 -1.1378
 7099TIP3   OH242711   5.158   2.031   3.682  0.6120  0.0498 -0.4169
 7099TIP3    H142712   5.196   1.964   3.740 -1.2956  0.3977  1.3041
 7099TIP3    H242713   5.226   2.047   3.617  2.6870 -0.6653  1.4789
 7100TIP3   OH242714   0.964   1.708   6.327 -0.0902  0.1721 -0.2234
 7100TIP3    H142715   0.986   1.796   6.357 -0.4236  0.2013 -0.0633
 7100TIP3    H242716   0.925   1.666   6.404 -0.2559  0.0012 -0.4011
 7101TIP3   OH242717   6.784   5.910  15.500  0.6494 -0.0547 -0.5456
 7101TIP3    H142718   6.735   5.976  15.549  0.9839  0.7811 -1.3268
 7101TIP3    H242719   6.773   5.830  15.551  0.1979  0.5879  0.3871
 7102TIP3   OH242720   1.081   0.371  16.584 -0.1747 -0.0685 -0.6330
 7102TIP3    H142721   1.147   0.303  16.597 -0.2001  0.0349  0.0849
 7102TIP3    H242722   1.000   0.324  16.566 -0.3525 -0.2626  0.6035
 7103TIP3   OH242723   2.828   4.563   0.068 -0.0160 -0.6468  0.6043
 7103TIP3    H142724   2.849   4.582  -0.024  0.6105 -1.0501  0.6538
 7103TIP3    H242725   2.907   4.589   0.116 -0.0839 -1.0672  0.9494
 7104TIP3   OH242726   4.282   4.000   5.780  0.2887 -0.1981  0.0562
 7104TIP3    H142727   4.363   3.953   5.758  2.5718  3.8789 -0.6172
 7104TIP3    H242728   4.249   4.032   5.696  0.4108  1.9609  0.8188
 7105TIP3   OH242729   6.476   3.807  13.163 -0.3005 -0.0866 -0.2110
 7105TIP3    H142730   6.506   3.765  13.082 -0.2807  1.3372 -0.9514
 7105TIP3    H242731   6.429   3.738  13.209 -1.2065 -0.6438 -1.9049
 7106TIP3   OH242732   4.917   0.836  12.584  0.4842  0.1499 -0.1626
 7106TIP3    H142733   5.007   0.867  12.577  0.0356  1.1999 -1.2706
 7106TIP3    H242734   4.872   0.902  12.636 -0.2717  1.0011 -1.8446
 7107TIP3   OH242735   4.252   4.222   3.168  0.1072  0.3375  0.1811
 7107TIP3    H142736   4.321   4.185   3.223 -1.0075  0.7509  1.8847
 7107TIP3    H242737   4.199   4.146   3.142  0.3555  0.2048  0.0602
 7108TIP3   OH242738   1.205   1.113   3.785  0.0862  0.2153 -0.0901
 7108TIP3    H142739   1.240   1.146   3.868 -1.2867  2.0091 -0.1783
 7108TIP3    H242740   1.118   1.079   3.807 -0.3197  0.7805 -0.7841
 7109TIP3   OH242741   4.028   4.759  12.625  0.2174  0.0260 -0.2742
 7109TIP3    H142742   4.096   4.827  12.621  0.8135 -0.4291  1.5190
 7109TIP3    H242743   3.987   4.771  12.711  0.5147 -2.0119  0.1848
 7110TIP3   OH242744   0.440   4.999   6.175 -0.0346 -0.2346 -0.1775
 7110TIP3    H142745   0.455   4.985   6.082  0.7370  1.3308 -0.3163
 7110TIP3    H242746   0.349   4.975   6.190  0.2202 -1.7625 -1.0652
 7111TIP3   OH242747   3.032   3.511  10.750 -0.0466  0.5782 -0.1487
 7111TIP3    H142748   2.962   3.496  10.687  0.4409  0.1958 -0.5979
 7111TIP3    H242749   3.076   3.590  10.719 -1.7141  2.1690  1.4138
 7112TIP3   OH242750   3.329   3.367  14.681  0.2531  0.4391 -0.1738
 7112TIP3    H142751   3.399   3.302  14.678 -0.3902 -0.2965  0.5125
 7112TIP3    H242752   3.248   3.315  14.680 -0.2730  1.2404  0.0492
 7113TIP3   OH242753   2.991   0.309  15.825 -0.0179  0.2230 -0.2159
 7113TIP3    H142754   2.972   0.215  15.819  4.5028 -0.8307  0.4272
 7113TIP3    H242755   2.979   0.341  15.736  1.0170 -1.5434 -1.0163
 7114TIP3   OH242756   0.185   2.763   3.240  0.1679  0.0824 -0.5737
 7114TIP3    H142757   0.145   2.728   3.320  0.5967 -0.3624 -0.5501
 7114TIP3    H242758   0.142   2.847   3.227  0.8019  0.6233  0.6887
 7115TIP3   OH242759   0.303   3.641   2.358  0.1111  0.2308 -0.1083
 7115TIP3    H142760   0.239   3.579   2.393  0.1427  1.1287  1.5502
 7115TIP3    H242761   0.251   3.704   2.309 -0.0769 -0.1290 -0.3782
 7116TIP3   OH242762   4.413   2.800   5.448  0.1935  0.0357  0.1598
 7116TIP3    H142763   4.387   2.727   5.505 -0.1659  0.0790  0.0517
 7116TIP3    H242764   4.343   2.806   5.383  0.7965 -0.2598 -0.5174
 7117TIP3   OH242765   5.588   6.057  13.976 -0.3585  1.0072  0.1788
 7117TIP3    H142766   5.510   6.042  13.924 -1.3052  2.4802  1.1285
 7117TIP3    H242767   5.612   5.971  14.010 -0.9777  0.3929 -0.9254
 7118TIP3   OH242768   1.091   1.776  15.305  0.6088 -0.2892  0.3501
 7118TIP3    H142769   1.094   1.863  15.346  0.8868  0.4587 -1.1891
 7118TIP3    H242770   0.998   1.761  15.289  0.6472  0.2532 -0.4310
 7119TIP3   OH242771   6.374   2.598   1.376 -0.1290 -0.4281 -0.5179
 7119TIP3    H142772   6.445   2.534   1.384 -0.3124 -0.3951  1.7180
 7119TIP3    H242773   6.403   2.673   1.429 -1.2664  0.0875 -0.6088
 7120TIP3   OH242774   1.397   1.913   5.710  0.0987  0.2115  0.1341
 7120TIP3    H142775   1.378   1.964   5.631  1.2038  0.0117 -0.2706
 7120TIP3    H242776   1.413   1.824   5.679 -0.4084 -0.0749  0.6865
 7121TIP3   OH242777   1.172   2.934   0.760 -0.0873  0.2207 -0.2947
 7121TIP3    H142778   1.209   2.892   0.837 -0.4106  0.4404 -0.0189
 7121TIP3    H242779   1.125   2.863   0.715 -0.9142  0.3557  0.3465
 7122TIP3   OH242780   1.664   4.049   6.366 -0.4749  0.5235  0.4223
 7122TIP3    H142781   1.589   4.106   6.347 -0.9128  1.7433  5.0671
 7122TIP3    H242782   1.730   4.073   6.301 -2.7388  2.1634 -1.3521
 7123TIP3   OH242783   0.107   6.431  12.136 -0.3499 -0.2573  0.7184
 7123TIP3    H142784   0.147   6.453  12.221 -1.8254 -0.8842  1.6009
 7123TIP3    H242785   0.026   6.386  12.159 -0.3062 -1.2753 -1.0478
 7124TIP3   OH242786   2.984   6.203  14.243  0.3907 -0.3053 -0.1414
 7124TIP3    H142787   3.037   6.282  14.236 -0.2751  0.0768 -0.9752
 7124TIP3    H242788   2.898   6.234  14.271  0.3942 -0.8342  0.4517
 7125TIP3   OH242789   0.381   1.999   3.034  0.0186 -0.4505 -0.3135
 7125TIP3    H142790   0.331   1.957   3.103 -0.1395 -1.7844 -1.2093
 7125TIP3    H242791   0.460   2.031   3.077 -0.7734  0.0844  0.7583
 7126TIP3   OH242792   2.755   0.733  14.162 -0.3339  0.0871 -0.5024
 7126TIP3    H142793   2.808   0.663  14.198 -0.7041 -0.1061 -0.3325
 7126TIP3    H242794   2.705   0.692  14.091 -1.3645 -0.0725  0.3168
 7127TIP3   OH242795   5.924   5.565  12.008 -0.0634  0.1398  0.2018
 7127TIP3    H142796   5.843   5.590  12.052 -0.1191  0.3461 -0.0174
 7127TIP3    H242797   5.941   5.476  12.039  0.8671  0.9436  2.0257
 7128TIP3   OH242798   1.535   1.477  16.645 -0.1679  0.5717 -0.0283
 7128TIP3    H142799   1.531   1.442  16.556  0.1046  0.8579 -0.1530
 7128TIP3    H242800   1.586   1.412  16.694  0.1596  0.6921 -0.2086
 7129TIP3   OH242801   0.444   5.917  14.552  0.0829  0.2299  0.0285
 7129TIP3    H142802   0.502   5.847  14.581  0.9942  0.9214 -0.1004
 7129TIP3    H242803   0.361   5.873  14.533  0.6057 -0.7895  0.0606
 7130TIP3   OH242804   2.328   0.482   5.402  0.5232  0.0159  0.1097
 7130TIP3    H142805   2.319   0.565   5.450 -1.1842 -1.4875  2.5122
 7130TIP3    H242806   2.244   0.438   5.415  0.5501 -1.1183 -3.1027
 7131TIP3   OH242807   2.374   3.794  13.802  0.1425 -0.2665 -0.5048
 7131TIP3    H142808   2.345   3.772  13.714  0.0176 -1.4530 -0.1684
 7131TIP3    H242809   2.383   3.890  13.800 -0.2912 -0.2364 -1.6657
 7132TIP3   OH242810   2.387   4.554  12.499 -0.1424 -0.6078 -0.4138
 7132TIP3    H142811   2.436   4.523  12.423  0.6294 -0.5498  0.0567
 7132TIP3    H242812   2.452   4.600  12.552 -0.1398 -2.6786  1.4432
 7133TIP3   OH242813   0.176   6.068  14.128  0.0286 -0.0882 -0.0465
 7133TIP3    H142814   0.108   6.086  14.193 -0.4283 -3.0083  0.3485
 7133TIP3    H242815   0.179   6.148  14.075 -0.8880  1.6290  2.3818
 7134TIP3   OH242816   3.447   5.771   2.625  0.3103  0.2378 -0.4028
 7134TIP3    H142817   3.425   5.716   2.701 -1.8207  1.0167 -0.4166
 7134TIP3    H242818   3.542   5.778   2.628  0.3103 -0.1424  1.9437
 7135TIP3   OH242819   5.817   1.085   3.570 -0.0516 -0.2436  0.3204
 7135TIP3    H142820   5.890   1.093   3.632 -0.0476  1.4072  0.1247
 7135TIP3    H242821   5.857   1.058   3.488  0.1029 -1.1974  0.7109
 7136TIP3   OH242822   6.098   5.056   2.832  0.1078 -0.4458 -0.0340
 7136TIP3    H142823   6.125   5.097   2.749 -0.3774  1.2819  0.6281
 7136TIP3    H242824   6.164   5.085   2.895 -0.1042 -0.8960  0.3904
 7137TIP3   OH242825   5.361   0.064   4.865 -0.9385  0.4453  0.3950
 7137TIP3    H142826   5.411   0.135   4.825 -0.9265 -0.5807 -1.4351
 7137TIP3    H242827   5.419  -0.012   4.862 -2.0626 -0.3986 -0.4200
 7138TIP3   OH242828   3.283   6.007   2.618 -0.9503 -0.2918 -0.2171
 7138TIP3    H142829   3.232   5.990   2.539 -0.4479 -1.0694 -0.3766
 7138TIP3    H242830   3.339   5.930   2.628 -0.8541 -0.1053  0.7744
 7139TIP3   OH242831   2.941   1.309   2.572 -0.2629  0.4394  0.2771
 7139TIP3    H142832   2.888   1.366   2.516  0.6253 -0.9073 -2.0256
 7139TIP3    H242833   2.915   1.220   2.547  0.9403 -0.2076  1.2465
 7140TIP3   OH242834   4.629   6.025   3.611  0.4404  0.0330  0.0211
 7140TIP3    H142835   4.723   6.009   3.607  0.8609  2.0439  1.2496
 7140TIP3    H242836   4.595   5.990   3.529  2.1533 -1.3172 -0.1302
 7141TIP3   OH242837   2.555   5.930   4.416  0.1219  0.1798  0.4094
 7141TIP3    H142838   2.599   5.989   4.478  1.1338 -0.8120  0.6436
 7141TIP3    H242839   2.613   5.854   4.409 -1.0329 -0.6755 -0.1050
 7142TIP3   OH242840   1.094   2.958   4.075  0.2997  0.1561 -0.3882
 7142TIP3    H142841   1.118   2.887   4.134 -0.0071 -0.5129 -1.0534
 7142TIP3    H242842   1.068   2.914   3.994  2.3837  1.1317 -1.6278
 7143TIP3   OH242843   3.103   1.530  16.153  0.4022 -0.0293 -0.0672
 7143TIP3    H142844   3.183   1.478  16.153  1.1350  1.0940  0.5274
 7143TIP3    H242845   3.084   1.544  16.060  0.3941 -1.0515 -0.2241
 7144TIP3   OH242846   3.679   2.364   5.812  0.1024 -0.6411  0.0712
 7144TIP3    H142847   3.617   2.293   5.820 -0.0375 -0.6777 -1.1610
 7144TIP3    H242848   3.755   2.336   5.862 -0.7546 -0.7194  1.3441
 7145TIP3   OH242849   1.391   3.335   2.331  0.0333  0.1920 -0.3386
 7145TIP3    H142850   1.413   3.315   2.240  0.3403 -0.6510 -0.0821
 7145TIP3    H242851   1.458   3.290   2.383 -0.7545 -0.2028  0.3464
 7146TIP3   OH242852   3.633   2.553   0.363  0.5609 -0.2599 -0.3824
 7146TIP3    H142853   3.556   2.610   0.360 -0.0608 -1.0197  0.6372
 7146TIP3    H242854   3.690   2.586   0.294 -0.2938  0.8711 -0.5694
 7147TIP3   OH242855   2.457   2.783   4.730 -0.3053  0.4292 -0.0629
 7147TIP3    H142856   2.402   2.830   4.793  1.4355  1.5565  0.6350
 7147TIP3    H242857   2.544   2.783   4.769  0.4957 -0.1238 -1.8050
 7148TIP3   OH242858   6.434   4.316  16.211 -0.3040  0.4081 -0.1101
 7148TIP3    H142859   6.406   4.395  16.257  2.5792  1.7738 -0.6373
 7148TIP3    H242860   6.377   4.312  16.134 -1.2992  1.2592  0.5537
 7149TIP3   OH242861   6.375   1.018   3.896  0.5148  0.4754  0.1158
 7149TIP3    H142862   6.424   0.945   3.935  2.4399  1.8568  0.3800
 7149TIP3    H242863   6.441   1.068   3.848 -1.1590  0.9027 -1.7873
 7150TIP3   OH242864   2.272   0.398  15.678 -0.6541  0.5872 -0.1963
 7150TIP3    H142865   2.361   0.433  15.688  0.2475 -1.7843  0.3618
 7150TIP3    H242866   2.273   0.354  15.593 -1.0357 -0.1471  0.1770
 7151TIP3   OH242867   1.344   5.200   3.333  0.4743  0.6911  0.3727
 7151TIP3    H142868   1.254   5.189   3.363  0.1081 -1.7919 -1.5121
 7151TIP3    H242869   1.394   5.222   3.412 -1.1283 -1.5812  2.0522
 7152TIP3   OH242870   1.830   3.696   5.322 -0.4860 -0.4408 -0.1715
 7152TIP3    H142871   1.787   3.669   5.241 -1.2777 -2.0761  0.7627
 7152TIP3    H242872   1.890   3.766   5.295 -0.0698 -1.5763 -2.2929
 7153TIP3   OH242873   6.576   1.289   2.682 -0.3091  0.4531  0.1146
 7153TIP3    H142874   6.486   1.292   2.649 -0.2742  0.2042 -0.0061
 7153TIP3    H242875   6.566   1.281   2.777 -0.4123  0.5610  0.1141
 7154TIP3   OH242876   1.564   2.685  13.669 -0.0422 -0.0861 -0.6440
 7154TIP3    H142877   1.609   2.605  13.696 -1.1689 -0.8936 -1.1157
 7154TIP3    H242878   1.562   2.680  13.574 -2.5705 -0.8858 -0.5761
 7155TIP3   OH242879   0.681   0.249  13.853  0.0339  0.5576 -0.7536
 7155TIP3    H142880   0.603   0.238  13.799 -1.1992  1.6323  0.7744
 7155TIP3    H242881   0.692   0.165  13.897 -1.5813  1.0609  0.6975
 7156TIP3   OH242882   4.935   2.876   4.619  0.6587 -0.8035  0.0484
 7156TIP3    H142883   4.904   2.844   4.534  1.4977 -1.3368 -0.0642
 7156TIP3    H242884   4.862   2.858   4.679 -0.3784  0.5940 -0.7561
 7157TIP3   OH242885   3.017   6.392   2.730 -0.0379  0.2368 -0.2285
 7157TIP3    H142886   3.000   6.405   2.637 -1.6783 -0.2543 -0.0050
 7157TIP3    H242887   2.959   6.453   2.774  0.0232 -0.2322  0.5080
 7158TIP3   OH242888   6.386   4.273   5.888  0.0091  0.2532  0.4217
 7158TIP3    H142889   6.386   4.332   5.963  0.4693  0.5588  0.1860
 7158TIP3    H242890   6.295   4.274   5.857  0.2366  1.6872 -0.2332
 7159TIP3   OH242891   5.788   1.145  13.044  0.1465  0.5249  0.0527
 7159TIP3    H142892   5.883   1.139  13.040  0.3722  3.6020 -0.3252
 7159TIP3    H242893   5.768   1.134  13.137  0.8366 -0.5814  0.0746
 7160TIP3   OH242894   2.292   2.137   1.363  0.1864  0.0460  0.0931
 7160TIP3    H142895   2.350   2.202   1.326 -1.4304  0.6219 -1.5017
 7160TIP3    H242896   2.206   2.179   1.364 -0.5234 -1.3660  0.8560
 7161TIP3   OH242897   4.011   5.255  15.013  0.4278  0.1754  0.1782
 7161TIP3    H142898   3.990   5.178  14.961  3.9282 -0.7186 -0.0523
 7161TIP3    H242899   3.942   5.318  14.993 -0.3976 -1.5476 -2.5657
 7162TIP3   OH242900   2.736   6.343  12.027 -0.3646  0.0051  0.2532
 7162TIP3    H142901   2.820   6.368  11.989  0.3153 -1.0049  1.0554
 7162TIP3    H242902   2.672   6.356  11.957  0.3116  1.6564 -0.0935
 7163TIP3   OH242903   5.315   0.691  17.086 -0.3449 -0.4363  0.2359
 7163TIP3    H142904   5.291   0.719  16.997  1.2787 -1.4144 -0.5387
 7163TIP3    H242905   5.397   0.737  17.104 -0.5622 -0.4069  1.1476
 7164TIP3   OH242906   4.531   5.160   4.032 -0.0978  0.6455  0.1750
 7164TIP3    H142907   4.550   5.254   4.032  1.5984  0.3519  2.7525
 7164TIP3    H242908   4.590   5.124   3.966 -1.2838  1.4403 -1.3645
 7165TIP3   OH242909   3.471   4.358  13.869 -1.4666 -0.9092  0.1043
 7165TIP3    H142910   3.475   4.298  13.944 -0.9374  0.2360  1.0011
 7165TIP3    H242911   3.524   4.316  13.801 -0.5703 -1.1436  0.9498
 7166TIP3   OH242912   4.160   1.988   6.038 -0.5097  0.0439 -0.0934
 7166TIP3    H142913   4.206   2.042   5.974  0.8984  0.0949  0.9258
 7166TIP3    H242914   4.111   1.925   5.986  1.0530 -0.2770 -1.2158
 7167TIP3   OH242915   3.450   4.972   2.665  0.1514 -0.1395  0.1260
 7167TIP3    H142916   3.453   4.984   2.760  0.4027  1.4567 -0.0652
 7167TIP3    H242917   3.511   4.900   2.647  0.3837 -0.1946  1.1326
 7168TIP3   OH242918   4.977   2.429  10.455  0.4460  0.2035  0.1517
 7168TIP3    H142919   4.977   2.509  10.402  1.7333  0.5951  0.7249
 7168TIP3    H242920   5.059   2.433  10.503  0.0462 -0.9789  0.9336
 7169TIP3   OH242921   2.607   6.525   1.168 -0.2383  0.5217  0.1323
 7169TIP3    H142922   2.513   6.536   1.158  0.0313  0.8376 -2.2387
 7169TIP3    H242923   2.623   6.537   1.262 -2.4919  0.8659  0.4808
 7170TIP3   OH242924   5.358   3.126  13.227 -0.0587 -0.5926 -0.3220
 7170TIP3    H142925   5.339   3.195  13.290  0.5400 -0.7291  0.0188
 7170TIP3    H242926   5.454   3.128  13.219 -0.1280 -0.5861 -1.2136
 7171TIP3   OH242927   2.258   6.248  14.778  0.8081 -0.5693  0.1459
 7171TIP3    H142928   2.315   6.256  14.854  0.6057 -0.9812  0.3390
 7171TIP3    H242929   2.314   6.272  14.704  1.1938 -0.8335  0.3502
 7172TIP3   OH242930   6.771   2.849  15.691  0.3159 -0.2769 -0.4248
 7172TIP3    H142931   6.732   2.772  15.732  0.8290  0.0046  0.5962
 7172TIP3    H242932   6.850   2.817  15.649  0.9542 -0.1715  0.6777
 7173TIP3   OH242933   0.724   1.366   1.012  0.0987  0.0203 -0.7233
 7173TIP3    H142934   0.637   1.332   0.990  0.8544 -1.9528 -0.7787
 7173TIP3    H242935   0.768   1.376   0.927  0.2791  0.0268 -0.6294
 7174TIP3   OH242936   5.718   1.092  11.311  0.0488 -0.0024 -0.1153
 7174TIP3    H142937   5.707   1.151  11.385  0.1301  0.7536 -0.7026
 7174TIP3    H242938   5.805   1.055  11.322  0.4627  0.8948 -0.3992
 7175TIP3   OH242939   0.783   2.638  11.486 -0.0179 -0.2259 -0.3520
 7175TIP3    H142940   0.877   2.646  11.474  0.1502  0.9592  1.4543
 7175TIP3    H242941   0.746   2.712  11.437  0.1012  0.1113  0.0623
 7176TIP3   OH242942   5.527   6.488   0.300  0.1736 -0.1630  0.8925
 7176TIP3    H142943   5.550   6.400   0.330 -1.5186 -0.2239  2.1167
 7176TIP3    H242944   5.464   6.520   0.366 -0.7561  1.1743 -0.6057
 7177TIP3   OH242945   5.078   5.622  12.434  0.3134  0.4631  0.5307
 7177TIP3    H142946   5.148   5.657  12.489  0.2054 -0.0544  1.0072
 7177TIP3    H242947   5.069   5.531  12.462  0.7048  0.0054 -0.8134
 7178TIP3   OH242948   5.336   5.244  13.148 -0.1535 -0.1383  0.3615
 7178TIP3    H142949   5.347   5.304  13.222 -0.1965 -0.3079  0.5053
 7178TIP3    H242950   5.420   5.248  13.102 -0.7871  1.4902 -0.7144
 7179TIP3   OH242951   0.533   2.505   0.412 -0.3327  0.4148 -0.1335
 7179TIP3    H142952   0.521   2.440   0.342 -1.5415 -1.2190  1.5379
 7179TIP3    H242953   0.454   2.559   0.409 -0.2699  0.5022 -0.2003
 7180TIP3   OH242954   6.785   1.385   0.146  0.2836  0.5184  0.2184
 7180TIP3    H142955   6.831   1.451   0.198 -0.1484  1.9223 -1.1321
 7180TIP3    H242956   6.694   1.414   0.147  0.3368  0.8265 -1.6557
 7181TIP3   OH242957   0.284   0.771   4.596 -0.0131 -0.2748 -0.3107
 7181TIP3    H142958   0.351   0.826   4.557 -1.6034  1.5642 -0.5686
 7181TIP3    H242959   0.332   0.705   4.646  1.9561  1.3861  0.0383
 7182TIP3   OH242960   5.690   3.008  11.808 -0.1511  0.6904  0.2328
 7182TIP3    H142961   5.636   2.932  11.831 -0.5525  0.7812 -0.3950
 7182TIP3    H242962   5.640   3.053  11.740  0.2754  1.2970  0.3168
 7183TIP3   OH242963   4.731   0.321  17.138 -0.0458 -0.0144 -0.6602
 7183TIP3    H142964   4.679   0.368  17.204  0.5796  0.0209 -0.1816
 7183TIP3    H242965   4.813   0.299  17.184  0.8993  1.0747 -1.7757
 7184TIP3   OH242966   2.130   1.830  15.843  0.3221 -0.4741 -0.2636
 7184TIP3    H142967   2.180   1.749  15.855  0.2322 -0.3490  0.9204
 7184TIP3    H242968   2.045   1.801  15.810  0.5096 -0.8088 -0.4585
 7185TIP3   OH242969   5.622   6.423   2.142  0.5240  1.0215  0.2325
 7185TIP3    H142970   5.607   6.344   2.194 -1.2580  0.2735 -1.3545
 7185TIP3    H242971   5.697   6.466   2.184  0.2622 -0.4817  2.2941
 7186TIP3   OH242972   4.153   5.840  11.319  0.7009  0.3252  0.3018
 7186TIP3    H142973   4.203   5.876  11.245  0.9018 -0.0469  0.2585
 7186TIP3    H242974   4.175   5.747  11.320 -0.0351  0.1472  0.2486
 7187TIP3   OH242975   5.962   3.758   0.281  0.6400  0.1919 -0.5036
 7187TIP3    H142976   5.966   3.847   0.244 -0.8599  0.0404 -1.0711
 7187TIP3    H242977   5.988   3.701   0.208  2.5206  0.1941  0.1225
 7188TIP3   OH242978   1.240   5.938  13.700 -0.2362  0.4736 -0.2003
 7188TIP3    H142979   1.206   5.888  13.626  0.1935  0.0769 -0.1304
 7188TIP3    H242980   1.255   6.026  13.664  1.3431 -0.0822 -0.9873
 7189TIP3   OH242981   1.167   1.261  13.147  0.1013  0.1259 -0.0867
 7189TIP3    H142982   1.124   1.180  13.174 -2.0520  1.5962  1.0856
 7189TIP3    H242983   1.105   1.301  13.086  1.6374  0.3925 -1.5062
 7190TIP3   OH242984   0.798   2.989  11.524 -0.5294  0.1899 -0.1871
 7190TIP3    H142985   0.805   3.053  11.454 -2.2645 -0.6572 -1.1791
 7190TIP3    H242986   0.874   2.932  11.512 -0.9471 -0.0940 -1.5467
 7191TIP3   OH242987   3.765   1.861   3.728 -0.1687 -0.0175  0.0788
 7191TIP3    H142988   3.790   1.785   3.780 -0.1222  0.7999  1.2680
 7191TIP3    H242989   3.736   1.824   3.645  0.9078 -1.2598  0.2336
 7192TIP3   OH242990   6.642   5.042  16.233  0.2218  0.5152  0.3214
 7192TIP3    H142991   6.716   5.089  16.272  1.9093 -0.2601 -1.8716
 7192TIP3    H242992   6.673   5.015  16.146 -1.6384 -2.2955  0.4554
 7193TIP3   OH242993   5.303   1.596   0.872  0.3025  0.4012 -0.2305
 7193TIP3    H142994   5.304   1.635   0.785 -0.8724  2.0452  0.4603
 7193TIP3    H242995   5.340   1.664   0.929  0.0198 -0.2212  0.7160
 7194TIP3   OH242996   0.894   1.032  15.813 -0.8298 -0.2187  0.5660
 7194TIP3    H142997   0.803   1.055  15.830 -0.9377  0.4826 -0.9657
 7194TIP3    H242998   0.890   0.959  15.751 -0.3184  1.2600 -1.2376
 7195TIP3   OH242999   6.491   6.526   2.381 -0.7701 -0.1369  0.0475
 7195TIP3    H143000   6.531   6.539   2.467  0.2272  0.9685 -0.5708
 7195TIP3    H243001   6.429   6.454   2.394  2.0716 -2.5389  0.8197
 7196TIP3   OH243002   6.547   4.265   3.150  0.4761 -0.6395 -0.1336
 7196TIP3    H143003   6.459   4.274   3.114 -0.3380 -1.2326  1.6439
 7196TIP3    H243004   6.558   4.342   3.206  0.8487 -0.8828  0.1288
 7197TIP3   OH243005   0.731   2.915  14.352  0.3470 -0.3857  0.3844
 7197TIP3    H143006   0.722   2.998  14.306  0.4609  0.9594  2.7049
 7197TIP3    H243007   0.648   2.870  14.339  0.5126 -0.1981 -1.4037
 7198TIP3   OH243008   0.189   0.677   4.255  0.2769 -0.4067 -0.6827
 7198TIP3    H143009   0.270   0.685   4.204  1.5058 -0.8545  1.1388
 7198TIP3    H243010   0.219   0.658   4.344 -1.7929  0.9144  0.3384
 7199TIP3   OH243011   1.484   5.327   5.369 -0.6483  0.6618 -0.1994
 7199TIP3    H143012   1.561   5.345   5.316 -0.4089  0.3261  0.0305
 7199TIP3    H243013   1.464   5.409   5.413 -1.6814  1.3425 -1.8829
 7200TIP3   OH243014   0.233   5.663  13.516 -0.7200  0.6610 -0.0938
 7200TIP3    H143015   0.280   5.715  13.450 -1.4773 -0.3267 -1.4402
 7200TIP3    H243016   0.295   5.595  13.542 -0.9075  0.2028 -0.8328
 7201TIP3   OH243017   5.460   1.904  12.119  0.6317  0.2562 -0.0361
 7201TIP3    H143018   5.405   1.906  12.197 -3.3717 -3.1457 -2.6316
 7201TIP3    H243019   5.508   1.822  12.125 -0.5668 -0.5859 -1.7011
 7202TIP3   OH243020   6.251   6.046   3.166  0.4935 -0.3028  0.5294
 7202TIP3    H143021   6.174   6.040   3.223  0.9989 -2.2860  1.0659
 7202TIP3    H243022   6.325   6.030   3.224  1.2178  0.3159 -0.2141
 7203TIP3   OH243023   0.746   4.625  12.202 -0.1718 -0.1359  0.3488
 7203TIP3    H143024   0.680   4.646  12.267 -2.0999  0.9767 -1.8955
 7203TIP3    H243025   0.700   4.573  12.137  1.6160 -0.8835 -0.3578
 7204TIP3   OH243026   1.335   3.566   5.875  0.4549 -0.2370  0.1379
 7204TIP3    H143027   1.371   3.516   5.801  1.7140  2.2853 -1.0084
 7204TIP3    H243028   1.384   3.648   5.874 -1.7060  1.1049  1.8599
 7205TIP3   OH243029   6.309   4.471  15.519 -0.2064  0.7675 -0.0329
 7205TIP3    H143030   6.377   4.404  15.521 -0.3078  0.5942 -1.9388
 7205TIP3    H243031   6.251   4.448  15.592  1.5034  0.6627  1.3463
 7206TIP3   OH243032   2.001   2.473  16.997  1.0835  0.0101  0.2670
 7206TIP3    H143033   1.943   2.397  16.995  2.4560 -1.0535  0.1663
 7206TIP3    H243034   1.984   2.518  16.914  1.5593 -1.1874 -0.5069
 7207TIP3   OH243035   0.014   6.561   1.776 -0.1337  0.6756 -0.0936
 7207TIP3    H143036  -0.045   6.519   1.713  0.0293  0.6564 -0.2353
 7207TIP3    H243037   0.048   6.489   1.830  0.5961  0.5448 -0.7129
 7208TIP3   OH243038   2.485   5.384  12.007 -0.0173 -0.4130  0.2035
 7208TIP3    H143039   2.400   5.345  11.991 -0.1118  0.1948 -0.8152
 7208TIP3    H243040   2.541   5.349  11.937  0.4623 -0.4702  0.6101
 7209TIP3   OH243041   0.616   1.316   2.469 -0.0369  0.1362  0.7403
 7209TIP3    H143042   0.670   1.285   2.396 -0.0093 -0.8375  1.1679
 7209TIP3    H243043   0.635   1.410   2.474 -0.9288  0.4603 -1.2582
 7210TIP3   OH243044   0.168   2.810  13.956 -0.1300 -0.4724  0.5083
 7210TIP3    H143045   0.194   2.742  14.018 -0.8619  0.4622  1.8675
 7210TIP3    H243046   0.245   2.865  13.945  0.2462 -1.1086 -0.0417
 7211TIP3   OH243047   5.672   2.359  13.896 -0.1155  0.1712 -0.1836
 7211TIP3    H143048   5.698   2.380  13.986 -0.1934  2.1853 -0.6059
 7211TIP3    H243049   5.596   2.414  13.880  1.1214  1.3712 -2.1509
 7212TIP3   OH243050   2.883   3.810   0.650  0.9137  0.3379 -0.4844
 7212TIP3    H143051   2.880   3.716   0.633 -0.8629  0.6843 -2.3357
 7212TIP3    H243052   2.872   3.818   0.745 -2.4919 -1.2329 -0.6770
 7213TIP3   OH243053   4.827   1.633   1.110 -0.2814  0.0121  0.4586
 7213TIP3    H143054   4.824   1.665   1.200  0.6739 -1.4416  1.0209
 7213TIP3    H243055   4.764   1.560   1.109 -0.1175 -0.1209  0.0031
 7214TIP3   OH243056   5.475   3.055  12.094 -0.2683  0.1302 -0.2082
 7214TIP3    H143057   5.483   2.987  12.161  1.5971  0.8410  0.3268
 7214TIP3    H243058   5.545   3.035  12.031 -0.7124  0.6458 -0.8747
 7215TIP3   OH243059   0.454   2.702   2.338  0.3433 -0.0924 -0.6750
 7215TIP3    H143060   0.413   2.788   2.350  1.5658  0.4728 -0.4765
 7215TIP3    H243061   0.483   2.701   2.247  0.3755 -0.2804 -0.6629
 7216TIP3   OH243062   2.050   1.497   6.492 -0.0795 -0.4022  0.9912
 7216TIP3    H143063   2.024   1.417   6.537 -2.3954 -0.4188 -0.2672
 7216TIP3    H243064   2.094   1.467   6.413  0.0995 -0.4293  1.1026
 7217TIP3   OH243065   5.648   0.587  14.935 -0.3981 -0.3645  0.5357
 7217TIP3    H143066   5.621   0.674  14.905  0.0854  0.4294  2.2833
 7217TIP3    H243067   5.575   0.556  14.988 -1.4717 -1.9802 -1.8196
 7218TIP3   OH243068   6.400   2.854  14.683  0.6234 -0.3201 -0.0195
 7218TIP3    H143069   6.475   2.815  14.639  1.5502  1.8846 -0.4458
 7218TIP3    H243070   6.343   2.884  14.612  0.3456 -0.0923  0.2958
 7219TIP3   OH243071   3.210   3.324   3.638  0.3556  0.1115  0.6098
 7219TIP3    H143072   3.123   3.285   3.632  0.5767 -0.2113 -0.6259
 7219TIP3    H243073   3.258   3.268   3.698  0.2075 -0.6563  0.0131
 7220TIP3   OH243074   1.916   5.762  14.320  0.4713  0.3834 -0.0519
 7220TIP3    H143075   1.971   5.837  14.339  0.2488  0.3441  0.7635
 7220TIP3    H243076   1.846   5.765  14.385  1.2519 -1.3349  0.9100
 7221TIP3   OH243077   1.198   6.277  11.382  0.3859  0.0472  0.2674
 7221TIP3    H143078   1.174   6.283  11.289 -2.0916  1.2204  0.9293
 7221TIP3    H243079   1.148   6.202  11.415 -0.1158  0.7134  1.0323
 7222TIP3   OH243080   1.260   0.238   2.035 -0.1262 -0.1432  0.1928
 7222TIP3    H143081   1.198   0.195   1.976  0.8525  0.7049 -1.4978
 7222TIP3    H243082   1.215   0.316   2.065 -0.7050 -0.6824  0.7266
 7223TIP3   OH243083   1.048   2.059  15.378  0.0767 -0.5268  0.1358
 7223TIP3    H143084   1.070   2.137  15.327  0.1773 -1.3351 -1.0601
 7223TIP3    H243085   0.954   2.049  15.367 -0.0969 -0.0375  1.0749
 7224TIP3   OH243086   2.171   1.163  14.664 -0.3866  0.3454  0.0225
 7224TIP3    H143087   2.263   1.137  14.672 -1.0121 -1.2199  2.5719
 7224TIP3    H243088   2.154   1.213  14.743 -1.9336 -0.0308 -0.0652
 7225TIP3   OH243089   2.756   1.017  16.533 -0.2766  0.2024  0.3764
 7225TIP3    H143090   2.742   1.060  16.617 -0.3475  2.7563 -0.8773
 7225TIP3    H243091   2.812   1.078  16.484  1.1994 -2.0236 -0.8008
 7226TIP3   OH243092   1.346   4.160   4.228  0.2772  0.5741  0.3297
 7226TIP3    H143093   1.334   4.079   4.278 -0.1522  0.4637  0.0588
 7226TIP3    H243094   1.419   4.141   4.169 -0.3874  0.0638 -0.3559
 7227TIP3   OH243095   4.402   3.021   1.109  0.2092 -0.0769  0.0712
 7227TIP3    H143096   4.326   3.043   1.055 -0.1122  1.9816  1.3000
 7227TIP3    H243097   4.477   3.033   1.051 -0.1705  1.6200 -0.1066
 7228TIP3   OH243098   3.474   0.168   5.138  0.0814  0.3237 -0.0163
 7228TIP3    H143099   3.456   0.074   5.143  0.2231  0.3561  1.2697
 7228TIP3    H243100   3.392   0.207   5.108  0.1726 -0.2644 -1.0369
 7229TIP3   OH243101   4.004   5.043   0.584 -0.0316 -0.0451  0.1156
 7229TIP3    H143102   3.958   5.080   0.659 -0.8508 -0.1080 -0.3521
 7229TIP3    H243103   3.941   5.047   0.512  1.1745  1.2197 -0.9075
 7230TIP3   OH243104   3.924   2.615  16.074 -0.0902  0.2110  0.4000
 7230TIP3    H143105   3.933   2.527  16.109 -0.4633  1.2299  3.1673
 7230TIP3    H243106   3.953   2.608  15.983  1.4037 -2.4171  1.0381
 7231TIP3   OH243107   3.715   6.006   3.167  0.0835  0.5342 -0.0564
 7231TIP3    H143108   3.723   5.955   3.248 -1.7680  2.0094  1.1185
 7231TIP3    H243109   3.762   5.955   3.101 -1.1559 -2.3673  1.2016
 7232TIP3   OH243110   4.457   6.609   4.635 -0.5793 -0.3053  0.2122
 7232TIP3    H143111   4.493   6.550   4.569  0.8023  2.0144 -1.1573
 7232TIP3    H243112   4.531   6.629   4.692 -0.8256  0.7302  0.1839
 7233TIP3   OH243113   2.892   3.713  11.696  0.1594  0.3089 -0.2021
 7233TIP3    H143114   2.883   3.761  11.614  0.7074  0.0620 -0.4125
 7233TIP3    H243115   2.983   3.684  11.697  0.2699  0.6431  0.6815
 7234TIP3   OH243116   5.398   1.398  14.934 -0.2532  0.2735  0.2635
 7234TIP3    H143117   5.479   1.385  14.884  0.9323 -0.5341  2.3306
 7234TIP3    H243118   5.426   1.450  15.010 -1.6870  0.0499  0.9517
 7235TIP3   OH243119   6.779   2.108   2.422  0.2714  0.1339 -0.3268
 7235TIP3    H143120   6.874   2.100   2.416  0.1454 -0.5341 -1.6246
 7235TIP3    H243121   6.748   2.103   2.331 -0.9665  0.7590  0.0452
 7236TIP3   OH243122   2.120   6.410   3.196 -0.6079  0.4119  0.7347
 7236TIP3    H143123   2.099   6.427   3.104  0.0647  0.0731  0.5162
 7236TIP3    H243124   2.095   6.491   3.242 -2.5479 -0.0418  0.5110
 7237TIP3   OH243125   4.634   4.966   4.215 -0.3388 -0.5352 -0.1416
 7237TIP3    H143126   4.728   4.973   4.202 -0.0375 -0.6458  1.9414
 7237TIP3    H243127   4.597   5.023   4.147  1.2065 -0.4541 -0.9421
 7238TIP3   OH243128   5.811   4.514  13.140  0.5043  0.4111  0.4592
 7238TIP3    H143129   5.900   4.491  13.167  0.2261  0.0871  1.1108
 7238TIP3    H243130   5.758   4.439  13.167  0.4190 -0.5246 -2.1811
 7239TIP3   OH243131   6.725   5.103   2.478  0.1492  0.5472 -0.4988
 7239TIP3    H143132   6.633   5.085   2.497  0.2651  0.1634 -0.2864
 7239TIP3    H243133   6.767   5.017   2.482  0.6968  0.8507  0.3562
 7240TIP3   OH243134   4.196   0.293  11.765 -0.3681  0.4035  0.1768
 7240TIP3    H143135   4.194   0.215  11.819 -1.4839  1.3507  1.5454
 7240TIP3    H243136   4.288   0.304  11.741  0.3596  0.7405  3.0276
 7241TIP3   OH243137   3.338   6.543  15.533 -0.1721 -0.1681 -0.2843
 7241TIP3    H143138   3.256   6.564  15.488  0.5875 -0.6235 -1.9051
 7241TIP3    H243139   3.369   6.463  15.491  1.5451  0.4619 -0.2665
 7242TIP3   OH243140   3.993   1.382   4.143 -0.5282  0.2621  0.1588
 7242TIP3    H143141   4.072   1.413   4.188 -0.0501  1.2165 -1.2578
 7242TIP3    H243142   3.974   1.297   4.182  1.9291 -0.5452 -0.2819
 7243TIP3   OH243143   4.941   4.010   1.529  0.5306 -0.6373 -0.3974
 7243TIP3    H143144   5.000   3.937   1.549  1.1816  0.0722  0.3139
 7243TIP3    H243145   4.981   4.054   1.454  2.8917  1.9750  2.2606
 7244TIP3   OH243146   1.156   6.369   2.346 -0.1311 -0.1751 -0.4567
 7244TIP3    H143147   1.222   6.396   2.409  0.5657 -2.0566 -0.3647
 7244TIP3    H243148   1.131   6.281   2.372 -2.1242  0.1999 -0.9541
 7245TIP3   OH243149   2.229   3.886   5.913  0.0799  0.2160  0.4734
 7245TIP3    H143150   2.292   3.815   5.903  0.8676  0.7902  1.2617
 7245TIP3    H243151   2.146   3.849   5.884  0.4736 -1.0344  0.9336
 7246TIP3   OH243152   1.325   1.964  13.844 -0.1887 -0.2841 -0.3197
 7246TIP3    H143153   1.383   1.981  13.918  0.3790  0.9118 -1.0162
 7246TIP3    H243154   1.378   1.986  13.767 -1.9498  2.0572 -0.9081
 7247TIP3   OH243155   6.466   2.275   2.389  0.4399 -0.3972  0.1309
 7247TIP3    H143156   6.541   2.275   2.330  0.6054  0.1011  0.3377
 7247TIP3    H243157   6.497   2.233   2.469  0.0709 -1.5303 -0.3097
 7248TIP3   OH243158   6.423   3.726   0.058 -0.0327  0.4105  0.8623
 7248TIP3    H143159   6.351   3.687   0.007  0.7632 -0.0523  0.0862
 7248TIP3    H243160   6.456   3.796   0.003  0.7423 -0.0051  0.7903
 7249TIP3   OH243161   5.908   3.380   0.506 -0.1588  0.1398 -0.3269
 7249TIP3    H143162   5.979   3.317   0.517 -0.7205 -0.2428  1.2474
 7249TIP3    H243163   5.948   3.453   0.458  1.5898  0.4023  1.4510
 7250TIP3   OH243164   4.605   5.637   3.540  0.1073 -0.2894 -0.3691
 7250TIP3    H143165   4.520   5.594   3.544  1.1451 -2.2106  2.0239
 7250TIP3    H243166   4.612   5.668   3.450 -2.3930 -1.6031 -1.0515
 7251TIP3   OH243167   4.669   0.654   1.087 -0.0489 -0.5788 -0.3721
 7251TIP3    H143168   4.761   0.659   1.112  0.7400  0.7538 -3.2442
 7251TIP3    H243169   4.666   0.692   0.999 -3.2443 -1.2119 -0.6180
 7252TIP3   OH243170   6.277   6.409   0.420  0.5164  0.4274 -0.2364
 7252TIP3    H143171   6.261   6.316   0.437  1.8241 -0.0414 -1.5048
 7252TIP3    H243172   6.259   6.419   0.326  0.6631  1.3979 -0.1622
 7253TIP3   OH243173   0.895   6.370   4.185  0.1827  0.2998  0.1133
 7253TIP3    H143174   0.844   6.367   4.266  1.3737  0.0351  0.8622
 7253TIP3    H243175   0.847   6.312   4.125  0.2015 -0.8273  1.1599
 7254TIP3   OH243176   1.237   2.023  12.034  0.1925  0.2076  0.1396
 7254TIP3    H143177   1.309   2.063  11.986  1.1668 -2.4117 -0.6668
 7254TIP3    H243178   1.159   2.073  12.007  1.2579  1.1291 -1.2753
 7255TIP3   OH243179   4.451   6.634  16.961  0.1292  0.0238 -0.4365
 7255TIP3    H143180   4.378   6.633  16.899 -1.6424 -0.5565  1.6253
 7255TIP3    H243181   4.516   6.692  16.920 -1.4793  0.5938 -2.2659
 7256TIP3   OH243182   3.267   5.260   3.072  0.0950 -0.2865 -0.4717
 7256TIP3    H143183   3.351   5.217   3.085  0.4818  0.4726 -0.4385
 7256TIP3    H243184   3.281   5.317   2.996 -0.5245 -0.5211 -0.7608
 7257TIP3   OH243185   0.490   1.696  15.772  0.1614  0.1950  0.1852
 7257TIP3    H143186   0.473   1.790  15.782  1.4792  0.4488  0.1430
 7257TIP3    H243187   0.585   1.690  15.764  0.0554 -1.1179 -0.1643
 7258TIP3   OH243188   0.671   6.676   2.887 -0.0449 -0.0765  0.1090
 7258TIP3    H143189   0.615   6.630   2.950  1.1287 -1.0584  0.4546
 7258TIP3    H243190   0.725   6.734   2.941 -0.6644  0.8220 -0.2186
 7259TIP3   OH243191   4.558   4.426  12.693  0.1710 -0.6211 -0.0431
 7259TIP3    H143192   4.568   4.356  12.757 -0.8815 -0.4531  0.3130
 7259TIP3    H243193   4.553   4.506  12.746 -0.8132 -0.4907 -0.3244
 7260TIP3   OH243194   0.074   5.094  16.413 -0.7052 -0.0388 -0.7749
 7260TIP3    H143195   0.154   5.045  16.432  0.4260  1.7618 -0.8913
 7260TIP3    H243196   0.019   5.080  16.490  1.3042  1.9659  1.0488
 7261TIP3   OH243197   0.065   1.589  13.314  0.3141 -0.1703  0.7750
 7261TIP3    H143198   0.098   1.508  13.352  0.7932 -1.0237 -1.3855
 7261TIP3    H243199   0.081   1.655  13.381 -0.4816 -1.9258  2.7317
 7262TIP3   OH243200   2.358   6.078   1.707  0.3130  0.3235 -0.1260
 7262TIP3    H143201   2.272   6.071   1.667 -0.1943 -2.3889  1.3563
 7262TIP3    H243202   2.414   6.019   1.656  0.2295 -1.2860  1.5840
 7263TIP3   OH243203   6.051   3.350   5.281  0.2573  0.3551  0.5109
 7263TIP3    H143204   6.041   3.395   5.197  2.0474 -0.8308 -0.3482
 7263TIP3    H243205   6.145   3.336   5.291 -0.1215 -1.6561  1.5895
 7264TIP3   OH243206   4.403   5.901   1.818  0.3475 -0.1079 -0.3828
 7264TIP3    H143207   4.473   5.863   1.871  0.8721 -0.7575 -1.5191
 7264TIP3    H243208   4.408   5.855   1.735 -2.0688 -0.8510 -0.1523
 7265TIP3   OH243209   6.199   0.241  15.162 -0.0789  0.3317  0.1083
 7265TIP3    H143210   6.189   0.229  15.256  1.5337 -0.9775  0.1150
 7265TIP3    H243211   6.253   0.320  15.153  0.7768 -0.2347  0.2977
 7266TIP3   OH243212   0.419   3.399  12.932 -0.1347 -0.0132 -0.1586
 7266TIP3    H143213   0.344   3.455  12.915  0.7168  1.3727  0.5712
 7266TIP3    H243214   0.409   3.372  13.024  0.2688  0.1862 -0.0560
 7267TIP3   OH243215   5.533   3.127   2.334 -0.4847 -0.2396 -0.1983
 7267TIP3    H143216   5.443   3.160   2.331  0.3334  2.1039 -0.1298
 7267TIP3    H243217   5.584   3.192   2.286  0.9680 -2.3131 -1.5515
 7268TIP3   OH243218   6.741   6.082  16.482  0.2752  0.2564  0.3358
 7268TIP3    H143219   6.739   6.160  16.428  1.2159 -0.4021 -0.6613
 7268TIP3    H243220   6.710   6.012  16.425 -0.4447 -0.1238  1.1828
 7269TIP3   OH243221   1.527   5.110   2.666 -0.8014 -0.0267 -0.2246
 7269TIP3    H143222   1.532   5.051   2.591 -1.2592  0.1156 -0.3730
 7269TIP3    H243223   1.437   5.100   2.698 -0.6141 -0.0733  0.2925
 7270TIP3   OH243224   1.484   0.645   4.595  0.1587 -0.2450  0.2819
 7270TIP3    H143225   1.576   0.657   4.619  0.8662 -2.7384 -0.9450
 7270TIP3    H243226   1.471   0.550   4.598 -2.0186 -0.0059 -0.8231
 7271TIP3   OH243227   4.520   4.510   0.155  0.6452  0.1578  0.4510
 7271TIP3    H143228   4.444   4.513   0.098  0.9132  0.2744  0.0962
 7271TIP3    H243229   4.594   4.493   0.096  0.9772  0.6690  0.7124
 7272TIP3   OH243230   1.501   4.644  12.732  0.0998 -0.4148 -0.0121
 7272TIP3    H143231   1.584   4.671  12.693  0.3441  0.7681  1.3065
 7272TIP3    H243232   1.525   4.581  12.800 -0.1774 -0.9642 -0.4167
 7273TIP3   OH243233   4.568   4.088  16.499 -0.0756 -0.6488  0.3551
 7273TIP3    H143234   4.539   4.122  16.583 -1.7208  0.0008 -0.4570
 7273TIP3    H243235   4.653   4.129  16.485 -0.1629 -0.1169  1.3134
 7274TIP3   OH243236   4.262   0.310  16.022 -0.1178  0.4604 -0.3000
 7274TIP3    H143237   4.236   0.320  16.114  0.0223  0.4144 -0.2534
 7274TIP3    H243238   4.239   0.394  15.982 -1.6017 -0.0615 -0.5688
 7275TIP3   OH243239   2.559   1.336   4.157  0.1375 -0.8475 -0.2940
 7275TIP3    H143240   2.551   1.405   4.092  0.5859 -0.7924 -0.2961
 7275TIP3    H243241   2.609   1.375   4.228 -1.4662 -0.5156  0.6597
 7276TIP3   OH243242   0.302   1.513  10.473  0.0251  0.2763 -0.3198
 7276TIP3    H143243   0.264   1.601  10.481 -1.4309 -0.4399  1.0793
 7276TIP3    H243244   0.227   1.454  10.486  1.6343 -1.1981  2.8237
 7277TIP3   OH243245   2.722   2.031  11.702 -0.8224 -0.5608 -0.7105
 7277TIP3    H143246   2.790   2.009  11.638  0.6943 -0.0471  0.6919
 7277TIP3    H243247   2.675   2.105  11.663  1.2885  0.9583 -0.4075
 7278TIP3   OH243248   4.996   1.545  11.872  0.1603  0.4610  0.5559
 7278TIP3    H143249   4.993   1.571  11.780  1.9266 -0.6879  0.1408
 7278TIP3    H243250   5.038   1.619  11.917 -2.3540  1.8036  0.7718
 7279TIP3   OH243251   2.238   4.050  12.802 -0.0558  0.3937 -0.1391
 7279TIP3    H143252   2.185   4.009  12.733  0.1291  2.6492 -1.6899
 7279TIP3    H243253   2.195   4.133  12.820  1.6903  1.2669  0.1745
 7280TIP3   OH243254   1.228   4.272  13.604  0.4520 -0.1363 -0.0710
 7280TIP3    H143255   1.151   4.260  13.659 -0.7761 -1.5189 -1.9856
 7280TIP3    H243256   1.225   4.197  13.544  2.7651  0.3173 -0.7845
 7281TIP3   OH243257   3.414   4.449   4.792 -0.1245 -0.4336  0.3919
 7281TIP3    H143258   3.408   4.356   4.770 -4.5887 -0.8845  2.9436
 7281TIP3    H243259   3.459   4.450   4.877  0.8175 -0.1645 -0.1061
 7282TIP3   OH243260   0.590   3.077  15.787  0.6016  0.5571 -0.2019
 7282TIP3    H143261   0.658   3.063  15.721  1.0838  0.6753  0.2686
 7282TIP3    H243262   0.637   3.112  15.862 -0.0117  0.8180  0.0567
 7283TIP3   OH243263   3.654   1.164  12.922 -0.0626  0.3949 -0.1280
 7283TIP3    H143264   3.575   1.129  12.882 -0.2835 -0.8084  1.3123
 7283TIP3    H243265   3.629   1.251  12.953 -0.6013  0.3341 -0.3872
 7284TIP3   OH243266   5.114   3.536  11.523 -0.3526  0.1407  0.5866
 7284TIP3    H143267   5.196   3.500  11.491 -0.2541 -1.4835  2.5961
 7284TIP3    H243268   5.047   3.498  11.466 -0.0363 -1.4216  1.2513
 7285TIP3   OH243269   4.658   2.299   4.801  0.1974  0.8578  0.6813
 7285TIP3    H143270   4.680   2.329   4.889  2.6302  1.9734 -0.2648
 7285TIP3    H243271   4.600   2.367   4.766 -1.0705  0.2294  1.5186
 7286TIP3   OH243272   6.133   6.115   5.919 -0.7196  0.3082 -0.2403
 7286TIP3    H143273   6.167   6.065   5.845  1.1830 -0.0474  0.8352
 7286TIP3    H243274   6.144   6.206   5.894  0.2584  0.1879 -0.2510
 7287TIP3   OH243275   0.029   1.111   5.723  0.7190  0.4720  0.6543
 7287TIP3    H143276   0.061   1.048   5.788 -0.3698  0.1693  0.9167
 7287TIP3    H243277  -0.048   1.069   5.685  0.2328  1.4526  0.5278
 7288TIP3   OH243278   6.277   0.136   3.258 -0.1840  0.1589  0.1856
 7288TIP3    H143279   6.369   0.113   3.266 -0.8164 -2.1590  1.1655
 7288TIP3    H243280   6.268   0.220   3.303  1.3618  0.1916  0.4308
 7289TIP3   OH243281   6.002   4.246  10.607  0.2972  0.4885  1.1301
 7289TIP3    H143282   6.002   4.213  10.696 -1.3606 -1.6922  0.3528
 7289TIP3    H243283   5.922   4.211  10.568  0.9729  1.4410 -1.1982
 7290TIP3   OH243284   3.346   6.349   3.958 -0.5130 -0.2653 -0.5301
 7290TIP3    H143285   3.390   6.412   3.901  2.0917 -2.4697 -1.0391
 7290TIP3    H243286   3.289   6.299   3.899 -0.9964  0.2263 -0.4812
 7291TIP3   OH243287   3.024   1.203  17.181  0.1707 -0.6014 -0.5401
 7291TIP3    H143288   3.025   1.296  17.157 -2.2023  0.1835  2.1778
 7291TIP3    H243289   2.981   1.161  17.107 -2.1929  1.0358 -0.1624
 7292TIP3   OH243290   0.832   1.217  15.444 -0.3563  0.4553 -0.0803
 7292TIP3    H143291   0.783   1.157  15.501  0.1706  0.2146  0.1248
 7292TIP3    H243292   0.844   1.296  15.497 -0.6966  0.5882 -0.2027
 7293TIP3   OH243293   1.594   3.108  11.104  0.0892  0.2008 -0.3644
 7293TIP3    H143294   1.525   3.076  11.046 -0.3489  2.7145 -1.3104
 7293TIP3    H243295   1.577   3.202  11.111  2.4678  0.5820  0.6813
 7294TIP3   OH243296   0.696   1.104   0.679 -0.2728  0.0561 -0.1024
 7294TIP3    H143297   0.734   1.109   0.591 -0.2009 -0.7365 -0.1178
 7294TIP3    H243298   0.620   1.048   0.668 -1.3912  1.5189 -0.0437
 7295TIP3   OH243299   5.894   2.518  16.863 -0.0490  0.4221 -0.3001
 7295TIP3    H143300   5.826   2.451  16.855  1.7718 -1.5737  0.4504
 7295TIP3    H243301   5.863   2.575  16.934 -0.4221 -1.0907  0.7686
 7296TIP3   OH243302   5.098   0.883  16.867 -0.4942 -0.6723  0.3831
 7296TIP3    H143303   5.061   0.846  16.947 -2.7970  1.0998  0.1794
 7296TIP3    H243304   5.046   0.844  16.796 -0.2817 -0.1243 -0.0779
 7297TIP3   OH243305   1.228   5.834  16.470  0.5141  0.5505  0.3952
 7297TIP3    H143306   1.318   5.841  16.437  0.8786  2.3668  1.7416
 7297TIP3    H243307   1.175   5.880  16.405  0.3982 -1.4265 -0.9496
 7298TIP3   OH243308   0.570   3.757  14.949 -0.0940 -0.4554  0.1342
 7298TIP3    H143309   0.482   3.749  14.914  0.5495  0.3771 -1.7229
 7298TIP3    H243310   0.589   3.670  14.986 -1.8003 -0.5329  0.9031
 7299TIP3   OH243311   0.248   1.050  12.908 -0.2643  0.2315 -0.6623
 7299TIP3    H143312   0.173   1.006  12.946 -0.3769  1.3180  0.3937
 7299TIP3    H243313   0.313   1.054  12.978 -0.1065  1.3809 -0.8599
 7300TIP3   OH243314   4.096   3.790   2.100  0.3283 -0.0371 -0.7859
 7300TIP3    H143315   4.167   3.774   2.038  1.8166  2.9345  0.0351
 7300TIP3    H243316   4.126   3.865   2.151 -2.8447  0.4320  0.4887
 7301TIP3   OH243317   0.167   3.675   4.378 -0.0966  1.0045 -0.3236
 7301TIP3    H143318   0.112   3.609   4.336  1.7580 -0.4887 -0.4336
 7301TIP3    H243319   0.109   3.718   4.441 -1.4029 -0.4963 -0.4843
 7302TIP3   OH243320   1.707   1.993   0.314  0.2839 -0.7025 -0.3248
 7302TIP3    H143321   1.761   2.046   0.372 -0.0112 -0.4301 -0.2994
 7302TIP3    H243322   1.683   2.052   0.243  1.1031 -1.1846 -1.0146
 7303TIP3   OH243323   6.080   5.004  14.188 -0.8832 -0.2743  0.2342
 7303TIP3    H143324   5.996   4.966  14.162 -1.2294  0.4892  0.2318
 7303TIP3    H243325   6.057   5.076  14.246 -0.2110 -0.3059  0.5471
 7304TIP3   OH243326   2.438   2.050   3.691 -0.3269 -0.4890  0.0051
 7304TIP3    H143327   2.479   1.970   3.658  1.4056 -1.3255  3.8941
 7304TIP3    H243328   2.502   2.118   3.672 -0.8398 -0.3565 -1.3313
 7305TIP3   OH243329   0.029   1.710  16.239  0.0001  0.1178  0.3644
 7305TIP3    H143330   0.058   1.749  16.321  0.6137  0.2146  0.1041
 7305TIP3    H243331   0.109   1.700  16.187 -0.4544  0.6274 -0.4557
 7306TIP3   OH243332   5.339   1.843   5.936 -0.4993 -0.7308 -0.3468
 7306TIP3    H143333   5.382   1.808   5.858 -0.4349 -1.9784  0.2227
 7306TIP3    H243334   5.388   1.806   6.010 -2.0500 -1.5863  0.3034
 7307TIP3   OH243335   4.701   5.689  15.483  0.4754  0.8167 -0.1182
 7307TIP3    H143336   4.783   5.639  15.475 -0.1019 -0.5339  2.0352
 7307TIP3    H243337   4.730   5.777  15.508  1.1953 -0.2324  2.8834
 7308TIP3   OH243338   3.246   5.471  12.920 -0.0590 -0.3865 -0.1482
 7308TIP3    H143339   3.317   5.424  12.964  0.0910 -0.4961 -0.4994
 7308TIP3    H243340   3.291   5.532  12.861 -0.2391  1.0049  1.1157
 7309TIP3   OH243341   6.009   3.259  10.716  0.5515 -1.0436  0.4376
 7309TIP3    H143342   6.001   3.266  10.621  0.3554  1.2442  0.5848
 7309TIP3    H243343   6.102   3.241  10.732  0.4735 -2.0088 -0.2098
 7310TIP3   OH243344   2.602   5.793  13.063  0.4702 -0.0926  0.0085
 7310TIP3    H143345   2.623   5.828  12.976  2.0033 -2.0939 -0.4626
 7310TIP3    H243346   2.514   5.757  13.054  0.9868 -1.1228 -0.9801
 7311TIP3   OH243347   4.184   3.793  11.620 -0.4978 -0.2747 -0.0489
 7311TIP3    H143348   4.090   3.774  11.630 -0.3034 -0.4218  1.7994
 7311TIP3    H243349   4.194   3.881  11.656 -0.0263  0.0122 -0.8743
 7312TIP3   OH243350   3.049   6.504  15.760 -0.3969 -0.1922 -0.3182
 7312TIP3    H143351   3.093   6.461  15.834 -0.5785  1.0040  0.5077
 7312TIP3    H243352   2.956   6.504  15.784 -0.2590  1.8804  0.3769
 7313TIP3   OH243353   5.204   5.654   6.359  0.3804  0.0168  0.2396
 7313TIP3    H143354   5.166   5.741   6.348 -0.3706 -0.2988  0.2552
 7313TIP3    H243355   5.295   5.669   6.384  0.0846  0.8046  0.8502
 7314TIP3   OH243356   4.815   2.820   3.825 -0.1931  0.5643 -0.7541
 7314TIP3    H143357   4.833   2.896   3.770  0.3443 -0.2282 -1.6995
 7314TIP3    H243358   4.899   2.775   3.833 -0.5798 -0.1396 -0.5291
 7315TIP3   OH243359   1.848   5.141   0.724  0.0192  0.2512 -0.4767
 7315TIP3    H143360   1.921   5.163   0.666 -1.1626  1.3327 -1.5864
 7315TIP3    H243361   1.852   5.045   0.732  1.2693  0.2589 -0.8895
 7316TIP3   OH243362   6.289   1.720   1.982 -0.2194  0.2978 -0.0485
 7316TIP3    H143363   6.228   1.790   2.005 -2.1664 -0.9251 -1.2592
 7316TIP3    H243364   6.364   1.765   1.944 -1.4590  1.7393 -0.8559
 7317TIP3   OH243365   4.040   6.028  14.550  0.2578  0.0403  0.0641
 7317TIP3    H143366   3.973   6.096  14.545  1.6036  1.4534  0.7324
 7317TIP3    H243367   4.018   5.967  14.480 -1.2972  0.8716 -0.1892
 7318TIP3   OH243368   2.681   1.582  16.394  0.1530  0.0840 -0.5346
 7318TIP3    H143369   2.735   1.660  16.405  0.9137 -0.5009 -0.0774
 7318TIP3    H243370   2.744   1.512  16.374 -0.6408 -0.1206 -2.3933
 7319TIP3   OH243371   4.390   6.084   2.922  0.0356  0.1116  0.3366
 7319TIP3    H143372   4.484   6.097   2.918 -0.4284  3.6569 -1.3120
 7319TIP3    H243373   4.357   6.163   2.966 -2.0974 -1.5980  1.9397
 7320TIP3   OH243374   3.808   4.637  14.638  0.5594  0.0606  0.0093
 7320TIP3    H143375   3.902   4.623  14.644  0.5720 -0.4297 -1.3414
 7320TIP3    H243376   3.769   4.560  14.679  0.7291 -0.0379 -0.0145
 7321TIP3   OH243377   2.219   1.884   4.830 -0.3267  0.3825  0.5107
 7321TIP3    H143378   2.143   1.827   4.815  0.8998 -0.8074 -1.5546
 7321TIP3    H243379   2.285   1.826   4.868 -0.5316  1.4882  2.6125
 7322TIP3   OH243380   2.250   2.551  15.071  0.1366 -0.5559  0.4188
 7322TIP3    H143381   2.251   2.481  15.136  2.1950  0.0639  1.1003
 7322TIP3    H243382   2.294   2.624  15.114  0.2841  0.3286 -1.1838
 7323TIP3   OH243383   6.185   6.239  11.272 -0.1736 -0.1088  0.4857
 7323TIP3    H143384   6.207   6.332  11.271  0.5011 -0.2650 -1.1112
 7323TIP3    H243385   6.132   6.227  11.351 -2.0197  2.0176 -0.3889
 7324TIP3   OH243386   4.730   0.179  15.483 -0.2144  0.7366 -0.2148
 7324TIP3    H143387   4.728   0.219  15.396 -0.7073 -1.5544 -1.2876
 7324TIP3    H243388   4.819   0.194  15.515  0.3753  0.3927 -1.6865
 7325TIP3   OH243389   3.445   1.023  17.228 -0.2641 -0.1789  0.0633
 7325TIP3    H143390   3.536   0.994  17.219  0.0297  1.4317 -3.3061
 7325TIP3    H243391   3.451   1.119  17.232 -1.7922 -0.0647 -0.0551
 7326TIP3   OH243392   3.081   3.318   6.332 -0.5407 -0.3332 -0.1820
 7326TIP3    H143393   3.027   3.243   6.359  1.1511 -1.4971  0.0238
 7326TIP3    H243394   3.061   3.386   6.396 -0.7962 -1.1827  0.6565
 7327TIP3   OH243395   1.889   1.158   3.271  0.2792  0.3817 -0.3243
 7327TIP3    H143396   1.903   1.223   3.203  0.0707  0.9048  0.1277
 7327TIP3    H243397   1.955   1.177   3.337 -0.2644  0.6221  0.1608
 7328TIP3   OH243398   1.651   4.897   4.263 -0.1174  0.3525  0.3772
 7328TIP3    H143399   1.703   4.955   4.206  0.4611  1.0461  1.6033
 7328TIP3    H243400   1.627   4.952   4.337  1.3020 -1.2534  2.0621
 7329TIP3   OH243401   6.310   4.055   4.073 -0.5840 -0.5423 -0.3759
 7329TIP3    H143402   6.328   4.125   4.010 -0.3098 -0.6229 -0.3862
 7329TIP3    H243403   6.396   4.033   4.111 -0.6273 -1.0833 -0.5915
 7330TIP3   OH243404   0.648   0.228  12.596 -0.4204 -0.1037 -0.2776
 7330TIP3    H143405   0.596   0.245  12.674 -0.5380 -1.3354 -0.0816
 7330TIP3    H243406   0.602   0.276  12.526 -0.2901  1.0272  0.3997
 7331TIP3   OH243407   0.964   6.323   5.938  0.5218 -0.8014 -0.3360
 7331TIP3    H143408   0.925   6.236   5.941 -1.8887  0.2872  0.5617
 7331TIP3    H243409   0.897   6.382   5.972  2.4706  1.3050  0.0358
 7332TIP3   OH243410   5.120   6.140   2.298 -0.0025  0.2483  0.9623
 7332TIP3    H143411   5.201   6.188   2.280  0.3994 -0.4151  0.9931
 7332TIP3    H243412   5.050   6.206   2.288  0.4589  0.5956 -0.0011
 7333TIP3   OH243413   4.271   0.438  15.684 -0.6315  0.0746  0.1564
 7333TIP3    H143414   4.352   0.393  15.661 -0.2276  0.8828  0.0148
 7333TIP3    H243415   4.290   0.482  15.767 -1.0669 -0.1064  0.3568
 7334TIP3   OH243416   2.149   0.530  13.741 -0.1914  0.6235 -0.3378
 7334TIP3    H143417   2.169   0.455  13.797 -2.8530  1.5809  2.0059
 7334TIP3    H243418   2.053   0.531  13.736 -0.1650  3.2881 -1.1142
 7335TIP3   OH243419   4.901   6.606   4.866 -0.1448  0.7935 -0.8661
 7335TIP3    H143420   4.922   6.621   4.774 -1.4833  0.0982 -1.2989
 7335TIP3    H243421   4.951   6.528   4.890 -0.5017  0.4385 -1.2699
 7336TIP3   OH243422   3.903   0.529  15.644  0.3988 -0.4355 -0.0956
 7336TIP3    H143423   3.967   0.599  15.658  0.7708 -0.9990  1.0603
 7336TIP3    H243424   3.818   0.574  15.643  0.5932 -0.0316  1.1823
 7337TIP3   OH243425   0.273   0.547  13.334  0.6116 -0.3708 -0.4186
 7337TIP3    H143426   0.256   0.625  13.282  0.2659 -1.4063 -1.8822
 7337TIP3    H243427   0.194   0.535  13.386 -0.1796 -0.9345 -1.7377
 7338TIP3   OH243428   4.652   5.539   5.438  0.1452  0.3390  0.5097
 7338TIP3    H143429   4.638   5.445   5.452  0.5218  0.4521  1.7145
 7338TIP3    H243430   4.717   5.563   5.504  1.2216  1.1308 -0.8131
 7339TIP3   OH243431   1.154   5.651  16.712  0.2244  0.8671  0.1350
 7339TIP3    H143432   1.218   5.698  16.659 -0.4047 -0.4301 -1.8262
 7339TIP3    H243433   1.092   5.719  16.741  0.2154  1.5041 -1.3442
 7340TIP3   OH243434   1.264   1.111   1.002  0.2741 -0.2645 -0.0358
 7340TIP3    H143435   1.331   1.177   1.019  0.4651 -0.2263 -0.9371
 7340TIP3    H243436   1.281   1.043   1.067  0.8030  0.0285  0.1382
 7341TIP3   OH243437   4.443   2.204   2.094  0.1482 -0.4654 -1.1302
 7341TIP3    H143438   4.351   2.201   2.121  0.1446 -2.2437 -1.2527
 7341TIP3    H243439   4.463   2.297   2.087 -1.0858 -0.0166  0.8145
 7342TIP3   OH243440   5.516   5.431   0.009  0.4172  0.1402 -0.6861
 7342TIP3    H143441   5.485   5.427   0.099 -1.2447 -1.8232 -1.3331
 7342TIP3    H243442   5.464   5.367  -0.039  2.6067 -0.2716 -2.6622
 7343TIP3   OH243443   2.045   6.548  13.105  0.1918  0.2776 -0.4130
 7343TIP3    H143444   2.049   6.475  13.167  0.3721  0.1845 -0.5319
 7343TIP3    H243445   1.963   6.592  13.124 -0.1158 -0.2026 -0.6123
 7344TIP3   OH243446   2.857   4.977  15.272  0.0269  0.3976  0.1975
 7344TIP3    H143447   2.868   5.030  15.193 -0.0952  0.8283  0.4671
 7344TIP3    H243448   2.934   4.997  15.325  0.5511 -0.5705 -0.2036
 7345TIP3   OH243449   0.943   3.602  12.292  0.2550 -0.2650  0.0494
 7345TIP3    H143450   0.956   3.696  12.304 -0.1785 -0.3232  0.9653
 7345TIP3    H243451   0.885   3.576  12.363  0.6007 -1.2798 -0.0295
 7346TIP3   OH243452   3.607   4.089  11.929 -0.2142  0.0914  0.8167
 7346TIP3    H143453   3.537   4.145  11.897  1.1376  1.8866  0.9181
 7346TIP3    H243454   3.638   4.133  12.008  2.9999  0.9151 -0.8525
 7347TIP3   OH243455   2.240   4.930  17.194  0.2764  0.2072 -0.0291
 7347TIP3    H143456   2.300   4.898  17.261  0.2592  0.4947  0.1263
 7347TIP3    H243457   2.177   4.858  17.181  1.6451 -0.7740 -1.4288
 7348TIP3   OH243458   3.622   3.030   5.338 -0.2149  0.4246 -0.0051
 7348TIP3    H143459   3.657   3.011   5.425 -1.4044 -1.5559  0.0870
 7348TIP3    H243460   3.568   3.108   5.350  1.1631  1.3032  0.6123
 7349TIP3   OH243461   3.706   2.748   4.409  0.3443  1.4500  0.3246
 7349TIP3    H143462   3.710   2.811   4.337  1.6736  1.7948  0.6944
 7349TIP3    H243463   3.615   2.753   4.440 -1.1168 -0.9337 -3.2859
 7350TIP3   OH243464   4.719   6.725  12.232  0.8043  0.0412 -0.0862
 7350TIP3    H143465   4.728   6.820  12.231  2.4788 -0.0946  0.1847
 7350TIP3    H243466   4.736   6.699  12.141  0.3204  0.0083 -0.1654
 7351TIP3   OH243467   5.548   2.727   1.294 -0.3459  0.3037  0.4039
 7351TIP3    H143468   5.642   2.743   1.303 -0.3202  0.8802 -0.8209
 7351TIP3    H243469   5.541   2.632   1.284  0.2462  0.4098 -1.1028
 7352TIP3   OH243470   5.714   4.544  15.130  0.3829 -0.2574  0.4658
 7352TIP3    H143471   5.623   4.571  15.140  0.9268  1.3261  1.2537
 7352TIP3    H243472   5.713   4.484  15.056 -1.3275 -0.4147  0.5918
 7353TIP3   OH243473   1.319   0.986  13.012 -0.4491  0.1928  0.2838
 7353TIP3    H143474   1.369   1.065  13.033  0.2520 -0.5048  1.2562
 7353TIP3    H243475   1.229   1.007  13.040 -0.8925  1.7370 -2.2003
 7354TIP3   OH243476   2.822   1.097  12.138  0.9003  0.0258  0.0486
 7354TIP3    H143477   2.864   1.101  12.052  1.2627 -1.7015  0.1120
 7354TIP3    H243478   2.765   1.020  12.133 -0.0678  0.6694  0.9264
 7355TIP3   OH243479   2.786   6.234  11.101 -0.2638 -0.7144  0.3225
 7355TIP3    H143480   2.752   6.147  11.123 -0.3253 -0.6481  0.4882
 7355TIP3    H243481   2.822   6.224  11.013  1.9889 -1.5472  1.3266
 7356TIP3   OH243482   3.663   1.987  13.997  1.0874 -0.3096 -0.2144
 7356TIP3    H143483   3.752   2.016  13.980  1.1540 -0.3967 -0.0168
 7356TIP3    H243484   3.658   1.898  13.961  1.4913 -0.8322  1.0086
 7357TIP3   OH243485   1.977   2.933  14.633  0.4128 -0.1257  0.2058
 7357TIP3    H143486   2.003   2.841  14.627  1.4508  0.1267  0.8243
 7357TIP3    H243487   2.037   2.971  14.697 -2.2723  0.1689  2.6565
 7358TIP3   OH243488   5.130   3.616  16.648 -0.5160 -0.0610 -0.3036
 7358TIP3    H143489   5.066   3.674  16.607 -1.0704  1.4087  2.5329
 7358TIP3    H243490   5.199   3.674  16.679  0.3515 -1.2390  0.0186
 7359TIP3   OH243491   6.182   4.981  12.778  0.5300  0.3442  0.5518
 7359TIP3    H143492   6.200   4.887  12.783 -0.5554  0.1368  0.7514
 7359TIP3    H243493   6.091   4.989  12.806  0.3441  1.3581 -0.3129
 7360TIP3   OH243494   6.319   5.066  13.551 -0.6689 -0.3166 -0.2902
 7360TIP3    H143495   6.311   5.066  13.646  0.5019  0.8331 -0.1751
 7360TIP3    H243496   6.298   5.156  13.525  0.6094 -0.2005 -0.9588
 7361TIP3   OH243497   0.648   4.699   4.364 -0.4393 -0.4938 -0.2720
 7361TIP3    H143498   0.615   4.612   4.386  0.1411 -0.0993  2.3319
 7361TIP3    H243499   0.583   4.759   4.401 -0.5162  0.2012 -1.5063
 7362TIP3   OH243500   2.616   5.595  14.290  0.4639 -0.2453 -0.1102
 7362TIP3    H143501   2.601   5.582  14.196 -0.7940  0.0463  0.0445
 7362TIP3    H243502   2.592   5.687  14.305  1.3758 -0.0850  0.3525
 7363TIP3   OH243503   1.407   4.182  15.314 -0.0587 -0.0256 -0.2411
 7363TIP3    H143504   1.339   4.247  15.300  0.4767  0.7026  0.5113
 7363TIP3    H243505   1.364   4.111  15.360 -0.5335  0.0002 -0.6428
 7364TIP3   OH243506   0.680   4.879   0.876  0.4488 -0.1653  0.0660
 7364TIP3    H143507   0.746   4.830   0.826  0.0219 -0.2421 -0.4210
 7364TIP3    H243508   0.612   4.900   0.813 -0.1143 -0.2874  0.6177
 7365TIP3   OH243509   6.434   2.023  12.671 -0.7723 -0.0926 -0.5238
 7365TIP3    H143510   6.440   2.003  12.577 -0.7096 -2.0757 -0.1124
 7365TIP3    H243511   6.523   2.008  12.704 -0.6540  1.1860 -0.2427
 7366TIP3   OH243512   1.123   1.307  14.157 -0.0490 -0.0518  0.3078
 7366TIP3    H143513   1.186   1.263  14.100  2.1764  1.2630  1.6700
 7366TIP3    H243514   1.117   1.396  14.123 -1.0228 -0.0857  0.3533
 7367TIP3   OH243515   3.926   4.075   3.860  0.2942  0.1329  0.7924
 7367TIP3    H143516   3.865   4.031   3.920 -2.0127  1.2635 -0.6666
 7367TIP3    H243517   3.965   4.003   3.810  1.2712 -0.7190  2.7020
 7368TIP3   OH243518   1.265   5.388   3.109 -0.5067 -0.2970  0.3164
 7368TIP3    H143519   1.192   5.446   3.127  0.2253  0.9492 -0.5969
 7368TIP3    H243520   1.266   5.326   3.182 -1.9789  0.1511  0.7298
 7369TIP3   OH243521   2.936   6.213  15.636  0.0777  0.0832  0.0321
 7369TIP3    H143522   2.964   6.302  15.658  0.6700  0.1662 -1.0173
 7369TIP3    H243523   2.841   6.219  15.627  0.3487  1.2694 -2.8160
 7370TIP3   OH243524   3.909   1.412   3.190 -0.1924  0.1777 -0.1221
 7370TIP3    H143525   3.837   1.427   3.251  0.4429 -2.7859  1.4634
 7370TIP3    H243526   3.982   1.464   3.224 -0.4201  0.0699  0.5321
 7371TIP3   OH243527   3.029   4.223  14.677 -0.0587 -0.1284  0.1562
 7371TIP3    H143528   3.063   4.246  14.591 -1.1183  1.2345  0.0963
 7371TIP3    H243529   2.998   4.305  14.715 -2.0374 -1.1088  0.7542
 7372TIP3   OH243530   5.699   6.775  12.401 -0.1551 -0.6941 -0.1548
 7372TIP3    H143531   5.759   6.802  12.470 -0.6357  1.2505 -0.4690
 7372TIP3    H243532   5.744   6.701  12.358  0.9694 -0.7286  1.0514
 7373TIP3   OH243533   5.631   4.528  12.225 -0.2317 -0.2151  0.0375
 7373TIP3    H143534   5.659   4.465  12.158 -0.3438  0.6413 -0.8371
 7373TIP3    H243535   5.661   4.613  12.191 -0.3141  0.2325  1.0708
 7374TIP3   OH243536   4.083   2.205   1.078  0.2835  0.6999 -0.2552
 7374TIP3    H143537   4.091   2.197   0.983  0.1936 -0.4461 -0.1723
 7374TIP3    H243538   4.153   2.149   1.113 -2.8899 -3.0969  0.3754
 7375TIP3   OH243539   3.361   6.489  14.798 -0.7541  0.2563 -0.6245
 7375TIP3    H143540   3.354   6.428  14.872  1.0209  0.4353 -0.2748
 7375TIP3    H243541   3.271   6.516  14.780 -1.4550 -1.5631 -0.0203
 7376TIP3   OH243542   4.157   1.130  14.562  0.0089  0.0273 -0.2191
 7376TIP3    H143543   4.190   1.066  14.625  0.6308  0.3155 -0.2457
 7376TIP3    H243544   4.144   1.080  14.482  1.2360  0.0738 -0.4645
 7377TIP3   OH243545   6.243   0.744   3.974  0.0035 -0.6014  0.2662
 7377TIP3    H143546   6.338   0.740   3.967 -0.0042 -0.7151  0.2177
 7377TIP3    H243547   6.215   0.800   3.902 -0.1710 -2.7503 -1.4177
 7378TIP3   OH243548   5.869   2.868   6.336  0.3081 -0.4590  0.5672
 7378TIP3    H143549   5.784   2.825   6.336 -0.7537  1.5644 -1.6387
 7378TIP3    H243550   5.916   2.827   6.409 -2.2208 -2.1868  1.3003
 7379TIP3   OH243551   5.422   5.456  12.917  0.2066 -0.4347  0.4343
 7379TIP3    H143552   5.483   5.526  12.938 -1.7651  2.1829 -2.1491
 7379TIP3    H243553   5.360   5.455  12.990  0.3467  0.4142  0.5661
 7380TIP3   OH243554   3.981   3.859   5.588 -0.5488 -0.2903 -0.1109
 7380TIP3    H143555   4.055   3.892   5.538 -0.8987  0.6679 -0.0138
 7380TIP3    H243556   3.905   3.904   5.550 -0.7618  0.8751  1.6186
 7381TIP3   OH243557   5.979   3.548  13.059 -0.2442 -0.1250  0.4258
 7381TIP3    H143558   5.919   3.622  13.052  1.1584  1.0521  0.5567
 7381TIP3    H243559   6.005   3.547  13.151  1.6869  0.8285 -0.0679
 7382TIP3   OH243560   5.465   2.689  14.863  0.2767 -0.4717  0.1877
 7382TIP3    H143561   5.413   2.656  14.790  0.9592 -0.0384 -0.5045
 7382TIP3    H243562   5.526   2.619  14.883  2.1421  0.5667 -1.6903
 7383TIP3   OH243563   6.557   3.275  15.507  0.3335 -0.4912 -0.1521
 7383TIP3    H143564   6.625   3.212  15.532  0.3206  0.0115  1.2229
 7383TIP3    H243565   6.475   3.234  15.532  0.3240  0.0420  0.7366
 7384TIP3   OH243566   3.565   4.668  16.315 -0.3081  0.0549  0.3876
 7384TIP3    H143567   3.494   4.715  16.271 -0.6394 -0.7006  0.1133
 7384TIP3    H243568   3.520   4.611  16.378  0.0988  0.1921  0.8079
 7385TIP3   OH243569   5.840   3.149  13.731 -0.1289  0.0857  0.4215
 7385TIP3    H143570   5.767   3.103  13.773 -0.8903  0.5187 -0.4200
 7385TIP3    H243571   5.883   3.196  13.803 -3.1118  3.0785  0.3184
 7386TIP3   OH243572   6.330   6.556   3.877  0.2850  0.4783  0.5405
 7386TIP3    H143573   6.281   6.593   3.803  1.8449  0.1071 -0.7164
 7386TIP3    H243574   6.277   6.482   3.906  0.9013 -0.9529 -1.8909
 7387TIP3   OH243575   5.967   5.828   5.049 -0.3745 -0.1236 -0.2481
 7387TIP3    H143576   5.936   5.820   5.139  1.7317 -0.2458  0.5099
 7387TIP3    H243577   6.062   5.813   5.055  0.0850  1.7129 -2.2156
 7388TIP3   OH243578   6.174   2.230  12.119  0.6712 -0.4531 -0.6517
 7388TIP3    H143579   6.152   2.256  12.208  0.8495 -0.3964 -0.6239
 7388TIP3    H243580   6.181   2.134  12.123 -0.7460 -0.5761 -0.9299
 7389TIP3   OH243581   0.884   0.056  14.416 -0.5664  0.4890 -0.0666
 7389TIP3    H143582   0.837  -0.026  14.432  1.2477 -0.8194 -1.2521
 7389TIP3    H243583   0.871   0.074  14.323  1.3715  0.0311 -0.4494
 7390TIP3   OH243584   3.798   6.091  13.619  0.5450  0.2641 -0.5791
 7390TIP3    H143585   3.770   6.093  13.527  2.0050  4.4520 -1.0454
 7390TIP3    H243586   3.872   6.151  13.622  1.4868 -1.0102  3.0772
 7391TIP3   OH243587   1.952   3.772   3.449  0.1333  0.2903  0.2534
 7391TIP3    H143588   1.906   3.706   3.398  0.9158 -0.3329  0.3478
 7391TIP3    H243589   2.040   3.773   3.413  0.8362 -0.5129  1.9221
 7392TIP3   OH243590   5.261   4.459   1.283 -0.1697  0.0562 -0.6392
 7392TIP3    H143591   5.192   4.438   1.346  0.1835  1.2712  0.1783
 7392TIP3    H243592   5.215   4.501   1.211 -0.3421  0.5211 -0.2646
 7393TIP3   OH243593   5.533   6.750  11.767  0.0920  0.1050 -0.3985
 7393TIP3    H143594   5.475   6.791  11.832 -2.3272  2.9847 -4.1918
 7393TIP3    H243595   5.506   6.658  11.766 -1.6450  0.5819  0.7497
 7394TIP3   OH243596   2.438   4.076   4.839  0.2964  0.2204 -0.0516
 7394TIP3    H143597   2.401   3.998   4.797 -0.0425 -0.0942  0.8221
 7394TIP3    H243598   2.454   4.137   4.767 -0.3185 -0.2969 -0.6289
 7395TIP3   OH243599   1.572   6.011   1.452  0.1024 -0.4658 -0.1776
 7395TIP3    H143600   1.504   6.020   1.384  0.3970  0.7946 -0.3070
 7395TIP3    H243601   1.552   5.927   1.493 -1.4615 -0.1845 -0.3133
 7396TIP3   OH243602   4.138   6.449  15.416  0.8728 -0.4281 -0.2102
 7396TIP3    H143603   4.126   6.358  15.388 -0.2443  0.5003 -2.9502
 7396TIP3    H243604   4.167   6.443  15.507 -2.2144 -3.4298  0.6546
 7397TIP3   OH243605   3.589   4.143   3.468  0.1080 -0.1427 -0.2984
 7397TIP3    H143606   3.629   4.224   3.437 -0.6464 -0.0417 -1.0212
 7397TIP3    H243607   3.608   4.141   3.562  0.4920  0.6614 -0.3593
 7398TIP3   OH243608   0.263   1.227   1.423  0.2084  0.5926  0.0795
 7398TIP3    H143609   0.297   1.176   1.496  2.1863 -0.1528 -1.3250
 7398TIP3    H243610   0.170   1.238   1.443  0.0678 -2.1977  1.2176
 7399TIP3   OH243611   3.546   1.350   2.989 -1.1317 -0.2262 -0.8346
 7399TIP3    H143612   3.497   1.341   3.071 -1.7830  0.7989 -1.1013
 7399TIP3    H243613   3.568   1.443   2.984 -0.3253 -0.4366 -1.3946
 7400TIP3   OH243614   6.205   2.768  13.598 -0.2013  0.0805  0.8143
 7400TIP3    H143615   6.191   2.779  13.504  1.0454  0.5385  0.6699
 7400TIP3    H243616   6.147   2.695  13.622 -0.9105  0.2872 -0.2015
 7401TIP3   OH243617   6.254   6.424   1.128  0.0989 -0.2174 -0.0594
 7401TIP3    H143618   6.344   6.403   1.104 -0.4484 -0.5704 -1.8407
 7401TIP3    H243619   6.221   6.344   1.170  0.1581 -0.5785 -0.7011
 7402TIP3   OH243620   6.045   3.040  16.225  0.2407  0.3811 -0.0271
 7402TIP3    H143621   6.027   2.951  16.257  0.3169  0.2095 -0.4518
 7402TIP3    H243622   6.107   3.027  16.153  1.6061  0.9272  1.0369
 7403TIP3   OH243623   2.221   3.442  15.957  0.3382 -0.4149 -0.0885
 7403TIP3    H143624   2.262   3.466  16.040 -1.7490  0.9742  0.5899
 7403TIP3    H243625   2.130   3.473  15.965 -0.5731 -2.4681 -1.9303
 7404TIP3   OH243626   4.939   4.853  10.888 -0.1884 -0.3249 -0.0087
 7404TIP3    H143627   4.911   4.937  10.852 -0.1800 -0.5587 -0.5576
 7404TIP3    H243628   4.907   4.854  10.979 -0.4524  0.1401 -0.1077
 7405TIP3   OH243629   0.242   1.136  15.764 -0.0899 -0.3600  0.7970
 7405TIP3    H143630   0.260   1.042  15.766 -2.4709 -0.9394 -1.3762
 7405TIP3    H243631   0.221   1.158  15.855  1.8203 -1.6284  1.5727
 7406TIP3   OH243632   1.896   0.981   5.086  0.0433  0.0152 -0.0273
 7406TIP3    H143633   1.857   0.981   5.173 -1.7958  0.8543 -0.8322
 7406TIP3    H243634   1.948   1.061   5.084  0.1298 -0.0293  0.3052
 7407TIP3   OH243635   4.684   1.419   5.576 -0.1443 -1.0702 -0.0901
 7407TIP3    H143636   4.753   1.477   5.546 -0.8938 -1.3210 -2.3434
 7407TIP3    H243637   4.692   1.341   5.522 -2.6375 -0.7943 -0.9206
 7408TIP3   OH243638   0.174   2.773  11.366 -0.2121 -0.0495 -0.5475
 7408TIP3    H143639   0.270   2.768  11.362 -0.1159  0.2223  1.1480
 7408TIP3    H243640   0.154   2.864  11.344 -0.0768 -0.0655 -0.7424
 7409TIP3   OH243641   3.834   1.810  13.555 -0.0230  0.7176  0.0059
 7409TIP3    H143642   3.807   1.721  13.579  1.3521  0.4602  0.6963
 7409TIP3    H243643   3.840   1.808  13.460  1.0215 -0.2546  0.0744
 7410TIP3   OH243644   5.140   0.311   2.694  0.3504  0.6152  0.4938
 7410TIP3    H143645   5.110   0.339   2.781  0.9300 -1.3971  1.3847
 7410TIP3    H243646   5.135   0.216   2.697  2.1657  0.4381 -1.0338
 7411TIP3   OH243647   2.550   1.894   5.527 -0.1156  0.2161 -0.6209
 7411TIP3    H143648   2.478   1.887   5.590  0.3992  0.8266  0.0517
 7411TIP3    H243649   2.581   1.805   5.516  0.9051  0.3145  1.3233
 7412TIP3   OH243650   5.832   4.224  15.107  0.8802  0.5613 -0.5129
 7412TIP3    H143651   5.923   4.254  15.101  1.0804 -0.0358 -0.5279
 7412TIP3    H243652   5.833   4.139  15.063  0.0746  1.0669 -1.5269
 7413TIP3   OH243653   3.305   4.261   3.310  0.6399  0.6195  0.4139
 7413TIP3    H143654   3.389   4.227   3.341  0.1559 -0.4309  0.5800
 7413TIP3    H243655   3.241   4.229   3.373  0.2174  2.1999  0.8162
 7414TIP3   OH243656   5.384   3.056  15.341 -0.1930 -0.8165 -0.2242
 7414TIP3    H143657   5.461   3.089  15.294 -0.4828 -0.0304 -0.1640
 7414TIP3    H243658   5.330   3.015  15.273 -0.0714 -0.6913 -0.3971
 7415TIP3   OH243659   5.355   3.678   1.773 -0.3941  0.3496 -0.2549
 7415TIP3    H143660   5.288   3.656   1.838 -1.0985  0.6112 -0.8806
 7415TIP3    H243661   5.356   3.773   1.772  0.3093  0.3456  0.0742
 7416TIP3   OH243662   3.917   5.327   1.959  0.5456 -0.4641 -0.2598
 7416TIP3    H143663   3.969   5.395   2.003 -1.2286  0.3627  0.6212
 7416TIP3    H243664   3.982   5.266   1.924  2.1141  0.6805  0.5830
 7417TIP3   OH243665   6.479   1.238   3.498 -0.8508 -0.3041 -0.1966
 7417TIP3    H143666   6.513   1.192   3.574  0.9774  1.1854 -0.0917
 7417TIP3    H243667   6.384   1.234   3.508 -0.6291  0.2343  2.3869
 7418TIP3   OH243668   4.201   3.355   2.316 -0.2705  0.2038 -0.2382
 7418TIP3    H143669   4.114   3.388   2.340 -1.1592 -2.1070 -0.0779
 7418TIP3    H243670   4.189   3.318   2.229  1.2104  2.1928 -1.3071
 7419TIP3   OH243671   1.609   2.402  17.085 -0.0710  0.0784 -0.1539
 7419TIP3    H143672   1.607   2.370  16.994 -0.1020 -0.4972  0.0510
 7419TIP3    H243673   1.562   2.335  17.135  1.3070 -0.3817  0.5384
 7420TIP3   OH243674   6.413   4.328   4.168 -0.0749  0.3033 -0.3056
 7420TIP3    H143675   6.347   4.316   4.236  0.1119  2.6128  0.3250
 7420TIP3    H243676   6.362   4.341   4.088 -0.3971  1.5538  0.0895
 7421TIP3   OH243677   3.456   4.820  15.248 -0.6229  0.2558  0.2080
 7421TIP3    H143678   3.447   4.750  15.183 -1.1752  1.1867 -0.7295
 7421TIP3    H243679   3.528   4.874  15.215 -0.0893  0.0376  1.0126
 7422TIP3   OH243680   2.968   0.820   2.877  0.0326 -0.4248 -0.2354
 7422TIP3    H143681   3.007   0.740   2.913 -0.8404 -1.0325 -0.6321
 7422TIP3    H243682   3.040   0.884   2.878  0.3228 -0.7370  1.5638
 7423TIP3   OH243683   5.134   2.369  11.445  0.5954  0.1757 -0.0959
 7423TIP3    H143684   5.209   2.314  11.470  0.8822  0.8413  0.5510
 7423TIP3    H243685   5.174   2.450  11.412  0.1628  0.5115  0.1951
 7424TIP3   OH243686   1.562   5.538   2.384  0.0969  0.2608  0.2903
 7424TIP3    H143687   1.637   5.478   2.380 -0.3081 -0.1809 -0.5552
 7424TIP3    H243688   1.598   5.617   2.426  0.6776 -0.4860  1.2059
 7425TIP3   OH243689   3.657   5.403   3.374 -0.1931  0.0118  0.8112
 7425TIP3    H143690   3.633   5.364   3.290  1.0063  1.0300 -0.0189
 7425TIP3    H243691   3.739   5.360   3.398  0.4725  1.1021  0.5090
 7426TIP3   OH243692   2.345   0.465  13.266 -0.0657 -0.1315 -0.8218
 7426TIP3    H143693   2.263   0.421  13.288  0.9430 -1.8230 -0.3673
 7426TIP3    H243694   2.354   0.534  13.332  0.1024 -1.5235  0.6301
 7427TIP3   OH243695   5.064   4.530  10.548  0.7092 -0.1759  0.1565
 7427TIP3    H143696   4.989   4.564  10.598  1.9914 -0.5191  2.3769
 7427TIP3    H243697   5.038   4.442  10.522  0.4836 -0.4399  1.2602
 7428TIP3   OH243698   3.288   4.933  16.513 -0.1009 -0.1178  0.3530
 7428TIP3    H143699   3.321   4.870  16.577 -0.7376  1.2759  2.0908
 7428TIP3    H243700   3.217   4.978  16.558 -2.0308 -0.5953 -2.0915
 7429TIP3   OH243701   4.117   6.204   3.892 -0.3385 -0.3864  0.2652
 7429TIP3    H143702   4.098   6.292   3.860  2.2446  0.3504  0.6090
 7429TIP3    H243703   4.171   6.165   3.824 -0.5387 -1.2993  0.6211
 7430TIP3   OH243704   1.101   3.164  13.552  0.6481  0.1187 -0.1324
 7430TIP3    H143705   1.079   3.163  13.646  1.0551  0.2839 -0.0312
 7430TIP3    H243706   1.163   3.237  13.543  1.1490 -0.3380 -0.4052
 7431TIP3   OH243707   2.056   1.776  13.229 -0.3566 -0.2354  0.3587
 7431TIP3    H143708   1.991   1.714  13.196 -0.3919  0.6391 -1.3086
 7431TIP3    H243709   2.056   1.846  13.164 -0.8398  1.8755  2.5741
 7432TIP3   OH243710   6.227   0.216  14.336  0.1351  0.2464  0.1829
 7432TIP3    H143711   6.322   0.223  14.343  0.1266  0.7239 -0.1587
 7432TIP3    H243712   6.203   0.153  14.404  0.7037  0.0355  0.1950
 7433TIP3   OH243713   6.706   4.943  17.067 -0.5064  0.0430  0.2441
 7433TIP3    H143714   6.641   4.875  17.081  0.4982 -1.7538 -3.2267
 7433TIP3    H243715   6.665   5.003  17.005  0.3144  0.1367 -0.2078
 7434TIP3   OH243716   0.040   4.287  12.548  0.2091 -0.2759  0.3167
 7434TIP3    H143717   0.042   4.235  12.467  0.7280 -0.6969  0.5974
 7434TIP3    H243718  -0.024   4.242  12.603  1.2973 -1.1245  0.8952
 7435TIP3   OH243719   6.195   4.387  17.225  0.2515 -0.5752  0.1483
 7435TIP3    H143720   6.239   4.386  17.140  1.3116  2.4429  0.6131
 7435TIP3    H243721   6.112   4.430  17.209 -0.1248 -1.1872  0.4124
 7436TIP3   OH243722   4.499   2.415   2.589 -0.2162  0.2342 -0.1492
 7436TIP3    H143723   4.569   2.459   2.542 -0.2819  0.9328  0.3908
 7436TIP3    H243724   4.481   2.473   2.664 -0.3294 -0.6888  0.5489
 7437TIP3   OH243725   0.054   5.791   5.884 -0.1311 -0.1135 -0.3340
 7437TIP3    H143726   0.006   5.756   5.809 -0.9686 -0.0765  0.1791
 7437TIP3    H243727   0.146   5.766   5.868 -0.1211  0.9628 -1.9761
 7438TIP3   OH243728   3.365   1.711  14.789  0.0648  0.2154  0.0131
 7438TIP3    H143729   3.359   1.793  14.838  0.0952 -0.2481  0.7995
 7438TIP3    H243730   3.449   1.674  14.815  0.1621  0.0569 -0.5346
 7439TIP3   OH243731   1.779   5.041   6.060  0.0821 -0.2071  0.4133
 7439TIP3    H143732   1.756   4.962   6.108 -1.2603  0.5500  1.0617
 7439TIP3    H243733   1.698   5.092   6.058  0.9075  1.1252 -0.0477
 7440TIP3   OH243734   4.593   1.144   5.684  0.2031 -0.9211  0.1459
 7440TIP3    H143735   4.660   1.173   5.622 -1.9169  0.5129 -1.5368
 7440TIP3    H243736   4.610   1.196   5.763  1.6075 -1.2268  0.0695
 7441TIP3   OH243737   2.901   2.990   4.583 -0.2880  0.3317  0.0654
 7441TIP3    H143738   2.830   3.046   4.615  0.0442  1.3075 -0.9169
 7441TIP3    H243739   2.860   2.903   4.574 -0.6650  0.2763  2.0707
 7442TIP3   OH243740   4.572   4.555   4.160 -0.3697 -0.1744 -0.0939
 7442TIP3    H143741   4.510   4.628   4.173  1.6428  1.6291 -0.3263
 7442TIP3    H243742   4.565   4.504   4.241 -0.6141  1.2089  0.7777
 7443TIP3   OH243743   1.829   3.363   2.077 -0.1952  0.0450  0.1391
 7443TIP3    H143744   1.854   3.448   2.040 -1.0965  0.3123  0.1304
 7443TIP3    H243745   1.797   3.313   2.002  1.2034 -0.6493 -0.0198
 7444TIP3   OH243746   4.669   0.522  16.439  0.3390  0.3146  0.7590
 7444TIP3    H143747   4.629   0.480  16.363  2.6518 -0.0415 -0.3030
 7444TIP3    H243748   4.659   0.458  16.510  1.3227 -0.8758 -0.1488
 7445TIP3   OH243749   3.242   2.339   4.616  0.3158  0.3473 -0.6923
 7445TIP3    H143750   3.247   2.366   4.525 -2.6000  0.8981 -0.7339
 7445TIP3    H243751   3.182   2.265   4.616  0.2701  0.3684  0.7760
 7446TIP3   OH243752   2.749   3.842  16.462  0.4510  0.2934  0.2511
 7446TIP3    H143753   2.768   3.936  16.469  0.0809  0.3953 -0.0734
 7446TIP3    H243754   2.797   3.814  16.384  0.9698  0.1062  0.6419
 7447TIP3   OH243755   0.715   3.273  16.495  0.5490  0.1448  0.0255
 7447TIP3    H143756   0.719   3.199  16.434  0.3312  0.0778  0.0931
 7447TIP3    H243757   0.669   3.341  16.446  0.3707  0.0898  0.1140
 7448TIP3   OH243758   6.512   0.937   2.157 -0.0231  0.0549 -0.5557
 7448TIP3    H143759   6.500   1.022   2.113  0.3861 -0.1044 -0.9798
 7448TIP3    H243760   6.511   0.959   2.250 -2.6223  0.1667 -0.5815
 7449TIP3   OH243761   1.942   5.227  16.349 -0.4696  0.1669 -0.1849
 7449TIP3    H143762   1.972   5.234  16.259 -2.1039  0.5234 -0.7118
 7449TIP3    H243763   2.006   5.278  16.400 -0.2760  1.0534 -1.2991
 7450TIP3   OH243764   1.810   5.922   5.480  0.0768  0.0344  0.1455
 7450TIP3    H143765   1.852   5.836   5.487  1.1027  0.5891  0.9639
 7450TIP3    H243766   1.731   5.914   5.533  0.6452 -0.1306  0.9828
 7451TIP3   OH243767   3.879   5.007  15.733 -0.1764 -0.4765  0.1188
 7451TIP3    H143768   3.949   4.946  15.710  0.8779  0.6750  0.2143
 7451TIP3    H243769   3.841   5.033  15.650  0.3747 -0.1131 -0.0252
 7452TIP3   OH243770   5.223   4.404   0.957 -0.3630  0.2534 -0.2061
 7452TIP3    H143771   5.201   4.487   0.999  2.8557 -0.0577  2.2633
 7452TIP3    H243772   5.296   4.425   0.899  1.0998 -0.9634  1.1395
 7453TIP3   OH243773   1.636   1.276  11.461  0.0528  0.2117  0.0727
 7453TIP3    H143774   1.609   1.269  11.369 -0.0365 -0.0222  0.1185
 7453TIP3    H243775   1.728   1.302  11.457  0.2168 -0.3833 -0.0818
 7454TIP3   OH243776   5.739   4.823  16.620 -0.6312 -0.4482  0.7027
 7454TIP3    H143777   5.805   4.880  16.579 -1.5997  0.4597  0.4032
 7454TIP3    H243778   5.714   4.868  16.700 -2.3115  0.1684 -0.1528
 7455TIP3   OH243779   1.845   2.179   1.912 -0.2728 -0.2302 -0.1621
 7455TIP3    H143780   1.792   2.124   1.969  2.5819 -0.2236  2.6303
 7455TIP3    H243781   1.847   2.133   1.829 -0.1839 -2.9490  1.3066
 7456TIP3   OH243782   0.560   5.759   5.192  0.0009  0.3833  0.2244
 7456TIP3    H143783   0.554   5.821   5.265 -0.9692  0.0386  0.4529
 7456TIP3    H243784   0.649   5.723   5.198 -0.1864  0.0957  1.4706
 7457TIP3   OH243785   5.936   1.278  15.171  0.4374  0.2095 -0.1182
 7457TIP3    H143786   5.997   1.309  15.105  1.3774  0.1471  0.6985
 7457TIP3    H243787   5.985   1.213  15.221  0.1531  1.1222  1.3948
 7458TIP3   OH243788   6.636   6.595   0.936 -0.3606 -0.2477 -0.0368
 7458TIP3    H143789   6.710   6.562   0.885 -0.3443 -1.9148  1.0521
 7458TIP3    H243790   6.660   6.581   1.027 -1.1543  1.0882  0.4090
 7459TIP3   OH243791   1.273   1.582   5.140  0.2740  0.5568  0.5894
 7459TIP3    H143792   1.313   1.498   5.161  1.1258  0.6712 -0.5012
 7459TIP3    H243793   1.294   1.639   5.214 -0.3639 -0.2067  1.3584
 7460TIP3   OH243794   2.660   1.470  14.005 -0.6344 -0.2072  0.2609
 7460TIP3    H143795   2.621   1.479  14.092 -0.3356 -0.4917  0.4257
 7460TIP3    H243796   2.746   1.511  14.014 -1.3634  1.5392 -0.4245
 7461TIP3   OH243797   4.545   3.252   5.672 -0.1812 -0.0698 -0.1124
 7461TIP3    H143798   4.522   3.325   5.615 -0.0781 -0.1514 -0.2619
 7461TIP3    H243799   4.482   3.183   5.649 -1.2304  0.4794  1.0852
 7462TIP3   OH243800   4.318   5.448  16.423 -0.0311  0.3389  0.4389
 7462TIP3    H143801   4.323   5.536  16.459 -0.5457  0.1392  1.0188
 7462TIP3    H243802   4.305   5.460  16.329  1.7099  0.8708  0.2570
 7463TIP3   OH243803   2.573   0.952   5.639 -0.2005 -0.0500 -0.1462
 7463TIP3    H143804   2.490   0.914   5.670 -0.8713  0.2365 -1.5430
 7463TIP3    H243805   2.604   1.005   5.712 -0.8424 -0.8138  0.6929
 7464TIP3   OH243806   2.492   4.968   5.228  0.7660  0.0453 -0.2959
 7464TIP3    H143807   2.521   4.977   5.319  0.9492 -1.0772 -0.2382
 7464TIP3    H243808   2.531   5.042   5.183 -0.8760  1.6957  0.9221
 7465TIP3   OH243809   1.404   6.575  16.148  0.1426 -0.0512 -0.0334
 7465TIP3    H143810   1.399   6.536  16.061  0.9897  0.5882 -0.3820
 7465TIP3    H243811   1.487   6.623  16.148 -0.2836  0.7142  0.8040
 7466TIP3   OH243812   3.335   3.804  13.131 -0.1619  0.8654  0.4167
 7466TIP3    H143813   3.242   3.795  13.111 -0.0855 -1.1880  0.8186
 7466TIP3    H243814   3.344   3.893  13.164 -1.9088  1.2362 -0.0661
 7467TIP3   OH243815   0.004   5.275   3.475 -0.7392  0.1309 -0.5957
 7467TIP3    H143816   0.039   5.345   3.419  0.5476 -1.6860 -2.1381
 7467TIP3    H243817  -0.081   5.308   3.504 -0.8493  1.6795 -2.5461
 7468TIP3   OH243818   5.978   5.655   6.204  0.0282 -0.2766  0.1711
 7468TIP3    H143819   5.917   5.657   6.130 -0.4847  0.7553  0.6107
 7468TIP3    H243820   6.000   5.562   6.214 -0.1453 -0.4630 -1.0672
 7469TIP3   OH243821   4.633   0.902  13.735  0.6047  0.2247  0.0407
 7469TIP3    H143822   4.714   0.907  13.786  1.7483  0.2025 -1.7409
 7469TIP3    H243823   4.576   0.969  13.773  0.6284 -1.1808  2.7028
 7470TIP3   OH243824   4.641   0.851   5.193 -0.5351 -0.2866  0.6439
 7470TIP3    H143825   4.676   0.936   5.166  3.2044 -2.1712 -0.8661
 7470TIP3    H243826   4.656   0.848   5.288  0.0200  0.4503  0.5807
 7471TIP3   OH243827   4.704   1.315   2.107 -0.5795 -0.2405 -0.4734
 7471TIP3    H143828   4.664   1.300   2.022  0.9980 -1.8727 -0.9517
 7471TIP3    H243829   4.797   1.329   2.088 -0.3995  0.4961  0.8812
 7472TIP3   OH243830   0.163   0.112  12.886 -0.7854 -0.1301 -0.3558
 7472TIP3    H143831   0.234   0.075  12.938 -0.8315  0.0819 -0.1399
 7472TIP3    H243832   0.089   0.115  12.947 -0.0972  2.7048  0.3977
 7473TIP3   OH243833   1.425   0.940  14.688 -0.3425  0.4033 -0.3512
 7473TIP3    H143834   1.371   0.862  14.673 -0.8863  0.6204  0.4220
 7473TIP3    H243835   1.482   0.945  14.611 -2.5151  1.0549 -1.9866
 7474TIP3   OH243836   5.616   2.271   4.716 -0.0375 -0.1016 -0.3871
 7474TIP3    H143837   5.552   2.342   4.705  0.3287  0.3798  0.4922
 7474TIP3    H243838   5.571   2.193   4.683 -1.9767 -0.2101  2.3275
 7475TIP3   OH243839   3.110   3.247   3.318  0.7956 -0.4893  0.4631
 7475TIP3    H143840   3.068   3.293   3.391 -0.4072 -0.6957 -0.0830
 7475TIP3    H243841   3.114   3.156   3.346  0.9005 -0.4616  0.5352
 7476TIP3   OH243842   5.298   6.173   1.568  0.4236  0.3511  0.9117
 7476TIP3    H143843   5.346   6.166   1.485 -2.4628 -1.4468 -0.6953
 7476TIP3    H243844   5.274   6.265   1.575  1.2047  0.6238  0.0450
 7477TIP3   OH243845   1.370   0.135   4.755  0.2991 -0.2293 -0.8377
 7477TIP3    H143846   1.319   0.128   4.836  1.5168  2.2377  0.1872
 7477TIP3    H243847   1.310   0.175   4.692 -0.3571 -1.3019 -0.9118
 7478TIP3   OH243848   2.328   3.153   0.017 -0.3605 -0.2489 -0.5189
 7478TIP3    H143849   2.287   3.098  -0.050  0.6930 -1.5894 -0.1049
 7478TIP3    H243850   2.264   3.156   0.088  0.4166 -2.8175  0.3694
 7479TIP3   OH243851   6.276   1.604   2.718  0.4596  0.3389  0.3470
 7479TIP3    H143852   6.294   1.540   2.649  1.1298  1.8170 -0.8815
 7479TIP3    H243853   6.180   1.609   2.722  0.3932 -0.9885  0.7155
 7480TIP3   OH243854   3.657   1.916  16.229  0.2308  0.2823 -0.7871
 7480TIP3    H143855   3.746   1.952  16.228  0.6167 -0.6156 -0.2664
 7480TIP3    H243856   3.647   1.876  16.143  0.1469  0.8284 -1.0285
 7481TIP3   OH243857   3.273   6.501  11.158  0.1391  0.3872  0.3343
 7481TIP3    H143858   3.198   6.463  11.204  0.2352  2.1776  2.0320
 7481TIP3    H243859   3.342   6.506  11.225  1.0427  0.8644 -0.6123
 7482TIP3   OH243860   1.356   6.043   1.293  0.4480 -1.0111  0.2406
 7482TIP3    H143861   1.373   5.954   1.263 -0.1729 -1.7824  2.0461
 7482TIP3    H243862   1.281   6.034   1.352 -0.0929  0.8243 -0.1384
 7483TIP3   OH243863   0.820   0.414  16.925 -0.3175  0.5391  0.3823
 7483TIP3    H143864   0.747   0.393  16.867  0.4514  0.2903 -0.5033
 7483TIP3    H243865   0.779   0.458  17.000 -1.2485  1.5035 -0.6676
 7484TIP3   OH243866   2.036   2.347  15.087 -0.3543 -0.1723 -0.2007
 7484TIP3    H143867   2.060   2.440  15.082  1.0679 -0.5162 -0.1233
 7484TIP3    H243868   2.054   2.313  14.999 -0.9028 -0.3649 -0.2389
 7485TIP3   OH243869   0.122   2.668  17.063 -0.1854 -0.0378  0.2623
 7485TIP3    H143870   0.033   2.638  17.076  0.9180 -2.0433  4.0817
 7485TIP3    H243871   0.166   2.596  17.018  0.0515 -0.0877  0.5662
 7486TIP3   OH243872   2.965   2.974   0.479  0.1723  0.8972 -0.0981
 7486TIP3    H143873   2.932   2.957   0.568 -0.7704  0.2346 -0.5663
 7486TIP3    H243874   2.886   2.985   0.426  0.6937 -0.1705 -1.1376
 7487TIP3   OH243875   4.859   1.220   1.045  0.5202 -0.2706  0.0563
 7487TIP3    H143876   4.946   1.256   1.063  0.4053 -0.1116  0.2883
 7487TIP3    H243877   4.799   1.292   1.061  0.3056 -0.5052  0.3264
 7488TIP3   OH243878   1.321   6.029  16.699 -0.5979 -0.0128 -0.5481
 7488TIP3    H143879   1.336   5.935  16.695 -0.2093  0.1181 -2.3999
 7488TIP3    H243880   1.381   6.060  16.767 -1.9469 -1.2982  1.3093
 7489TIP3   OH243881   5.616   5.368   5.391  0.3812 -0.6607  0.7863
 7489TIP3    H143882   5.560   5.440   5.363 -0.1274 -1.2932  0.1302
 7489TIP3    H243883   5.687   5.409   5.440 -0.3951  0.1966  1.1922
 7490TIP3   OH243884   6.678   4.892  14.415  0.3897  0.6661  0.0100
 7490TIP3    H143885   6.665   4.888  14.320  0.4437 -0.7452  0.0510
 7490TIP3    H243886   6.593   4.867  14.452  0.1352  2.0000  0.3415
 7491TIP3   OH243887   0.644   4.526  14.910  0.4166  0.1945  0.1645
 7491TIP3    H143888   0.626   4.454  14.971 -0.5540 -0.0051 -0.3536
 7491TIP3    H243889   0.579   4.593  14.932  0.9864  0.7105  0.3005
 7492TIP3   OH243890   0.397   3.968  12.897  0.1062  0.1371  0.2536
 7492TIP3    H143891   0.302   3.973  12.909 -0.0191  0.1656 -0.7421
 7492TIP3    H243892   0.419   4.043  12.842  0.4397 -0.9181 -1.0973
 7493TIP3   OH243893   4.491   3.239   2.037  0.1377  0.7517 -0.1994
 7493TIP3    H143894   4.450   3.288   1.965 -2.4249 -1.0341 -0.0351
 7493TIP3    H243895   4.490   3.148   2.008 -0.3040  0.0951  1.8134
 7494TIP3   OH243896   1.998   0.411  15.766 -0.3295 -0.1714  0.8309
 7494TIP3    H143897   2.081   0.418  15.719  0.2689 -0.9815  1.7435
 7494TIP3    H243898   2.021   0.425  15.858 -1.4128  0.9283  0.9411
 7495TIP3   OH243899   0.430   0.826  15.065 -0.3671 -0.1799 -0.1957
 7495TIP3    H143900   0.387   0.745  15.093  1.9483 -1.1238  0.7467
 7495TIP3    H243901   0.374   0.861  14.996 -1.8890 -2.0996  0.0419
 7496TIP3   OH243902   5.596   5.413   2.361  0.1913 -0.0607 -1.0307
 7496TIP3    H143903   5.637   5.362   2.291  1.1020 -0.3315 -0.3035
 7496TIP3    H243904   5.655   5.487   2.375 -1.1951  1.3030 -2.1809
 7497TIP3   OH243905   5.716   1.128  14.015 -0.0637 -0.5435  0.1736
 7497TIP3    H143906   5.781   1.188  14.050 -0.4411  0.9432 -1.5836
 7497TIP3    H243907   5.668   1.095  14.091  0.9091  0.5070  1.2352
 7498TIP3   OH243908   4.285   1.719   0.972  0.3759  0.1572  0.1876
 7498TIP3    H143909   4.276   1.788   0.906  0.1468 -0.9664 -0.9769
 7498TIP3    H243910   4.354   1.750   1.030  0.5299  1.2006 -0.5403
 7499TIP3   OH243911   2.245   0.663   2.284 -0.0756  0.2285 -0.0914
 7499TIP3    H143912   2.294   0.676   2.203  0.6863 -0.0147  0.3214
 7499TIP3    H243913   2.177   0.599   2.261 -0.2006  0.5698 -0.6689
 7500TIP3   OH243914   6.083   0.858  11.523 -0.1242 -0.2841 -0.7126
 7500TIP3    H143915   6.032   0.791  11.478 -0.0795 -1.0206  0.3245
 7500TIP3    H243916   6.080   0.833  11.616  0.3945  0.8063 -0.3921
 7501TIP3   OH243917   5.371   3.506   4.778 -0.0928 -0.0990 -0.1556
 7501TIP3    H143918   5.418   3.426   4.755  1.0791  0.1750  1.1871
 7501TIP3    H243919   5.440   3.567   4.805 -0.9931  1.3102 -0.9901
 7502TIP3   OH243920   5.360   5.474   0.262 -0.4939 -0.4158  0.0584
 7502TIP3    H143921   5.322   5.394   0.224 -3.1930  0.6613  0.3433
 7502TIP3    H243922   5.382   5.450   0.352 -2.4296 -0.5654  0.5284
 7503TIP3   OH243923   1.073   5.410   3.442  0.2250  0.1292 -0.0718
 7503TIP3    H143924   0.985   5.435   3.411  0.4096  0.8386 -0.0298
 7503TIP3    H243925   1.094   5.332   3.391  0.1486  0.7690 -1.0979
 7504TIP3   OH243926   6.508   5.386  14.985 -0.0875  0.0011  0.1509
 7504TIP3    H143927   6.441   5.421  15.045  0.4534  0.9250  0.2204
 7504TIP3    H243928   6.566   5.334  15.041  0.4496  0.9087  0.4468
 7505TIP3   OH243929   3.784   3.806  10.442  0.2343  0.2275  0.1870
 7505TIP3    H143930   3.866   3.839  10.477  0.0595  0.6695  0.1891
 7505TIP3    H243931   3.803   3.788  10.350  0.6777 -0.8873  0.4940
 7506TIP3   OH243932   4.177   3.517   0.396 -0.6116 -0.2428  0.1407
 7506TIP3    H143933   4.212   3.452   0.458  1.1475  0.6657  0.1127
 7506TIP3    H243934   4.104   3.557   0.443  0.9631  0.7334  1.8464
 7507TIP3   OH243935   3.127   1.732   3.383  0.3188 -0.8484  0.3098
 7507TIP3    H143936   3.184   1.754   3.457  0.4322 -0.5602  0.1375
 7507TIP3    H243937   3.119   1.813   3.334  1.8482 -1.4957 -1.0768
 7508TIP3   OH243938   5.332   0.462  11.335 -0.2768  0.2183 -0.3291
 7508TIP3    H143939   5.308   0.396  11.271 -0.5426  0.3126 -0.3278
 7508TIP3    H243940   5.303   0.545  11.297 -0.5032  0.2669 -0.0555
 7509TIP3   OH243941   1.683   4.690   3.351 -0.1531  0.3270 -0.2668
 7509TIP3    H143942   1.608   4.632   3.365 -0.2928  0.5028 -0.2810
 7509TIP3    H243943   1.682   4.749   3.427  0.6881 -0.4397  0.3555
 7510TIP3   OH243944   3.925   5.888   5.454 -0.1107  0.5457 -0.0138
 7510TIP3    H143945   3.857   5.956   5.456 -0.3290  0.3158  1.0135
 7510TIP3    H243946   3.879   5.808   5.479  0.7348  0.5792  1.7337
 7511TIP3   OH243947   4.498   1.519   1.341 -0.2737  0.0621  0.2789
 7511TIP3    H143948   4.557   1.570   1.396 -0.2588  0.2119  0.1239
 7511TIP3    H243949   4.418   1.511   1.393 -0.1667 -0.0261  0.4328
 7512TIP3   OH243950   4.774   5.730  17.234  0.3055  0.2454  0.0572
 7512TIP3    H143951   4.758   5.643  17.197 -0.0872  0.1713  0.4043
 7512TIP3    H243952   4.870   5.737  17.235  0.3656 -0.5411  0.8601
 7513TIP3   OH243953   0.790   5.761  14.368 -0.2311  0.2705  0.0020
 7513TIP3    H143954   0.882   5.785  14.360 -0.2645  0.7101  0.8403
 7513TIP3    H243955   0.788   5.697  14.439 -0.6728  0.8603  0.5257
 7514TIP3   OH243956   0.705   3.070  16.306 -0.3276  0.2860 -0.2358
 7514TIP3    H143957   0.705   2.977  16.329  2.2544  0.0925 -0.8493
 7514TIP3    H243958   0.722   3.071  16.212  1.4576  1.4209  0.0815
 7515TIP3   OH243959   0.590   2.034  13.633 -0.0463  0.2717  0.1168
 7515TIP3    H143960   0.599   2.128  13.618  2.0286 -0.1416 -1.5188
 7515TIP3    H243961   0.563   1.999  13.549  3.4706 -1.0740 -0.5471
 7516TIP3   OH243962   3.908   6.521   3.631 -0.1589  0.5298 -0.7013
 7516TIP3    H143963   3.901   6.616   3.639  0.8418  0.5821 -0.3350
 7516TIP3    H243964   3.891   6.503   3.539 -0.6109  1.0354 -0.7185
 7517TIP3   OH243965   6.541   6.466   5.651 -0.1082  0.9374  0.3458
 7517TIP3    H143966   6.461   6.414   5.647 -0.8133  2.0800 -0.5471
 7517TIP3    H243967   6.547   6.495   5.742  1.6510 -2.7744  1.5291
 7518TIP3   OH243968   0.893   6.253  14.714 -0.3316  0.2173  0.2635
 7518TIP3    H143969   0.855   6.167  14.698 -2.9686  1.3329  0.3158
 7518TIP3    H243970   0.976   6.234  14.758 -0.8639 -2.2995  0.2675
 7519TIP3   OH243971   6.779   0.911  16.488  0.3870  0.3252 -0.5136
 7519TIP3    H143972   6.789   0.987  16.431  0.1954 -0.9942 -2.3458
 7519TIP3    H243973   6.695   0.873  16.463 -0.0793  0.1502  1.2041
 7520TIP3   OH243974   2.653   0.991   1.294  0.3698 -0.2515 -0.5884
 7520TIP3    H143975   2.588   0.921   1.291 -0.9787  0.9791 -0.4832
 7520TIP3    H243976   2.681   0.993   1.386 -0.1030 -0.1940 -0.4433
 7521TIP3   OH243977   1.513   0.303  11.958 -0.6786 -0.5133 -0.4813
 7521TIP3    H143978   1.507   0.393  11.989  0.0784 -0.2639 -1.0445
 7521TIP3    H243979   1.499   0.249  12.037 -0.3448  0.1000 -0.0007
 7522TIP3   OH243980   1.352   1.473   4.437 -0.4856  0.3878 -0.5502
 7522TIP3    H143981   1.279   1.415   4.417  1.7506 -2.5221 -0.6673
 7522TIP3    H243982   1.345   1.489   4.531 -0.9613 -0.3611 -0.4517
 7523TIP3   OH243983   2.146   2.289  11.528 -0.0158 -0.2372  0.1681
 7523TIP3    H143984   2.170   2.377  11.556  1.9582  0.1751 -2.6448
 7523TIP3    H243985   2.067   2.301  11.476  0.7484 -0.0007 -0.9476
 7524TIP3   OH243986   2.635   3.264  12.737 -0.0899  0.0325 -0.6131
 7524TIP3    H143987   2.612   3.185  12.689 -0.7655 -0.1865  0.0678
 7524TIP3    H243988   2.640   3.332  12.670  2.6606 -1.0054 -1.5315
 7525TIP3   OH243989   2.334   6.092  16.320 -0.2522 -0.5049  0.0720
 7525TIP3    H143990   2.251   6.047  16.334  0.5151 -2.3063 -0.9989
 7525TIP3    H243991   2.360   6.067  16.232  0.8928  0.9546 -0.0224
 7526TIP3   OH243992   4.895   2.159   3.244  0.0994 -0.3666 -0.2215
 7526TIP3    H143993   4.867   2.079   3.199 -2.6974  1.3591 -1.7118
 7526TIP3    H243994   4.893   2.135   3.337  2.5413 -2.9551 -0.7793
 7527TIP3   OH243995   0.771   6.420   1.520 -0.1481  0.3857 -0.0669
 7527TIP3    H143996   0.722   6.493   1.559  0.4203 -0.3215  2.0452
 7527TIP3    H243997   0.718   6.343   1.541  1.1546 -0.2252  1.0216
 7528TIP3   OH243998   3.650   3.412   5.262 -0.3675 -0.0477  0.3470
 7528TIP3    H143999   3.601   3.453   5.334 -0.2143  0.6838  0.0307
 7528TIP3    H244000   3.590   3.344   5.230 -1.1453  0.7630  0.0414
 7529TIP3   OH244001   1.586   3.203   2.459  0.1147  0.2760 -0.4020
 7529TIP3    H144002   1.676   3.229   2.440  0.1476  0.7082  0.3360
 7529TIP3    H244003   1.594   3.141   2.532 -0.2828  1.3948  0.6162
 7530TIP3   OH244004   2.586   0.220  15.535  0.4666 -0.0715 -0.0986
 7530TIP3    H144005   2.610   0.293  15.477  0.9568 -0.7609 -0.7824
 7530TIP3    H244006   2.635   0.236  15.615  1.8761 -0.5179 -0.8433
 7531TIP3   OH244007   1.349   3.044   4.620 -0.0370 -0.0405 -0.6481
 7531TIP3    H144008   1.351   3.086   4.534  0.1781  1.1522 -0.0631
 7531TIP3    H244009   1.256   3.040   4.641 -0.1164 -0.6775 -1.0965
 7532TIP3   OH244010   6.379   2.865   4.031  0.0158  0.0310  0.3387
 7532TIP3    H144011   6.338   2.799   4.087 -2.4448  0.5674 -0.7927
 7532TIP3    H244012   6.460   2.888   4.077  1.1217 -4.0099  0.5698
 7533TIP3   OH244013   0.673   6.247   5.803 -0.1588 -0.3001 -0.0335
 7533TIP3    H144014   0.588   6.221   5.840 -0.7150  1.2214 -0.2178
 7533TIP3    H244015   0.690   6.334   5.839 -0.3706  0.9204 -2.7487
 7534TIP3   OH244016   1.632   3.175  16.650  0.2246  0.3698 -0.4319
 7534TIP3    H144017   1.694   3.232  16.604 -0.2320  1.5274  0.3771
 7534TIP3    H244018   1.675   3.153  16.732  0.4877 -0.6368 -0.8284
 7535TIP3   OH244019   3.697   1.249   5.774 -0.6604  0.1513 -0.2691
 7535TIP3    H144020   3.765   1.225   5.837  0.1473 -0.1711 -1.2421
 7535TIP3    H244021   3.620   1.268   5.827 -1.0741 -3.6911  0.6177
 7536TIP3   OH244022   2.865   0.541   1.833  0.2846  0.6826 -0.4473
 7536TIP3    H144023   2.933   0.537   1.766  0.7632  1.0416  0.0197
 7536TIP3    H244024   2.903   0.593   1.903 -0.8142  1.6810 -0.5772
 7537TIP3   OH244025   2.835   1.300   0.153 -0.4854 -0.2432 -0.0723
 7537TIP3    H144026   2.856   1.384   0.111 -0.5932 -0.2842 -0.2099
 7537TIP3    H244027   2.859   1.234   0.088  0.4198 -0.3631  0.3729
 7538TIP3   OH244028   3.337   1.191  15.679  0.0431 -0.2663 -0.0287
 7538TIP3    H144029   3.307   1.115  15.730 -0.1509 -1.2344 -1.5817
 7538TIP3    H244030   3.433   1.185  15.681  0.0346 -0.3675  0.0966
 7539TIP3   OH244031   6.191   5.201   5.738 -0.1937  0.0203  0.0158
 7539TIP3    H144032   6.106   5.167   5.710  0.6181 -0.7145 -1.5775
 7539TIP3    H244033   6.198   5.287   5.695 -1.5800  1.6372  2.8412
 7540TIP3   OH244034   4.962   4.883  14.792 -0.2992  0.3891 -0.3657
 7540TIP3    H144035   4.889   4.855  14.848 -0.5676  0.3880 -0.7104
 7540TIP3    H244036   4.954   4.979  14.789 -1.7635  0.2449 -2.3564
 7541TIP3   OH244037   2.089   4.068  16.109  0.3260  0.3519  0.4522
 7541TIP3    H144038   2.028   4.080  16.182 -1.6031  1.2125 -1.2772
 7541TIP3    H244039   2.110   4.157  16.080  0.7257 -0.0014 -0.3583
 7542TIP3   OH244040   0.421   6.010   3.930  0.0734  0.3366  0.0015
 7542TIP3    H144041   0.383   6.097   3.927 -0.8524 -0.0787 -0.3683
 7542TIP3    H244042   0.479   6.006   3.853  0.0193  0.5813 -0.0512
 7543TIP3   OH244043   4.083   3.861  14.181  0.6045  0.2587 -0.0992
 7543TIP3    H144044   4.059   3.819  14.098  0.3291 -0.1786  0.1998
 7543TIP3    H244045   4.156   3.809  14.214  0.8431  0.5526 -0.1652
 7544TIP3   OH244046   2.993   0.417  12.134  0.3076 -0.8439  0.4140
 7544TIP3    H144047   2.904   0.383  12.132 -0.1398  0.3980 -1.4404
 7544TIP3    H244048   3.025   0.406  12.045  0.2582  3.2736 -0.2084
 7545TIP3   OH244049   6.033   3.716   2.067  0.3136  0.1894 -0.3566
 7545TIP3    H144050   6.004   3.652   2.132  0.8206 -0.0533 -0.3618
 7545TIP3    H244051   5.966   3.784   2.068 -1.2181 -1.2507 -1.6692
 7546TIP3   OH244052   3.901   4.854   4.915  0.1849  0.1337 -0.1634
 7546TIP3    H144053   3.939   4.834   4.829 -3.8231  0.3840 -2.1447
 7546TIP3    H244054   3.890   4.768   4.956  1.0468 -0.0878 -0.3774
 7547TIP3   OH244055   3.041   3.692   2.844 -0.1092 -0.0300  0.1761
 7547TIP3    H144056   3.000   3.622   2.895  2.5094 -1.0437  1.0228
 7547TIP3    H244057   2.995   3.771   2.871 -1.9846 -1.1878  0.4926
 7548TIP3   OH244058   0.210   5.974   5.100  0.1928 -0.1545  0.1085
 7548TIP3    H144059   0.170   6.058   5.121  0.3685 -0.0701  0.1031
 7548TIP3    H244060   0.217   5.929   5.184  1.8355  0.5886  0.3822
 7549TIP3   OH244061   2.004   1.760   1.210  0.1917  1.1904 -0.4337
 7549TIP3    H144062   2.076   1.813   1.176  1.3098  0.2293  0.4020
 7549TIP3    H244063   2.006   1.774   1.305  0.4343 -0.2361 -0.2155
 7550TIP3   OH244064   5.706   3.060  12.365  0.2227  0.7020 -0.5292
 7550TIP3    H144065   5.623   3.082  12.322  0.1664  0.0867 -0.7328
 7550TIP3    H244066   5.702   3.105  12.450 -0.5954  0.1393 -0.2699
 7551TIP3   OH244067   5.671   2.442  14.170  0.1166  0.3820 -0.3499
 7551TIP3    H144068   5.656   2.509  14.236  1.2566 -1.0689  1.4489
 7551TIP3    H244069   5.706   2.367  14.219  1.5178 -0.5533 -2.6702
 7552TIP3   OH244070   3.700   1.298  16.643 -0.8363  0.1991  0.6403
 7552TIP3    H144071   3.735   1.376  16.688  1.1097 -0.7198  0.7846
 7552TIP3    H244072   3.682   1.236  16.714 -2.7904  0.6460  0.5581
 7553TIP3   OH244073   1.350   0.167   2.295  0.0875  0.0646 -0.5897
 7553TIP3    H144074   1.307   0.144   2.213 -0.2272 -1.5165  0.0071
 7553TIP3    H244075   1.420   0.227   2.269 -1.8714  1.9736 -1.6686
 7554TIP3   OH244076   4.227   4.217   0.214  0.3595  1.1602 -0.5351
 7554TIP3    H144077   4.195   4.148   0.273  0.7337 -0.1477 -1.8210
 7554TIP3    H244078   4.292   4.265   0.265  0.5838  0.1274  0.1641
 7555TIP3   OH244079   2.841   5.854  16.306  0.5863  0.3942 -0.0310
 7555TIP3    H144080   2.857   5.944  16.335  0.4223  0.3564  0.1851
 7555TIP3    H244081   2.921   5.806  16.330  0.5424  0.4128  0.1529
 7556TIP3   OH244082   4.837   4.237  16.146 -0.0892 -0.3785 -0.7366
 7556TIP3    H144083   4.922   4.199  16.168 -0.3749 -0.9924 -0.6833
 7556TIP3    H244084   4.842   4.253  16.052  0.2936  0.1077 -0.6349
 7557TIP3   OH244085   2.964   5.288   4.551  0.4807  0.0231  0.3783
 7557TIP3    H144086   3.018   5.215   4.581 -0.8810 -1.0622  0.2361
 7557TIP3    H244087   2.895   5.296   4.618 -0.8480 -0.4838 -0.8976
 7558TIP3   OH244088   0.331   2.347   0.847 -1.0712  0.2056  0.1888
 7558TIP3    H144089   0.256   2.359   0.905 -1.8540 -0.4719 -0.6711
 7558TIP3    H244090   0.313   2.265   0.801  1.5390 -1.4669  1.9914
 7559TIP3   OH244091   5.619   0.592  14.343  0.2323  0.0519  0.3827
 7559TIP3    H144092   5.573   0.665  14.385 -0.9095 -0.3589 -0.1351
 7559TIP3    H244093   5.626   0.618  14.251  0.4327 -0.1852  0.3319
 7560TIP3   OH244094   6.202   2.020  15.467  0.2588 -0.2474 -0.2812
 7560TIP3    H144095   6.295   2.036  15.479  0.1174 -0.5114  1.3988
 7560TIP3    H244096   6.191   2.006  15.373  1.6626  1.2805 -0.6933
 7561TIP3   OH244097   6.402   0.509   2.340 -0.3362  0.5837 -0.1672
 7561TIP3    H144098   6.373   0.422   2.367 -0.1836 -0.0367 -1.9513
 7561TIP3    H244099   6.322   0.555   2.316 -0.6382  1.6586  2.7011
 7562TIP3   OH244100   3.363   3.479  12.564  0.1078  0.3697  0.0251
 7562TIP3    H144101   3.337   3.398  12.520 -0.2232  0.6960 -0.3796
 7562TIP3    H244102   3.455   3.490  12.543  0.9873 -1.5531  2.6285
 7563TIP3   OH244103   0.057   0.078   5.860  0.2559 -0.4618 -0.2691
 7563TIP3    H144104  -0.019   0.086   5.917 -0.0512 -0.1458 -0.7285
 7563TIP3    H244105   0.058   0.158   5.808 -0.8138 -1.7670 -2.3763
 7564TIP3   OH244106   1.815   1.399  15.198 -0.4803 -0.1356 -0.5519
 7564TIP3    H144107   1.822   1.387  15.103 -0.2857  0.0722 -0.5670
 7564TIP3    H244108   1.903   1.382  15.231 -0.2287  1.0537 -0.5610
 7565TIP3   OH244109   0.908   1.108   6.249 -0.7417 -0.2210 -0.2826
 7565TIP3    H144110   0.957   1.174   6.200 -0.3032 -0.5794 -0.3212
 7565TIP3    H244111   0.823   1.149   6.265 -0.5479  0.2683 -0.5035
 7566TIP3   OH244112   4.006   2.343  13.817  0.0305  0.7250 -0.5287
 7566TIP3    H144113   4.019   2.386  13.733  1.9415 -0.9105 -1.1022
 7566TIP3    H244114   4.051   2.400  13.880  0.1004  1.0395 -0.8598
 7567TIP3   OH244115   0.363   4.382   1.607  0.5103  0.6968 -0.2522
 7567TIP3    H144116   0.314   4.379   1.688  2.0133  0.2900  0.6599
 7567TIP3    H244117   0.445   4.427   1.630  0.4528  1.6483 -1.8086
 7568TIP3   OH244118   6.495   1.747   4.885 -0.1257  0.2376  0.5547
 7568TIP3    H144119   6.405   1.714   4.887  0.5147 -1.6081 -0.0998
 7568TIP3    H244120   6.548   1.671   4.862  1.5168  1.4980  0.0680
 7569TIP3   OH244121   3.856   1.439   0.531 -0.6994  0.6160 -0.4434
 7569TIP3    H144122   3.866   1.463   0.623 -0.5765  2.5481 -0.9272
 7569TIP3    H244123   3.836   1.346   0.532 -2.4734  0.9835  1.6414
 7570TIP3   OH244124   1.503   3.165   1.063 -0.3745 -0.2070  0.4481
 7570TIP3    H144125   1.566   3.214   1.009 -0.2827 -0.5762  0.2233
 7570TIP3    H244126   1.545   3.081   1.080 -1.3413 -0.9519 -0.7790
 7571TIP3   OH244127   2.766   2.555  15.047  0.1643  0.2700 -0.7056
 7571TIP3    H144128   2.740   2.632  15.098  1.2106  0.1395  0.0379
 7571TIP3    H244129   2.705   2.486  15.074  0.5524  0.2736  0.1875
 7572TIP3   OH244130   1.435   2.258  11.460 -0.7037 -0.3599  0.1665
 7572TIP3    H144131   1.356   2.292  11.502 -1.3125 -0.8033 -0.5946
 7572TIP3    H244132   1.507   2.305  11.501 -1.4218  0.6017  0.3308
 7573TIP3   OH244133   0.710   2.840  15.028  0.7247  0.3375 -1.4054
 7573TIP3    H144134   0.771   2.776  14.992  1.5485  1.0167 -1.2163
 7573TIP3    H244135   0.667   2.878  14.951  0.1568 -0.5053 -1.5139
 7574TIP3   OH244136   5.940   2.562   0.917 -0.5551 -0.3198  0.3020
 7574TIP3    H144137   5.929   2.494   0.851  1.7853 -0.3749 -0.0517
 7574TIP3    H244138   5.992   2.629   0.874 -0.7200  0.5664  1.4607
 7575TIP3   OH244139   5.594   2.654  16.823 -0.0929 -0.2839 -0.9179
 7575TIP3    H144140   5.628   2.566  16.842  0.4927  0.0984 -0.1539
 7575TIP3    H244141   5.541   2.675  16.900  0.7818  0.5277 -0.5250
 7576TIP3   OH244142   1.832   5.660  15.891 -0.3321  0.7983  0.0928
 7576TIP3    H144143   1.857   5.647  15.982  0.3461  0.6968 -0.1095
 7576TIP3    H244144   1.760   5.598  15.877 -0.2218  0.5845  0.4646
 7577TIP3   OH244145   4.962   6.558   4.597  0.4054 -0.3256 -0.2550
 7577TIP3    H144146   4.900   6.487   4.586 -0.4699  0.2951  0.6175
 7577TIP3    H244147   5.048   6.516   4.591 -0.0986 -1.4089  0.0596
 7578TIP3   OH244148   5.496   1.136  16.109 -0.1683 -0.5722 -0.8171
 7578TIP3    H144149   5.464   1.223  16.084  0.4732  0.3017  1.3263
 7578TIP3    H244150   5.574   1.123  16.055  0.0446  0.4056 -0.7519
 7579TIP3   OH244151   3.871   4.082   0.575 -0.1092 -0.2529 -0.4296
 7579TIP3    H144152   3.961   4.055   0.594  0.2852  1.2940 -0.0048
 7579TIP3    H244153   3.855   4.051   0.486  0.9346 -0.3477 -0.5909
 7580TIP3   OH244154   5.852   2.151   3.606  0.4320  0.0319  0.4149
 7580TIP3    H144155   5.942   2.122   3.622  0.1654 -0.8823  0.3191
 7580TIP3    H244156   5.800   2.070   3.611 -0.2537  0.4119 -0.5094
 7581TIP3   OH244157   4.275   3.626   4.799  0.1121 -0.6035 -0.4300
 7581TIP3    H144158   4.193   3.613   4.846  0.7116 -2.2245  0.2233
 7581TIP3    H244159   4.289   3.720   4.799 -0.8702 -0.4494  0.9714
 7582TIP3   OH244160   4.018   6.422  12.820  0.6291 -0.1517  0.5233
 7582TIP3    H144161   3.961   6.345  12.829 -0.0930  0.4307  0.9869
 7582TIP3    H244162   4.060   6.430  12.906  0.6768 -0.0004  0.4856
 7583TIP3   OH244163   4.188   4.191   4.886 -0.1518  0.0570 -0.6121
 7583TIP3    H144164   4.249   4.142   4.832 -0.2240  0.9036 -1.4748
 7583TIP3    H244165   4.214   4.283   4.876 -1.0891  0.3603 -0.4029
 7584TIP3   OH244166   1.697   0.645   0.347 -0.2197  0.0137  0.5848
 7584TIP3    H144167   1.728   0.595   0.272  1.3585  1.4546  0.2345
 7584TIP3    H244168   1.602   0.635   0.345 -0.1816 -0.1751 -1.4700
 7585TIP3   OH244169   5.775   3.391   3.658 -0.0860 -0.0796  0.5965
 7585TIP3    H144170   5.748   3.353   3.741  3.5078 -0.0959  1.8410
 7585TIP3    H244171   5.865   3.421   3.673  0.1040  1.3142 -2.8289
 7586TIP3   OH244172   2.845   1.302   1.892 -0.6794 -0.1923 -0.0627
 7586TIP3    H144173   2.808   1.340   1.971 -0.7182  0.5090 -0.4155
 7586TIP3    H244174   2.797   1.220   1.879 -2.0241  0.6583 -0.4581
 7587TIP3   OH244175   2.880   0.958  15.288 -0.0184  0.2826  0.6271
 7587TIP3    H144176   2.945   0.937  15.355  1.1202  2.4835  0.2687
 7587TIP3    H244177   2.828   1.028  15.328 -0.4882  0.3523 -0.1042
 7588TIP3   OH244178   1.766   3.267  13.367 -0.0571  0.1692  0.1492
 7588TIP3    H144179   1.750   3.204  13.296 -0.3364  0.7144 -0.2712
 7588TIP3    H244180   1.784   3.212  13.444 -0.7239 -0.4256 -0.1140
 7589TIP3   OH244181   1.646   3.352   0.131  0.1572 -0.2606 -0.4606
 7589TIP3    H144182   1.720   3.396   0.089 -1.1564  0.6745 -1.8058
 7589TIP3    H244183   1.623   3.281   0.071  0.3568 -0.9500  0.2668
 7590TIP3   OH244184   6.752   4.319   6.806 -0.2593 -0.2387  0.2226
 7590TIP3    H144185   6.709   4.286   6.727 -1.5792  1.6718  0.0944
 7590TIP3    H244186   6.731   4.255   6.874 -0.6593 -0.9451 -0.5628
 7591TIP3   OH244187   6.726   3.892  13.194 -0.3165 -0.0960  0.1304
 7591TIP3    H144188   6.642   3.850  13.173 -0.6729 -0.8302  2.7825
 7591TIP3    H244189   6.706   3.948  13.269  1.2346  1.0209 -0.2616
 7592TIP3   OH244190   0.241   1.562   3.237  0.1993 -1.2452  0.4888
 7592TIP3    H144191   0.266   1.469   3.233 -0.7548 -1.4729 -0.4364
 7592TIP3    H244192   0.148   1.560   3.260  0.2641 -0.4962  0.8193
 7593TIP3   OH244193   6.218   2.954  10.980 -0.2220 -0.2252  0.0755
 7593TIP3    H144194   6.213   2.892  11.053  0.6842  1.5071  1.6361
 7593TIP3    H244195   6.312   2.959  10.959 -0.2897  0.6108 -0.0433
 7594TIP3   OH244196   5.050   0.120   2.260  0.1337 -0.2350  0.5332
 7594TIP3    H144197   5.139   0.130   2.295 -0.4263  1.7781  1.4513
 7594TIP3    H244198   4.993   0.150   2.330 -1.1588  0.6140 -0.8459
 7595TIP3   OH244199   1.842   5.637  11.666  0.4718 -0.9304  0.0862
 7595TIP3    H144200   1.855   5.730  11.648  2.2504 -1.2587 -0.4748
 7595TIP3    H244201   1.748   5.627  11.675 -0.1895  0.2082 -4.1679
 7596TIP3   OH244202   0.237   3.279  10.982  0.8297 -0.3223  0.0792
 7596TIP3    H144203   0.149   3.243  10.994  0.9133  0.3790  3.2807
 7596TIP3    H244204   0.275   3.226  10.912 -2.0787 -0.7023 -1.3011
 7597TIP3   OH244205   5.706   2.542  12.785  0.3528 -0.4251 -0.5378
 7597TIP3    H144206   5.748   2.461  12.754  1.1681 -0.9652  1.8383
 7597TIP3    H244207   5.613   2.521  12.788  0.5401 -1.2353 -0.1055
 7598TIP3   OH244208   4.045   1.924  12.215  0.2060  0.4683 -0.4919
 7598TIP3    H144209   4.029   1.952  12.125  2.5925  0.7310 -0.8825
 7598TIP3    H244210   4.037   2.004  12.267  2.5486  1.0671 -1.0054
 7599TIP3   OH244211   1.530   5.375   5.946  0.3265  0.2930  0.8034
 7599TIP3    H144212   1.537   5.300   6.004 -0.9427  0.4788  1.2115
 7599TIP3    H244213   1.614   5.422   5.956  1.8176 -1.9449 -0.7211
 7600TIP3   OH244214   1.919   0.047   3.947 -0.6879 -0.2577  0.3855
 7600TIP3    H144215   1.920  -0.042   3.982 -0.5917 -0.4357 -0.0804
 7600TIP3    H244216   1.844   0.088   3.992  0.2936 -0.0503  1.8771
 7601TIP3   OH244217   2.928   5.344   0.428  1.0523  0.1035  0.3285
 7601TIP3    H144218   2.901   5.436   0.437  0.4447 -0.0635  0.1903
 7601TIP3    H244219   2.944   5.333   0.335  2.8837  0.5567  0.5505
 7602TIP3   OH244220   6.664   6.485   0.031 -0.1879  0.2866 -0.1041
 7602TIP3    H144221   6.729   6.527  -0.026  1.1076 -0.1617  1.0132
 7602TIP3    H244222   6.640   6.554   0.093  0.2410  0.0571  0.3193
 7603TIP3   OH244223   4.083   6.346   6.257  0.2372  0.2159 -0.5373
 7603TIP3    H144224   4.158   6.404   6.273 -0.0864  0.7508 -0.9381
 7603TIP3    H244225   4.010   6.406   6.242 -0.5820 -0.3026  1.3200
 7604TIP3   OH244226   5.315   4.949  11.143  0.6436 -0.1607 -0.0960
 7604TIP3    H144227   5.337   4.917  11.230 -0.0028 -0.2098  0.0514
 7604TIP3    H244228   5.372   5.025  11.130  0.4935  0.0554  0.5029
 7605TIP3   OH244229   5.535   0.334  16.909  0.9423  0.2793  0.0873
 7605TIP3    H144230   5.564   0.420  16.879 -1.2050  1.0386  0.0602
 7605TIP3    H244231   5.595   0.311  16.980  1.7992  1.6094 -0.1958
 7606TIP3   OH244232   6.537   2.637   0.281 -0.4227  0.2194  0.8319
 7606TIP3    H144233   6.629   2.643   0.304 -0.2946  1.3704  0.0662
 7606TIP3    H244234   6.516   2.544   0.288  0.1941  0.2229  3.2410
 7607TIP3   OH244235   1.975   2.415   1.981  0.0264 -0.1992  0.2831
 7607TIP3    H144236   1.906   2.439   2.043 -1.8804  1.8289 -2.4713
 7607TIP3    H244237   1.955   2.325   1.955 -1.4440  0.2776 -0.2718
 7608TIP3   OH244238   0.229   4.344   2.500 -0.3119 -0.4607 -0.2594
 7608TIP3    H144239   0.283   4.266   2.514  0.5504  0.1618 -0.1025
 7608TIP3    H244240   0.142   4.309   2.480 -0.1462 -1.4484  0.6924
 7609TIP3   OH244241   3.403   0.295   1.522 -0.6017 -0.3279 -0.3186
 7609TIP3    H144242   3.432   0.208   1.495 -1.6345 -1.0803  0.9203
 7609TIP3    H244243   3.308   0.287   1.529 -0.7750  1.1033 -0.8807
 7610TIP3   OH244244   5.957   5.737  13.670  0.1352 -0.4245 -0.4258
 7610TIP3    H144245   6.010   5.665  13.636 -0.3560 -0.3556 -1.3663
 7610TIP3    H244246   5.913   5.700  13.746  0.0076 -1.0854 -0.8109
 7611TIP3   OH244247   4.760   0.849   4.075 -0.1582  0.4673 -0.1042
 7611TIP3    H144248   4.807   0.801   4.007 -0.4187  1.4548 -1.0082
 7611TIP3    H244249   4.762   0.792   4.151  0.8348 -0.3194 -0.7096
 7612TIP3   OH244250   5.079   6.763  15.056  0.0981  0.3043  0.3215
 7612TIP3    H144251   4.987   6.776  15.082 -1.0910 -1.5868 -2.5957
 7612TIP3    H244252   5.099   6.838  15.001 -0.7344 -0.7291 -1.4600
 7613TIP3   OH244253   4.677   4.480  13.588  0.3614 -0.2745  0.2015
 7613TIP3    H144254   4.638   4.434  13.662 -0.4846 -0.1602 -0.1611
 7613TIP3    H244255   4.663   4.421  13.513 -1.8455  1.0836 -0.5002
 7614TIP3   OH244256   2.384   3.227   5.917 -0.1239 -0.2718 -0.4232
 7614TIP3    H144257   2.443   3.257   5.848  1.5357  0.3008  1.2111
 7614TIP3    H244258   2.350   3.307   5.957 -0.7501 -0.5999 -0.2942
 7615TIP3   OH244259   3.339   6.092  14.267  0.2411 -0.0269  0.0662
 7615TIP3    H144260   3.355   6.172  14.217  0.7561  1.0200  1.8579
 7615TIP3    H244261   3.280   6.119  14.338 -1.6815 -1.8013 -0.8312
 7616TIP3   OH244262   2.473   1.004   3.526 -0.2093  0.2870  0.5842
 7616TIP3    H144263   2.538   1.071   3.505 -0.5742  0.6357  0.5603
 7616TIP3    H244264   2.525   0.927   3.550  0.2179  0.9073  1.6850
 7617TIP3   OH244265   1.711   5.930   0.739  0.0046 -0.1157  0.1690
 7617TIP3    H144266   1.654   5.858   0.710  0.0920 -0.5565  1.0964
 7617TIP3    H244267   1.710   5.925   0.834 -1.7902  2.5230  0.3405
 7618TIP3   OH244268   6.121   4.470  12.092 -0.4242  0.3094  0.0677
 7618TIP3    H144269   6.064   4.448  12.019  0.8489  1.0326 -1.1627
 7618TIP3    H244270   6.138   4.563  12.081  0.6476  0.1855  0.6681
 7619TIP3   OH244271   2.815   0.626  16.596 -0.2129 -0.1504  0.1704
 7619TIP3    H144272   2.766   0.671  16.665 -1.0179  0.6763 -0.9240
 7619TIP3    H244273   2.896   0.676  16.588 -0.9893  0.9734 -0.8583
 7620TIP3   OH244274   2.745   6.750  12.011  0.1764 -0.7739  0.5660
 7620TIP3    H144275   2.772   6.774  12.099 -0.0375 -0.6102  0.5881
 7620TIP3    H244276   2.805   6.680  11.985  2.8358  1.8985 -0.7233
 7621TIP3   OH244277   4.132   2.069   4.501  0.3020  0.5213 -0.1899
 7621TIP3    H144278   4.069   2.107   4.563  0.2066  1.2376 -0.7153
 7621TIP3    H244279   4.084   2.065   4.418  0.4168 -0.4717 -0.2163
 7622TIP3   OH244280   5.860   6.684   0.298  0.0515  0.3831 -0.8233
 7622TIP3    H144281   5.834   6.648   0.383 -0.3888  0.5834 -0.8688
 7622TIP3    H244282   5.939   6.735   0.316 -0.3611  0.8963 -0.4252
 7623TIP3   OH244283   1.771   3.102  16.868 -0.6668 -0.1526  0.2401
 7623TIP3    H144284   1.779   3.167  16.938 -0.1741  0.6603 -0.5646
 7623TIP3    H244285   1.846   3.044  16.881  0.1417  0.7478 -0.3820
 7624TIP3   OH244286   2.313   5.810   3.119  0.3177  0.0861 -0.5138
 7624TIP3    H144287   2.271   5.750   3.057 -0.2755  0.2206 -0.2493
 7624TIP3    H244288   2.245   5.873   3.141  0.1041 -0.7538  1.3131
 7625TIP3   OH244289   3.796   6.773  13.020  0.1505  0.2181 -0.4839
 7625TIP3    H144290   3.825   6.738  13.104 -1.4628 -0.8251 -0.3491
 7625TIP3    H244291   3.866   6.833  12.994  1.4259 -0.6775  0.8166
 7626TIP3   OH244292   6.590   6.316  11.961  0.3805  0.3005  0.2661
 7626TIP3    H144293   6.529   6.273  11.901 -0.4642  1.9353 -0.0782
 7626TIP3    H244294   6.540   6.390  11.996  0.9297 -0.4857  2.8029
 7627TIP3   OH244295   1.666   5.530  13.440 -0.2445 -0.3280  0.4747
 7627TIP3    H144296   1.575   5.559  13.450  0.6446  2.5399  0.7422
 7627TIP3    H244297   1.716   5.585  13.501  2.1524  0.8531 -2.4088
 7628TIP3   OH244298   6.397   3.958   1.841  0.5872  0.1581 -0.0085
 7628TIP3    H144299   6.412   3.964   1.746  0.8789 -1.7137 -0.0947
 7628TIP3    H244300   6.343   3.880   1.852  2.6618 -1.0830  1.6015
 7629TIP3   OH244301   3.669   6.153  16.590  0.1992 -0.5100 -0.3778
 7629TIP3    H144302   3.609   6.083  16.615 -0.0497  0.2142  1.1344
 7629TIP3    H244303   3.751   6.132  16.634  0.1051  0.1668  0.1353
 7630TIP3   OH244304   2.363   4.085  13.739  0.3512 -0.2158  0.0792
 7630TIP3    H144305   2.291   4.073  13.677  1.7885  1.0828 -1.8980
 7630TIP3    H244306   2.321   4.086  13.825 -1.9272  0.0456 -1.0065
 7631TIP3   OH244307   4.240   2.320  12.872  0.0507 -0.3963  0.4941
 7631TIP3    H144308   4.169   2.378  12.847 -0.0622 -0.2185  1.2044
 7631TIP3    H244309   4.227   2.305  12.966  0.6072 -0.8316  0.5065
 7632TIP3   OH244310   2.359   6.165   0.100  0.1041  0.8079  0.3028
 7632TIP3    H144311   2.428   6.117   0.055  1.7864  1.5357  2.0220
 7632TIP3    H244312   2.367   6.254   0.066 -2.5411  0.1040 -2.3467
 7633TIP3   OH244313   5.085   5.884   2.922 -0.1206  0.4444  0.0251
 7633TIP3    H144314   5.117   5.803   2.960 -0.2578  0.1592 -0.4627
 7633TIP3    H244315   5.092   5.949   2.992  2.1763  0.5642 -0.2918
 7634TIP3   OH244316   6.642   2.952  16.319 -0.3581  0.3151 -0.3390
 7634TIP3    H144317   6.601   3.032  16.288 -0.5453  0.7439  0.9704
 7634TIP3    H244318   6.736   2.969  16.314 -0.4068  1.2153  1.3980
 7635TIP3   OH244319   4.476   5.640   0.833  0.2440 -0.1471 -0.2445
 7635TIP3    H144320   4.426   5.559   0.840 -1.4760  0.7979 -1.2072
 7635TIP3    H244321   4.556   5.616   0.786 -0.6154 -1.1397 -1.2238
 7636TIP3   OH244322   1.511   2.895  11.610 -0.0570  0.4202 -0.5044
 7636TIP3    H144323   1.497   2.939  11.695  0.7907  1.3552 -0.8398
 7636TIP3    H244324   1.450   2.939  11.551  1.2045  1.5795 -0.9766
 7637TIP3   OH244325   5.617   0.710   0.945  0.3409 -0.3252 -0.0604
 7637TIP3    H144326   5.665   0.774   0.893 -0.4680 -1.2899 -2.0784
 7637TIP3    H244327   5.575   0.762   1.013  1.2009  1.0355 -0.5311
 7638TIP3   OH244328   1.052   0.634  16.543  0.2381  0.1156 -0.0940
 7638TIP3    H144329   1.074   0.544  16.567  0.2605 -0.2012 -1.2455
 7638TIP3    H244330   1.133   0.668  16.505 -0.5216 -0.2660 -2.1221
 7639TIP3   OH244331   1.476   0.006   4.325 -0.5954  0.0095 -0.2360
 7639TIP3    H144332   1.517  -0.071   4.284 -1.5466 -0.7740  0.2748
 7639TIP3    H244333   1.391   0.015   4.282 -0.8089  0.3176  0.2390
 7640TIP3   OH244334   3.235   5.833  13.114  0.1684  0.1426  0.2154
 7640TIP3    H144335   3.286   5.760  13.148  0.7552  0.3283 -0.2591
 7640TIP3    H244336   3.295   5.907  13.116  0.9220 -0.3004 -3.2420
 7641TIP3   OH244337   1.725   5.000   3.798 -0.1463 -0.0098 -0.2705
 7641TIP3    H144338   1.640   5.040   3.815 -0.0711 -0.1544  0.4660
 7641TIP3    H244339   1.759   4.979   3.885  0.5909 -0.0559 -0.5699
 7642TIP3   OH244340   5.923   3.634  16.680  0.5079  0.3330 -0.6970
 7642TIP3    H144341   5.979   3.564  16.648  0.2656 -0.0914 -0.2026
 7642TIP3    H244342   5.856   3.590  16.731  0.6161  0.9527  0.0017
 7643TIP3   OH244343   3.973   3.696   0.476 -0.2679  0.2247 -0.0386
 7643TIP3    H144344   3.958   3.776   0.425 -1.2237 -0.6829 -1.2178
 7643TIP3    H244345   3.896   3.642   0.457 -0.9293  0.0813  2.8180
 7644TIP3   OH244346   5.988   1.510  14.407 -0.4530 -0.3273 -0.2298
 7644TIP3    H144347   5.967   1.472  14.493 -1.4001  2.0817  0.6690
 7644TIP3    H244348   6.069   1.468  14.381  0.8638  0.2253  2.7400
 7645TIP3   OH244349   3.043   0.464   4.505  0.3010 -0.4522 -0.0081
 7645TIP3    H144350   3.089   0.536   4.547  1.6234 -1.0629 -0.3698
 7645TIP3    H244351   3.042   0.394   4.571 -0.2589 -0.3812  0.0595
 7646TIP3   OH244352   5.660   3.767   5.369  0.4142 -0.5874  0.5789
 7646TIP3    H144353   5.623   3.715   5.299  1.4781 -1.1913  0.4620
 7646TIP3    H244354   5.754   3.754   5.362  0.6530  0.8023  0.9753
 7647TIP3   OH244355   2.744   3.641   0.257 -0.5939 -0.1456 -1.1959
 7647TIP3    H144356   2.669   3.599   0.216  1.0456 -1.0563 -3.3627
 7647TIP3    H244357   2.776   3.577   0.321 -1.6507  0.2579 -0.2486
 7648TIP3   OH244358   2.319   0.709  10.641  0.1708  0.0906  0.1981
 7648TIP3    H144359   2.261   0.759  10.584  0.0441  2.4514  2.3109
 7648TIP3    H244360   2.405   0.716  10.600 -0.5173 -1.2759 -1.5706
 7649TIP3   OH244361   3.058   3.262   6.636 -0.0398  0.2593  0.2380
 7649TIP3    H144362   3.106   3.187   6.673  0.4080  1.3161  1.8321
 7649TIP3    H244363   2.986   3.277   6.697  0.2235  1.5166  0.2523
 7650TIP3   OH244364   5.447   1.315   0.032  0.0263  0.3388  0.3103
 7650TIP3    H144365   5.416   1.230  -0.000 -1.5534  0.8257  0.5017
 7650TIP3    H244366   5.450   1.305   0.127 -1.5723  0.9418  0.4386
 7651TIP3   OH244367   4.341   5.178  11.908 -0.1055  0.0746 -0.2030
 7651TIP3    H144368   4.315   5.126  11.833 -0.6751 -1.7850  1.2414
 7651TIP3    H244369   4.361   5.265  11.872 -2.4751 -0.1544 -2.1650
 7652TIP3   OH244370   1.423   2.345  13.802 -0.5948  0.4364 -0.6127
 7652TIP3    H144371   1.355   2.352  13.870  0.9689  1.9019  0.8483
 7652TIP3    H244372   1.375   2.353  13.720 -2.5114 -1.2025  0.3024
 7653TIP3   OH244373   3.330   5.573   1.306  0.1837  0.0676  0.1985
 7653TIP3    H144374   3.383   5.616   1.373 -0.5472  1.1716  0.0815
 7653TIP3    H244375   3.281   5.644   1.264  0.1193 -0.6879 -1.0510
 7654TIP3   OH244376   4.942   4.182   0.355 -0.0294  0.0175 -0.4256
 7654TIP3    H144377   4.990   4.221   0.428  0.5053 -0.4232 -0.5365
 7654TIP3    H244378   5.007   4.128   0.310 -0.6470 -0.6411 -0.5396
 7655TIP3   OH244379   1.989   6.599   1.870 -0.1668 -0.2610 -0.1178
 7655TIP3    H144380   1.928   6.673   1.858 -0.3948 -0.3168  0.6634
 7655TIP3    H244381   1.986   6.581   1.964  3.8384  2.1273  0.5925
 7656TIP3   OH244382   3.713   3.449   4.841  0.2837  0.4633 -0.1856
 7656TIP3    H144383   3.724   3.513   4.912  1.0732 -0.4167  0.4884
 7656TIP3    H244384   3.802   3.420   4.821  0.0218  0.3528 -1.2221
 7657TIP3   OH244385   5.751   6.649  13.875 -0.1957  0.3432 -0.2926
 7657TIP3    H144386   5.791   6.653  13.962  1.1957  1.5934 -0.9744
 7657TIP3    H244387   5.686   6.718  13.875 -1.4494 -0.8179  0.3570
 7658TIP3   OH244388   0.571   3.035   3.747 -0.6024  0.0110 -0.0710
 7658TIP3    H144389   0.489   3.056   3.792 -0.9406 -0.5485 -0.4089
 7658TIP3    H244390   0.543   2.982   3.672 -0.2600  2.7150 -2.1785
 7659TIP3   OH244391   5.833   1.123   3.998 -0.1768  0.1833 -0.1644
 7659TIP3    H144392   5.811   1.162   4.083  0.0321 -0.8687  0.3849
 7659TIP3    H244393   5.928   1.108   4.003  0.0246  1.1536 -1.0257
 7660TIP3   OH244394   3.686   6.772  14.524 -0.3421 -0.5125 -0.1001
 7660TIP3    H144395   3.687   6.799  14.616  1.4699  0.9858 -0.5331
 7660TIP3    H244396   3.606   6.811  14.489  0.4081  1.3129  0.1665
 7661TIP3   OH244397   1.290   4.010  16.258  0.2190 -0.4479  0.2924
 7661TIP3    H144398   1.206   3.976  16.227  0.2153 -2.3197  2.2173
 7661TIP3    H244399   1.274   4.103  16.274 -1.1013 -0.5042 -0.6538
 7662TIP3   OH244400   4.664   2.840  12.495  0.5384 -0.3630 -0.3820
 7662TIP3    H144401   4.730   2.884  12.547 -0.5924  0.8061  0.0888
 7662TIP3    H244402   4.642   2.761  12.545 -0.1045  0.4423  0.6243
 7663TIP3   OH244403   2.734   5.502  16.693 -0.4782 -0.5849  0.1637
 7663TIP3    H144404   2.718   5.492  16.787  0.3829  0.0168  0.3858
 7663TIP3    H244405   2.647   5.515  16.655 -0.6568  1.3414  1.1668
 7664TIP3   OH244406   2.427   5.527   1.735 -0.0128 -0.0258 -0.1691
 7664TIP3    H144407   2.432   5.525   1.639 -1.5013  0.1085 -0.2667
 7664TIP3    H244408   2.440   5.435   1.761 -2.0399 -0.4974 -0.6765
 7665TIP3   OH244409   3.702   1.768  11.718  0.6010 -0.0503  0.2382
 7665TIP3    H144410   3.717   1.694  11.659  2.1959  0.1764  0.3586
 7665TIP3    H244411   3.789   1.802  11.737 -0.0984  1.6544  0.4645
 7666TIP3   OH244412   2.494   0.571  11.727 -0.1346 -0.4225 -0.2901
 7666TIP3    H144413   2.413   0.621  11.724  0.7190  1.2551  2.6482
 7666TIP3    H244414   2.467   0.480  11.712 -2.2248  0.3906 -1.6596
 7667TIP3   OH244415   4.092   4.765   0.263  0.0161  0.1736 -0.4299
 7667TIP3    H144416   4.072   4.858   0.248  0.8138  0.5165  0.5500
 7667TIP3    H244417   4.187   4.760   0.255  0.0092 -0.4867 -0.0598
 7668TIP3   OH244418   6.242   5.775   5.061  0.7606  0.0263 -0.5777
 7668TIP3    H144419   6.268   5.782   4.969  0.7685 -3.5402 -0.8992
 7668TIP3    H244420   6.300   5.708   5.097 -1.0947 -0.5885  1.3283
 7669TIP3   OH244421   4.176   1.014   2.802 -0.7901 -0.6160  0.0107
 7669TIP3    H144422   4.092   0.992   2.843  0.1677 -1.7067  1.4281
 7669TIP3    H244423   4.180   0.959   2.724 -1.2029 -0.8931  0.1831
 7670TIP3   OH244424   4.258   6.204  17.108  0.2190  0.0543 -0.1050
 7670TIP3    H144425   4.315   6.129  17.093  0.1517 -0.5648  2.4222
 7670TIP3    H244426   4.282   6.267  17.040  1.5956 -1.5076 -1.0984
 7671TIP3   OH244427   5.867   0.258  12.113 -0.2890  0.7663  0.0170
 7671TIP3    H144428   5.893   0.212  12.034 -0.2237  1.9485 -0.6564
 7671TIP3    H244429   5.771   0.254  12.112 -0.2519 -1.1411  1.0427
 7672TIP3   OH244430   5.009   4.661   0.178 -0.4844 -0.5974 -0.0399
 7672TIP3    H144431   4.943   4.687   0.114 -0.4961  1.5544  0.7866
 7672TIP3    H244432   4.965   4.598   0.235 -1.0787 -0.9924 -0.9340
 7673TIP3   OH244433   1.061   0.412   6.185  0.3012  0.2386 -0.1556
 7673TIP3    H144434   0.974   0.389   6.218 -0.3875  0.4857 -1.7865
 7673TIP3    H244435   1.113   0.332   6.199  0.9261  1.2648  4.3679
 7674TIP3   OH244436   3.468   6.041   0.437  0.2903  0.3500 -0.3451
 7674TIP3    H144437   3.439   6.042   0.346 -2.2497 -0.1558  0.4383
 7674TIP3    H244438   3.404   6.094   0.484  1.4872  0.4781  1.1923
 7675TIP3   OH244439   6.179   5.084  11.895  1.1578  0.1868  0.9639
 7675TIP3    H144440   6.121   5.148  11.854  1.1458  0.0057  0.6981
 7675TIP3    H244441   6.265   5.127  11.894  1.4805 -0.4330 -0.6932
 7676TIP3   OH244442   4.010   6.201   5.484 -0.1517  0.8977  0.5506
 7676TIP3    H144443   4.025   6.148   5.563 -2.1458  0.4381  0.6365
 7676TIP3    H244444   3.918   6.225   5.488 -1.0395 -1.5242 -3.0894
 7677TIP3   OH244445   6.239   2.061   3.349  0.6226 -0.1236  0.0116
 7677TIP3    H144446   6.159   2.113   3.352 -0.3087 -1.5778  2.0047
 7677TIP3    H244447   6.221   1.993   3.284 -0.5092 -1.4996  1.6833
 7678TIP3   OH244448   5.460   3.728  14.397  0.0107  0.1310 -0.2230
 7678TIP3    H144449   5.456   3.823  14.405  0.3825  0.2528 -1.3436
 7678TIP3    H244450   5.503   3.699  14.477  0.8529  0.9977 -0.3485
 7679TIP3   OH244451   5.702   4.765   1.557 -0.1817 -0.0395  0.0693
 7679TIP3    H144452   5.628   4.704   1.549  1.8994 -2.6327 -0.1288
 7679TIP3    H244453   5.730   4.757   1.648  1.0813 -0.5683 -0.3577
 7680TIP3   OH244454   3.395   0.043  13.541 -0.3710  0.1404 -0.9000
 7680TIP3    H144455   3.429   0.109  13.601 -2.7329  0.2291  0.4042
 7680TIP3    H244456   3.459   0.039  13.470  1.3265  1.6432  0.5118
 7681TIP3   OH244457   6.452   1.051   6.002 -0.3544 -0.3238  0.2559
 7681TIP3    H144458   6.390   1.085   5.938  0.4708 -0.3459 -0.5645
 7681TIP3    H244459   6.467   0.961   5.975 -1.5901 -0.9859  1.7045
 7682TIP3   OH244460   3.034   3.629  16.941  0.4120 -0.4886 -0.5727
 7682TIP3    H144461   3.083   3.663  17.016  1.8277  2.3394 -2.6325
 7682TIP3    H244462   2.967   3.572  16.978  1.0152  0.9085  2.8021
 7683TIP3   OH244463   1.415   3.057  16.787 -0.5189  0.3157  0.1021
 7683TIP3    H144464   1.492   3.102  16.752  1.3799 -0.7981  2.7316
 7683TIP3    H244465   1.386   3.111  16.859  0.5879 -1.5711  2.0261
 7684TIP3   OH244466   3.166   0.761   1.146  0.4198 -0.2777 -0.8568
 7684TIP3    H144467   3.087   0.781   1.197  1.0595 -2.5483  1.1507
 7684TIP3    H244468   3.134   0.743   1.058 -1.2074 -0.2814 -0.2850
 7685TIP3   OH244469   0.456   2.128  16.903  0.0215  0.4658  0.1533
 7685TIP3    H144470   0.477   2.213  16.864  0.5870 -0.3668 -1.4113
 7685TIP3    H244471   0.361   2.123  16.900 -0.0024  0.9586  0.0681
 7686TIP3   OH244472   0.898   2.070  11.391  0.1131  0.4642 -0.4621
 7686TIP3    H144473   0.804   2.088  11.402  0.2687 -0.6007  3.1680
 7686TIP3    H244474   0.938   2.156  11.381 -1.1105  1.0152 -0.6971
 7687TIP3   OH244475   6.565   4.753   5.174 -0.4007  0.1078  0.7651
 7687TIP3    H144476   6.529   4.841   5.181 -2.5244 -0.5327 -1.2271
 7687TIP3    H244477   6.659   4.766   5.163 -0.5730  2.0688  1.4493
 7688TIP3   OH244478   5.449   2.010  14.358  0.3707 -0.0526  0.0681
 7688TIP3    H144479   5.442   2.059  14.276 -0.5454 -1.7866 -0.9318
 7688TIP3    H244480   5.358   1.993  14.384  0.6450 -3.1489 -0.8257
 7689TIP3   OH244481   4.091   0.261   2.070 -0.1530  0.0082 -0.0205
 7689TIP3    H144482   4.024   0.319   2.107  1.4030  0.7959  1.6433
 7689TIP3    H244483   4.043   0.183   2.043 -1.6779  0.3055  1.7123
 7690TIP3   OH244484   2.465   0.353  16.375 -0.5823  0.5845 -0.3938
 7690TIP3    H144485   2.498   0.442  16.368  0.1353  0.4004  0.6016
 7690TIP3    H244486   2.390   0.350  16.314 -0.4999  1.7962 -0.5610
 7691TIP3   OH244487   1.867   2.268  13.038 -0.0214 -0.4186  0.3969
 7691TIP3    H144488   1.829   2.354  13.018  0.8530 -0.3119 -0.8392
 7691TIP3    H244489   1.953   2.289  13.076  0.1279 -0.7459  0.2391
 7692TIP3   OH244490   2.962   6.573   4.817 -0.8171 -0.0146  0.2939
 7692TIP3    H144491   2.970   6.656   4.865 -4.7573 -0.6211  2.2557
 7692TIP3    H244492   2.908   6.595   4.741 -0.3169 -0.4333 -0.1868
 7693TIP3   OH244493   3.561   3.977  14.835 -0.0528 -0.2010  0.2491
 7693TIP3    H144494   3.638   3.939  14.793 -1.1371 -0.2257 -1.7987
 7693TIP3    H244495   3.537   3.914  14.903  1.0702 -0.7462  0.1488
 7694TIP3   OH244496   0.307   6.454   1.308  0.3254  0.2771 -0.0298
 7694TIP3    H144497   0.291   6.402   1.387  2.2393 -0.5571 -0.1670
 7694TIP3    H244498   0.319   6.543   1.339  0.6003  0.0299  0.5668
 7695TIP3   OH244499   4.789   6.464   2.605  0.0724  0.2678 -0.2820
 7695TIP3    H144500   4.849   6.393   2.627 -1.3971 -0.0503  3.0114
 7695TIP3    H244501   4.836   6.543   2.634  0.0496  0.2689 -0.2479
 7696TIP3   OH244502   0.989   5.995  16.391  0.1461  0.4683 -0.9322
 7696TIP3    H144503   1.053   6.061  16.368  0.0516  0.4450 -1.2582
 7696TIP3    H244504   0.920   6.004  16.326 -0.3062  0.6650 -0.4356
 7697TIP3   OH244505   1.669   5.057   4.961  0.2376  0.4838  0.0436
 7697TIP3    H144506   1.597   5.082   4.902 -1.6407 -2.6861  0.9034
 7697TIP3    H244507   1.632   5.065   5.048  0.5231 -2.2906  0.4591
 7698TIP3   OH244508   0.587   1.843   2.669 -0.0522  0.4861 -0.7324
 7698TIP3    H144509   0.587   1.838   2.573 -0.0726  0.5368 -0.7351
 7698TIP3    H244510   0.495   1.844   2.693 -0.0937 -3.2450 -0.4996
 7699TIP3   OH244511   3.733   0.153  15.031 -0.1510 -0.0529  0.7135
 7699TIP3    H144512   3.817   0.152  15.077  1.0584  2.2042 -1.2983
 7699TIP3    H244513   3.668   0.134  15.098  1.8953 -0.9590  2.4917
 7700TIP3   OH244514   0.648   2.123   3.384  1.4010  0.2930 -0.1189
 7700TIP3    H144515   0.662   2.143   3.291 -2.8870  1.1064 -0.6994
 7700TIP3    H244516   0.603   2.038   3.384  1.4572  0.2484  1.2469
 7701TIP3   OH244517   2.436   3.058  16.329  0.6723  0.4164  0.1402
 7701TIP3    H144518   2.523   3.083  16.361  2.1663 -1.0049 -2.6098
 7701TIP3    H244519   2.444   3.058  16.234 -2.3966  0.3665 -0.1796
 7702TIP3   OH244520   1.115   1.100  11.902  0.1524  0.5993  0.3530
 7702TIP3    H144521   1.125   1.187  11.941 -1.3856  0.8209  0.2965
 7702TIP3    H244522   1.021   1.093  11.885 -0.0364 -1.8599  2.1969
 7703TIP3   OH244523   6.062   2.477  12.711 -0.1275  0.0806  0.0677
 7703TIP3    H144524   6.045   2.549  12.773  0.4583 -0.2346  0.6043
 7703TIP3    H244525   6.152   2.451  12.730 -0.4792 -1.0846  0.1719
 7704TIP3   OH244526   2.877   4.105  16.404 -0.3500  0.5751 -0.0524
 7704TIP3    H144527   2.965   4.134  16.429  0.3531  1.6401 -3.5438
 7704TIP3    H244528   2.820   4.178  16.427 -0.2694  0.1673  1.5532
 7705TIP3   OH244529   2.347   6.171   2.384 -0.2860 -0.6611  0.0254
 7705TIP3    H144530   2.277   6.169   2.450  0.9413  0.4035  1.3816
 7705TIP3    H244531   2.425   6.143   2.431  0.4384 -0.7573 -1.2137
 7706TIP3   OH244532   3.090   3.275  15.101  0.6232 -0.2043 -0.5810
 7706TIP3    H144533   3.007   3.309  15.135  1.3257  0.5003  0.4312
 7706TIP3    H244534   3.086   3.181  15.117  0.1602 -0.1277 -0.2327
 7707TIP3   OH244535   2.261   3.181  15.806  0.0954  0.5416  0.3943
 7707TIP3    H144536   2.288   3.227  15.727  1.7817 -0.2780  0.4681
 7707TIP3    H244537   2.238   3.251  15.868  0.2961  1.2184 -0.2939
 7708TIP3   OH244538   6.367   6.095  16.473  0.5643  0.3126  0.0519
 7708TIP3    H144539   6.404   6.183  16.475 -1.9186  1.4011  1.0829
 7708TIP3    H244540   6.279   6.107  16.436  0.3740 -1.8222 -0.2814
 7709TIP3   OH244541   1.827   6.731   1.040  0.6315 -0.2100 -0.2649
 7709TIP3    H144542   1.829   6.786   1.118  2.1058  2.3961 -2.0842
 7709TIP3    H244543   1.915   6.694   1.034  1.1490  1.1709 -1.7240
 7710TIP3   OH244544   1.653   1.402   4.601 -0.2008  0.1036  0.0006
 7710TIP3    H144545   1.719   1.338   4.626 -0.8910 -1.3291 -1.7001
 7710TIP3    H244546   1.683   1.484   4.639  2.8207 -0.4129 -1.1146
 7711TIP3   OH244547   1.337   0.231  16.461 -0.1168  0.4119 -0.0920
 7711TIP3    H144548   1.333   0.154  16.518  1.1345  0.3902 -0.0122
 7711TIP3    H244549   1.314   0.199  16.374 -2.5972  0.5504  0.4781
 7712TIP3   OH244550   3.877   5.581  17.158 -0.4334  0.5078 -1.0537
 7712TIP3    H144551   3.872   5.551  17.249 -0.3804  2.5395 -0.3574
 7712TIP3    H244552   3.929   5.515  17.114  1.3758  0.5909  0.8707
 7713TIP3   OH244553   5.667   5.202   1.078 -0.1639  0.1753  0.1640
 7713TIP3    H144554   5.679   5.288   1.037 -0.3532 -0.7710 -1.9310
 7713TIP3    H244555   5.572   5.191   1.083 -0.1748  1.1220  2.7127
 7714TIP3   OH244556   4.003   5.309   4.197  0.2910  0.0913 -0.3314
 7714TIP3    H144557   3.996   5.404   4.197 -3.0462 -0.0884 -1.7540
 7714TIP3    H244558   4.082   5.290   4.248  0.8295  3.5850  0.1976
 7715TIP3   OH244559   6.181   6.333  14.415 -0.3064 -0.1823  0.2670
 7715TIP3    H144560   6.192   6.240  14.392 -1.4376 -0.0694 -0.8270
 7715TIP3    H244561   6.245   6.349  14.484  1.0548 -1.3539 -0.7062
 7716TIP3   OH244562   2.608   5.807  15.978  0.3418 -0.7675  0.4975
 7716TIP3    H144563   2.633   5.816  15.886 -0.2151 -0.1166  0.4029
 7716TIP3    H244564   2.668   5.863  16.025 -0.9170  0.8203  0.2672
 7717TIP3   OH244565   4.530   4.913  16.520 -0.1839 -0.2098  0.0583
 7717TIP3    H144566   4.553   4.829  16.559  1.5290  0.5407  0.7269
 7717TIP3    H244567   4.582   4.977  16.569  0.2439  0.9933 -1.9216
 7718TIP3   OH244568   3.467   5.775   2.954 -0.6901  0.2070  0.0160
 7718TIP3    H144569   3.483   5.856   2.907 -0.2240 -0.4536 -0.9743
 7718TIP3    H244570   3.533   5.774   3.023  0.8492 -0.4778 -1.4523
 7719TIP3   OH244571   6.595   3.057   0.528 -0.2847 -0.3339  0.2559
 7719TIP3    H144572   6.612   2.978   0.478  1.9095  1.1042 -1.3527
 7719TIP3    H244573   6.616   3.129   0.469 -2.7622  1.5018  1.4874
 7720TIP3   OH244574   2.684   0.392  13.178 -0.0157 -0.1109  0.2524
 7720TIP3    H144575   2.687   0.307  13.221  1.4516 -0.6467 -0.8618
 7720TIP3    H244576   2.762   0.394  13.122  0.7988  2.5852  1.3950
 7721TIP3   OH244577   5.969   4.864   0.888 -0.3709 -0.2051  0.0450
 7721TIP3    H144578   5.991   4.771   0.895  0.2698 -0.2015 -1.7824
 7721TIP3    H244579   5.932   4.874   0.800 -4.3436  0.5029  1.6614
 7722TIP3   OH244580   5.149   6.662   3.565  0.2164 -0.4202 -0.2887
 7722TIP3    H144581   5.151   6.684   3.471 -0.1553 -2.2491 -0.7493
 7722TIP3    H244582   5.078   6.598   3.572 -1.2524  1.3619  1.6303
 7723TIP3   OH244583   4.037   5.600   4.166  0.4303  0.2063  0.3128
 7723TIP3    H144584   3.952   5.642   4.158 -0.7127 -1.7172  1.8346
 7723TIP3    H244585   4.056   5.566   4.078 -0.9611 -0.4178  0.2379
 7724TIP3   OH244586   3.915   2.333   1.288 -0.2548 -0.4309  0.1983
 7724TIP3    H144587   3.935   2.353   1.379 -0.4967  1.5543 -0.1546
 7724TIP3    H244588   3.990   2.282   1.257  1.7024  2.1482  0.4592
 7725TIP3   OH244589   4.531   5.846  10.681 -0.0885 -0.4868 -0.0454
 7725TIP3    H144590   4.496   5.857  10.592  1.8526 -1.5091 -0.9567
 7725TIP3    H244591   4.483   5.771  10.716 -1.0152  0.0547 -0.1394
 7726TIP3   OH244592   5.052   0.786   6.755  0.2130  0.3077  0.8036
 7726TIP3    H144593   4.966   0.744   6.763  0.5047 -0.1711  1.3912
 7726TIP3    H244594   5.054   0.851   6.826  0.3211  0.3479  0.7642
 7727TIP3   OH244595   3.883   1.993   3.986  0.2089 -0.5623 -0.2706
 7727TIP3    H144596   3.909   1.953   3.903  0.9543 -0.5444 -0.0474
 7727TIP3    H244597   3.940   2.069   3.994 -1.1105  0.4878 -0.6354
 7728TIP3   OH244598   4.978   5.726  16.042  0.4780 -0.1001  0.4124
 7728TIP3    H144599   4.981   5.732  15.946 -0.1742  0.1288  0.4000
 7728TIP3    H244600   4.989   5.632  16.060  2.1789  0.0596  0.1945
 7729TIP3   OH244601   2.376   5.537   4.533 -0.1281  0.0170 -0.3006
 7729TIP3    H144602   2.339   5.618   4.497 -0.2730  0.8329  1.6085
 7729TIP3    H244603   2.322   5.518   4.610  1.4909 -0.4769  0.7381
 7730TIP3   OH244604   1.223   6.721   2.182  0.2795  0.0033  0.4727
 7730TIP3    H144605   1.149   6.661   2.189 -0.1657  0.5778  0.7828
 7730TIP3    H244606   1.234   6.735   2.088 -0.8547  0.9470  0.4713
 7731TIP3   OH244607   2.515   2.950   1.900  0.4355  0.3360 -0.0284
 7731TIP3    H144608   2.462   3.005   1.958  0.2279  0.6131 -0.4800
 7731TIP3    H244609   2.601   2.992   1.900  0.1885  0.8496 -0.6280
 7732TIP3   OH244610   5.865   5.082  15.801  0.0404 -1.1275 -0.1177
 7732TIP3    H144611   5.946   5.114  15.840  0.1210 -0.8292 -0.5294
 7732TIP3    H244612   5.837   5.010  15.858 -0.6858  0.3239  1.3987
 7733TIP3   OH244613   2.971   6.726  13.909 -0.2690  0.6938  0.2938
 7733TIP3    H144614   3.002   6.812  13.938 -0.1105  1.2835 -1.5295
 7733TIP3    H244615   3.041   6.665  13.934 -0.2551  1.1396  1.3486
 7734TIP3   OH244616   5.796   4.246   0.535 -0.2978  0.3097  0.1513
 7734TIP3    H144617   5.716   4.223   0.487 -0.3236  1.3145 -0.2835
 7734TIP3    H244618   5.864   4.190   0.496 -0.6325 -0.0148  0.0260
 7735TIP3   OH244619   3.095   5.377   5.914  0.0542  0.3534  0.6328
 7735TIP3    H144620   3.190   5.388   5.919 -0.0596  1.3131  0.7425
 7735TIP3    H244621   3.076   5.307   5.976  0.7335 -0.1056  0.3320
 7736TIP3   OH244622   5.618   6.393  12.265 -0.4786  0.6523  0.6323
 7736TIP3    H144623   5.628   6.309  12.219 -1.2186  0.3007  1.1025
 7736TIP3    H244624   5.705   6.433  12.262 -0.8032  1.2667 -2.3020
 7737TIP3   OH244625   4.554   2.266   5.222  0.5171  0.1582 -0.0620
 7737TIP3    H144626   4.478   2.208   5.221  1.4206 -1.0484 -1.3476
 7737TIP3    H244627   4.564   2.291   5.313 -1.4153  0.3424  0.1355
 7738TIP3   OH244628   0.104   0.544   1.014 -0.2423 -0.3215 -0.4155
 7738TIP3    H144629   0.123   0.600   1.089 -0.4477 -1.4880  0.4998
 7738TIP3    H244630   0.020   0.577   0.980 -1.8026 -1.8498  1.8265
 7739TIP3   OH244631   0.947   2.578   5.512 -0.0016 -0.1562 -0.6025
 7739TIP3    H144632   0.934   2.647   5.446 -1.1189 -0.5561 -0.8115
 7739TIP3    H244633   0.959   2.498   5.460  0.5992 -0.2350 -0.3455
 7740TIP3   OH244634   1.626   5.246  13.480 -0.5881  0.0603  0.0010
 7740TIP3    H144635   1.694   5.205  13.426 -1.0393 -0.9342  0.1572
 7740TIP3    H244636   1.630   5.339  13.459  0.5652 -0.0516 -0.2665
 7741TIP3   OH244637   4.830   2.265  11.002  0.0150 -0.2354  0.3757
 7741TIP3    H144638   4.898   2.242  11.065  0.5189 -1.0016 -0.4419
 7741TIP3    H244639   4.770   2.321  11.051  0.3206 -0.9479  1.5871
 7742TIP3   OH244640   4.494   0.802  10.954  0.0983 -0.6700 -0.4222
 7742TIP3    H144641   4.574   0.760  10.922  0.6046 -0.6315  0.7646
 7742TIP3    H244642   4.431   0.731  10.964  1.1184 -1.2897  2.1121
 7743TIP3   OH244643   6.185   1.798   4.674  0.4659  0.0754 -0.0002
 7743TIP3    H144644   6.107   1.848   4.653  0.6952  0.3670 -0.1574
 7743TIP3    H244645   6.251   1.829   4.612  0.4778 -0.7491 -0.4042
 7744TIP3   OH244646   1.746   4.638  17.062 -0.7848  0.2975  0.8145
 7744TIP3    H144647   1.782   4.553  17.038 -2.3934 -0.1214 -0.2384
 7744TIP3    H244648   1.773   4.652  17.153  1.4223 -0.2767  0.2681
 7745TIP3   OH244649   3.953   0.200  14.568  0.4155  0.5898 -0.2310
 7745TIP3    H144650   3.900   0.135  14.616 -0.0825  0.7714 -0.5279
 7745TIP3    H244651   4.043   0.181  14.594  0.3647 -0.8662 -1.0874
 7746TIP3   OH244652   1.668   4.863   0.397  0.1953  0.3166  0.1155
 7746TIP3    H144653   1.763   4.860   0.386  0.3216  3.4240  0.0411
 7746TIP3    H244654   1.636   4.786   0.349  2.5992 -0.4321 -0.3492
 7747TIP3   OH244655   4.078   1.619   3.273 -0.0678 -0.0035  0.2079
 7747TIP3    H144656   4.106   1.545   3.326 -0.4670 -0.1895  0.1594
 7747TIP3    H244657   4.051   1.685   3.336  1.0736  0.4156  0.2701
 7748TIP3   OH244658   0.595   0.422   0.449 -0.4320 -0.4279 -0.7434
 7748TIP3    H144659   0.543   0.341   0.454 -0.8050 -0.0552  2.0661
 7748TIP3    H244660   0.541   0.488   0.493  1.5223  0.4449  0.3850
 7749TIP3   OH244661   0.041   4.434  14.374 -0.4095 -0.2365 -0.1907
 7749TIP3    H144662  -0.037   4.437  14.430 -0.9771 -2.3370 -0.8112
 7749TIP3    H244663   0.114   4.442  14.435 -1.0771  1.2547  0.4531
 7750TIP3   OH244664   5.857   1.881  14.935  1.0264  0.0526 -0.0200
 7750TIP3    H144665   5.761   1.878  14.930  0.9922 -0.9789  1.1314
 7750TIP3    H244666   5.879   1.972  14.915 -0.2066  0.3448 -0.0798
 7751TIP3   OH244667   2.235   2.549  14.173  0.6563 -0.6771  0.1758
 7751TIP3    H144668   2.259   2.640  14.158  1.9446 -0.8193  1.3302
 7751TIP3    H244669   2.168   2.531  14.107  0.4809  1.0620 -0.1341
 7752TIP3   OH244670   2.769   5.964  16.866  0.8058 -0.1709 -0.3286
 7752TIP3    H144671   2.844   5.980  16.924  0.8248 -0.3282 -0.3122
 7752TIP3    H244672   2.758   5.869  16.866 -0.1883 -0.0785  0.6888
 7753TIP3   OH244673   2.008   6.650   0.311  0.1733 -0.2727  0.1208
 7753TIP3    H144674   2.051   6.697   0.382  0.4517 -0.3140 -0.0222
 7753TIP3    H244675   2.036   6.559   0.321 -1.2795 -0.6257  1.0950
 7754TIP3   OH244676   6.440   5.698  16.976  0.1131 -0.3763 -0.2273
 7754TIP3    H144677   6.422   5.687  17.069 -0.6880 -0.4208 -0.3815
 7754TIP3    H244678   6.360   5.736  16.940  1.5011  2.5985 -0.3695
 7755TIP3   OH244679   5.495   5.678   2.968  0.8830 -0.2867 -0.5895
 7755TIP3    H144680   5.515   5.587   2.990  1.1336 -0.0866  0.0190
 7755TIP3    H244681   5.545   5.730   3.031  0.8047  0.2774 -0.9833
 7756TIP3   OH244682   0.741   6.645   3.371  0.3659 -0.8578  0.1558
 7756TIP3    H144683   0.680   6.624   3.300 -0.6566  0.2444  0.7020
 7756TIP3    H244684   0.696   6.617   3.450  0.9518 -0.8601  0.4933
 7757TIP3   OH244685   1.790   0.781  12.419  0.3146  0.1536  0.2058
 7757TIP3    H144686   1.787   0.797  12.325 -0.9289  1.0744  0.3959
 7757TIP3    H244687   1.724   0.839  12.456  0.0515 -0.9580  1.5424
 7758TIP3   OH244688   5.517   2.947   1.421 -0.0227  0.2339 -0.1519
 7758TIP3    H144689   5.573   2.922   1.495 -1.3958 -1.0228  0.4895
 7758TIP3    H244690   5.506   2.866   1.371 -0.7155  0.6236 -0.6382
 7759TIP3   OH244691   4.956   2.035   2.350  0.5112  0.0623 -0.3342
 7759TIP3    H144692   4.883   1.974   2.361 -0.6731  1.1463 -1.8757
 7759TIP3    H244693   4.917   2.121   2.367  1.4150  0.6586 -1.2366
 7760TIP3   OH244694   2.023   0.703  11.489 -0.2905 -0.2031 -0.5505
 7760TIP3    H144695   2.046   0.612  11.471  1.0264 -0.4988  2.3947
 7760TIP3    H244696   2.107   0.746  11.503 -0.8267  1.7699 -3.0957
 7761TIP3   OH244697   6.735   5.784   6.334  0.0529  0.1644  0.2861
 7761TIP3    H144698   6.685   5.716   6.288 -1.6071  1.6448 -0.1494
 7761TIP3    H244699   6.720   5.767   6.427 -0.0108 -0.3107  0.1877
 7762TIP3   OH244700   0.567   0.577  11.395 -0.4479 -0.1508 -0.2319
 7762TIP3    H144701   0.608   0.598  11.312 -1.8184 -1.6308 -1.3115
 7762TIP3    H244702   0.594   0.487  11.413  0.1792  0.2991  1.1351
 7763TIP3   OH244703   1.822   3.985  17.152 -0.0901 -0.4406  0.3277
 7763TIP3    H144704   1.879   4.026  17.218 -1.1737 -1.0034  1.6328
 7763TIP3    H244705   1.880   3.971  17.077  1.6455 -1.5014  1.8007
 7764TIP3   OH244706   2.150   4.173   5.444  0.3178 -0.4813 -0.2289
 7764TIP3    H144707   2.234   4.216   5.457  0.2169 -0.4360  0.2599
 7764TIP3    H244708   2.140   4.116   5.520 -0.6609  0.4328  0.3319
 7765TIP3   OH244709   2.899   4.146  15.591 -0.4255  0.4800 -0.0870
 7765TIP3    H144710   2.920   4.053  15.587 -0.9774  0.3217  0.5506
 7765TIP3    H244711   2.832   4.158  15.524 -0.7242  0.3118  0.1795
 7766TIP3   OH244712   2.760   1.908   0.541 -0.0585 -0.6635  0.2687
 7766TIP3    H144713   2.777   1.909   0.635 -0.5153 -4.3348  0.4438
 7766TIP3    H244714   2.686   1.849   0.530 -0.1200 -0.1723 -2.3999
 7767TIP3   OH244715   0.067   2.814  12.290 -0.0115  0.1931  0.3273
 7767TIP3    H144716   0.110   2.898  12.303  1.1810 -0.2199 -0.8749
 7767TIP3    H244717   0.076   2.796  12.196 -0.0698 -1.3704  0.5986
 7768TIP3   OH244718   4.402   0.672   3.488 -0.0278 -0.4046 -0.2775
 7768TIP3    H144719   4.308   0.673   3.506 -0.0101  0.8671 -0.2060
 7768TIP3    H244720   4.420   0.582   3.460 -1.0314 -0.9854  0.9046
 7769TIP3   OH244721   1.261   5.246   2.446 -0.1703 -0.0985 -0.2306
 7769TIP3    H144722   1.220   5.255   2.360  2.1422 -0.6556 -1.4242
 7769TIP3    H244723   1.274   5.152   2.457  0.2844  0.0309  0.3758
 7770TIP3   OH244724   5.574   3.199   1.370 -0.1243 -0.4062  0.4211
 7770TIP3    H144725   5.564   3.193   1.275 -0.1238 -0.2606  0.4126
 7770TIP3    H244726   5.556   3.110   1.401 -2.8372  0.1539  0.5472
 7771TIP3   OH244727   2.320   5.112   3.347  0.1028 -0.1749  0.3145
 7771TIP3    H144728   2.276   5.059   3.414 -2.3995  1.1989 -0.1902
 7771TIP3    H244729   2.344   5.048   3.280 -4.3943 -0.6011 -1.0986
 7772TIP3   OH244730   1.388   2.216   5.883  0.2809  0.2905 -0.2084
 7772TIP3    H144731   1.295   2.233   5.872  0.3021  0.6183  0.0883
 7772TIP3    H244732   1.415   2.173   5.802 -0.2651 -0.3971 -0.0261
 7773TIP3   OH244733   2.638   4.376   4.813 -0.4576  0.3159  0.1987
 7773TIP3    H144734   2.570   4.414   4.868 -0.6660  0.4412 -0.1492
 7773TIP3    H244735   2.592   4.319   4.752 -0.3440  1.1297 -0.6540
 7774TIP3   OH244736   5.260   4.669   5.701 -0.2500 -0.7529 -0.6156
 7774TIP3    H144737   5.224   4.581   5.705  0.6287 -1.2079 -2.0638
 7774TIP3    H244738   5.352   4.656   5.675  0.5931  0.4483  1.6777
 7775TIP3   OH244739   2.336   4.361  13.795 -0.3939  0.1685 -0.1506
 7775TIP3    H144740   2.326   4.278  13.747 -0.7875  1.8204 -3.0504
 7775TIP3    H244741   2.417   4.398  13.762  0.4955  0.3512  2.1491
 7776TIP3   OH244742   1.000   6.768   0.758 -0.0249  0.1935  0.2674
 7776TIP3    H144743   1.051   6.808   0.829 -0.8673  0.2018  0.8652
 7776TIP3    H244744   0.910   6.794   0.775 -0.4716 -1.2691  0.1702
 7777TIP3   OH244745   0.031   1.316  14.052 -0.0461  0.4405  0.6681
 7777TIP3    H144746  -0.044   1.259  14.033  0.4672 -0.3159  0.9008
 7777TIP3    H244747   0.090   1.304  13.977 -1.1837  2.8036 -0.6720
 7778TIP3   OH244748   1.638   1.815   2.799  0.1860  0.2893  0.7693
 7778TIP3    H144749   1.543   1.819   2.809 -0.0831  1.4951 -1.8494
 7778TIP3    H244750   1.663   1.731   2.837 -1.8650  0.1778  1.9113
 7779TIP3   OH244751   0.479   0.247   2.857  0.4209  0.0022  0.5301
 7779TIP3    H144752   0.384   0.233   2.865  0.6482 -0.4060  2.8805
 7779TIP3    H244753   0.498   0.317   2.919  2.0150 -1.6150  1.9022
 7780TIP3   OH244754   5.174   3.294  13.964 -0.0122 -0.1468 -0.1851
 7780TIP3    H144755   5.208   3.358  13.901  2.4915  0.2236  1.5042
 7780TIP3    H244756   5.135   3.225  13.909  3.3358 -0.5351 -2.2056
 7781TIP3   OH244757   1.678   4.690  13.239 -0.8916  0.2429 -0.0292
 7781TIP3    H144758   1.640   4.771  13.271  0.1743 -0.0110  1.9882
 7781TIP3    H244759   1.604   4.631  13.227 -1.8551  1.9699 -3.0701
 7782TIP3   OH244760   5.242   4.243   2.186  0.4295  0.3004 -0.5374
 7782TIP3    H144761   5.224   4.169   2.128  0.5203 -0.6906  0.6695
 7782TIP3    H244762   5.199   4.318   2.145  0.4484 -0.3994 -1.8424
 7783TIP3   OH244763   3.066   1.403   3.676 -0.2997  0.3917  0.1797
 7783TIP3    H144764   3.094   1.330   3.620  0.3387  1.4075 -0.8514
 7783TIP3    H244765   3.148   1.440   3.709 -0.6462  0.2584  1.2173
 7784TIP3   OH244766   5.928   2.347  11.987 -0.5957  0.5987 -0.1157
 7784TIP3    H144767   5.994   2.336  12.056  0.4876 -0.2674 -1.2678
 7784TIP3    H244768   5.959   2.292  11.915 -1.8783  1.2446 -1.1838
 7785TIP3   OH244769   3.830   1.989   0.042  0.8555  0.1370  0.2030
 7785TIP3    H144770   3.863   2.037  -0.034  0.3316  1.4891  0.8152
 7785TIP3    H244771   3.858   1.898   0.027  2.7595  0.8112 -0.4570
 7786TIP3   OH244772   4.572   2.709  11.473  0.3977  0.2327  0.2446
 7786TIP3    H144773   4.556   2.722  11.567 -3.0568  0.1615 -0.2723
 7786TIP3    H244774   4.653   2.757  11.456  0.3301  1.4474  2.9758
 7787TIP3   OH244775   1.320   4.431   4.879 -0.2377  0.4706 -0.0096
 7787TIP3    H144776   1.300   4.411   4.970  0.3564  0.8804  0.2119
 7787TIP3    H244777   1.412   4.457   4.880 -0.6336  1.9173 -0.5034
 7788TIP3   OH244778   1.692   1.721  14.452 -0.0260 -0.2635  0.1772
 7788TIP3    H144779   1.698   1.694  14.544 -2.1089 -3.4169 -0.4928
 7788TIP3    H244780   1.599   1.711  14.431  0.0317  2.6058 -1.6975
 7789TIP3   OH244781   2.184   4.398   3.198  0.1333 -0.1836  0.1151
 7789TIP3    H144782   2.180   4.367   3.108  0.8315 -0.9789  0.3499
 7789TIP3    H244783   2.217   4.487   3.192 -0.2260 -0.0895 -0.4437
 7790TIP3   OH244784   3.911   5.083  11.580 -0.4523  0.0783 -0.2571
 7790TIP3    H144785   3.893   5.150  11.646  0.3696 -0.3173  0.3684
 7790TIP3    H244786   3.978   5.122  11.524 -1.8365  0.7980 -1.4536
 7791TIP3   OH244787   6.678   5.710   6.585  0.1441  0.5807 -0.3034
 7791TIP3    H144788   6.762   5.743   6.616 -0.9094  0.9976  2.2293
 7791TIP3    H244789   6.653   5.643   6.648 -1.3532  0.3289 -1.1235
 7792TIP3   OH244790   3.062   0.421  15.553 -0.5931 -0.1574 -0.0633
 7792TIP3    H144791   3.030   0.508  15.575  1.5984  0.3522  1.2118
 7792TIP3    H244792   3.157   0.431  15.543 -0.0528 -2.7384  1.9153
 7793TIP3   OH244793   1.844   4.010  16.680  0.0911 -0.5539  0.1254
 7793TIP3    H144794   1.830   3.916  16.692  0.2988 -0.5040  0.7950
 7793TIP3    H244795   1.939   4.018  16.665  0.2320 -0.3571  1.0829
 7794TIP3   OH244796   1.183   6.378  10.491 -0.0051 -0.2714 -0.4613
 7794TIP3    H144797   1.146   6.458  10.528  0.5890 -0.0687 -0.3094
 7794TIP3    H244798   1.149   6.308  10.547  1.0846  0.0528  0.6305
 7795TIP3   OH244799   2.594   1.287   1.579 -0.0802  0.6282 -0.1815
 7795TIP3    H144800   2.685   1.265   1.560 -0.7297 -1.8242 -0.6863
 7795TIP3    H244801   2.593   1.309   1.672  0.7269 -1.2726  0.3036
 7796TIP3   OH244802   3.597   6.765  11.072  0.0501  0.1970  0.0680
 7796TIP3    H144803   3.502   6.767  11.087  0.2259  0.0787  1.2182
 7796TIP3    H244804   3.607   6.714  10.991 -0.8925  0.6206 -0.3232
 7797TIP3   OH244805   1.283   0.056   0.354  0.5893 -0.1552  0.0970
 7797TIP3    H144806   1.231   0.127   0.391  1.5959  0.3588  0.5579
 7797TIP3    H244807   1.219  -0.007   0.321 -0.3104  0.5043  0.5787
 7798TIP3   OH244808   5.110   0.520   1.918 -0.2259  0.1676  0.2019
 7798TIP3    H144809   5.084   0.470   1.841  0.0958  1.5870 -0.8613
 7798TIP3    H244810   5.151   0.599   1.882  1.6305 -0.0071  1.8185
 7799TIP3   OH244811   4.744   1.680   4.158  0.5396 -0.4346 -0.0045
 7799TIP3    H144812   4.735   1.616   4.087  1.0669 -1.3909  0.7788
 7799TIP3    H244813   4.679   1.653   4.222 -0.3484  0.7835 -0.3698
 7800TIP3   OH244814   1.690   3.518   2.264  0.0641 -0.5962  0.0120
 7800TIP3    H144815   1.743   3.468   2.203  1.6105 -1.4533  2.0051
 7800TIP3    H244816   1.739   3.600   2.276  0.4127 -0.9313  0.9932
 7801TIP3   OH244817   0.631   3.009  13.893  0.1513 -0.1222  0.1843
 7801TIP3    H144818   0.665   3.097  13.876 -0.4187  0.0303 -0.1782
 7801TIP3    H244819   0.703   2.950  13.868  0.2559  0.2106 -0.2957
 7802TIP3   OH244820   1.575   0.951   4.608 -0.0632  0.6993 -0.2478
 7802TIP3    H144821   1.587   1.028   4.552 -1.5986  1.6219  0.6497
 7802TIP3    H244822   1.482   0.930   4.599  0.2329 -0.7280 -0.0528
 7803TIP3   OH244823   4.862   6.694   4.032 -0.4015  0.3158  0.2114
 7803TIP3    H144824   4.878   6.657   4.118 -0.2271 -1.0658 -0.4031
 7803TIP3    H244825   4.948   6.700   3.991 -0.4359  1.3457  0.2819
 7804TIP3   OH244826   0.422   2.215  12.780 -0.0549  0.0828 -0.1428
 7804TIP3    H144827   0.432   2.177  12.693  0.8759 -1.0534  0.4377
 7804TIP3    H244828   0.422   2.310  12.766 -1.1242 -0.1161 -1.4916
 7805TIP3   OH244829   3.299   6.766  13.275 -0.0979 -0.3435 -0.0384
 7805TIP3    H144830   3.391   6.765  13.249 -0.1107 -0.2882 -0.0850
 7805TIP3    H244831   3.259   6.831  13.218 -0.3478 -0.9958 -0.6138
 7806TIP3   OH244832   5.382   6.770  11.989  0.1157  0.1487 -0.2558
 7806TIP3    H144833   5.314   6.729  11.936  0.8525 -0.8365 -0.4435
 7806TIP3    H244834   5.409   6.702  12.051  2.1469 -0.0584 -1.3207
 7807TIP3   OH244835   2.113   5.312  16.554  0.8564 -0.5207 -0.2963
 7807TIP3    H144836   2.151   5.268  16.631 -0.7958 -1.5988 -0.0837
 7807TIP3    H244837   2.078   5.394  16.589 -0.0955 -1.1138  0.1456
 7808TIP3   OH244838   2.003   6.657  13.444  0.6361  0.3933 -0.3057
 7808TIP3    H144839   2.064   6.731  13.451  1.0752 -0.0886  1.2070
 7808TIP3    H244840   1.944   6.669  13.519 -2.5890  2.1342 -2.9794
 7809TIP3   OH244841   0.475   2.060  11.486 -0.1355  0.3892 -0.2078
 7809TIP3    H144842   0.544   2.052  11.420  3.0940  1.1003  2.8850
 7809TIP3    H244843   0.401   2.011  11.450  2.1773 -0.9462 -3.3924
 7810TIP3   OH244844   6.749   4.949   3.046  0.1135  0.5134  0.5787
 7810TIP3    H144845   6.789   4.998   2.974  2.5786 -0.0465  1.5162
 7810TIP3    H244846   6.661   4.927   3.014  0.9020  0.8860 -1.9622
 7811TIP3   OH244847   4.416   4.261  17.120  0.3306 -0.5484  0.0938
 7811TIP3    H144848   4.438   4.201  17.192  1.4489  0.4529  0.6103
 7811TIP3    H244849   4.374   4.205  17.055 -0.5305 -1.5147  1.4355
 7812TIP3   OH244850   2.764   6.414   2.959  0.1683  0.2512 -0.1848
 7812TIP3    H144851   2.710   6.458   2.894 -0.3522 -1.5813 -1.0384
 7812TIP3    H244852   2.805   6.342   2.911  0.5144 -0.5612  1.3007
 7813TIP3   OH244853   5.123   3.414   1.588 -0.2088  0.6235 -0.3028
 7813TIP3    H144854   5.029   3.428   1.597 -0.5209 -1.1457 -0.4952
 7813TIP3    H244855   5.140   3.336   1.641  0.5119 -1.1436 -3.0254
 7814TIP3   OH244856   3.237   0.897  11.775 -0.4513  0.1425  0.3622
 7814TIP3    H144857   3.224   0.934  11.688  2.1801  0.0770 -0.1231
 7814TIP3    H244858   3.332   0.904  11.790 -0.7636 -0.4539  2.9443
 7815TIP3   OH244859   0.021   6.231  15.385 -0.5172 -0.3144 -0.1595
 7815TIP3    H144860   0.028   6.193  15.297  2.8430 -1.1153  0.3942
 7815TIP3    H244861  -0.008   6.321  15.370  0.9037 -0.1554 -2.1997
 7816TIP3   OH244862   3.003   1.011  13.635 -0.0211 -0.1199 -0.8132
 7816TIP3    H144863   3.031   0.962  13.712  3.6228  0.9483 -1.3804
 7816TIP3    H244864   2.941   0.952  13.591 -1.6916 -0.9927  2.5428
 7817TIP3   OH244865   3.325   4.426  14.726 -0.7553  0.1814  0.5086
 7817TIP3    H144866   3.359   4.376  14.800 -0.8594 -1.1012 -0.3004
 7817TIP3    H244867   3.399   4.432  14.665 -0.9219  0.5114  0.3370
 7818TIP3   OH244868   2.359   5.067   2.837 -0.0628  0.2240 -0.0229
 7818TIP3    H144869   2.395   5.002   2.897 -0.2859  0.7059  0.6394
 7818TIP3    H244870   2.270   5.082   2.868  0.3954  1.7560  0.5942
 7819TIP3   OH244871   0.464   2.271  16.497 -0.2228 -0.3133  0.0048
 7819TIP3    H144872   0.553   2.236  16.492 -0.0469  0.4539 -4.7822
 7819TIP3    H244873   0.472   2.351  16.550  1.4975 -1.4073  1.4278
 7820TIP3   OH244874   6.412   4.266   5.570 -0.6039  0.0541  0.7111
 7820TIP3    H144875   6.440   4.183   5.608 -1.1220  0.6690  2.4926
 7820TIP3    H244876   6.470   4.278   5.494 -0.6362 -1.9932  0.3208
 7821TIP3   OH244877   0.932   6.003  14.397 -0.2578 -0.2642 -0.1695
 7821TIP3    H144878   0.872   5.979  14.468 -0.2581  0.5110  0.0972
 7821TIP3    H244879   1.019   5.980  14.431 -0.3657 -1.1310 -0.4494
 7822TIP3   OH244880   2.976   4.950   4.984 -0.1084  0.1172  0.0326
 7822TIP3    H144881   3.066   4.946   5.018 -0.3769 -0.2869  0.7132
 7822TIP3    H244882   2.942   4.861   4.996  0.1928 -0.3446 -2.4475
 7823TIP3   OH244883   5.415   1.590   3.389  1.0813  0.6487 -0.2268
 7823TIP3    H144884   5.394   1.498   3.402  0.8035  0.6534 -0.6256
 7823TIP3    H244885   5.471   1.592   3.312 -0.1778  0.9617 -1.1408
 7824TIP3   OH244886   4.164   6.185  11.204 -0.0374 -0.0970 -0.0846
 7824TIP3    H144887   4.093   6.248  11.200 -1.9498 -2.0922  0.8538
 7824TIP3    H244888   4.206   6.202  11.289 -0.3801  0.0937  0.0500
 7825TIP3   OH244889   0.127   0.336   1.394  0.1574  0.7024 -0.2211
 7825TIP3    H144890   0.198   0.306   1.450  0.2919  1.9041  0.2506
 7825TIP3    H244891   0.050   0.287   1.424  0.3964  0.7565  0.4753
 7826TIP3   OH244892   1.817   6.408  14.507 -0.2039  0.2095  0.4841
 7826TIP3    H144893   1.845   6.470  14.440  0.1562 -0.0327  0.4103
 7826TIP3    H244894   1.883   6.417  14.577 -0.2107 -0.0092  0.5196
 7827TIP3   OH244895   1.243   3.312  10.796  0.7283 -0.0483 -0.0072
 7827TIP3    H144896   1.242   3.221  10.825  1.1681  1.0501  3.6478
 7827TIP3    H244897   1.333   3.341  10.810  0.5450  1.0123 -0.9594
 7828TIP3   OH244898   2.876   6.578   5.264  0.3284 -0.5004 -0.5908
 7828TIP3    H144899   2.849   6.510   5.203 -0.8023  0.2919 -1.0053
 7828TIP3    H244900   2.968   6.560   5.282 -0.3200 -2.9737  0.4379
 7829TIP3   OH244901   5.502   5.714  17.187 -0.0969 -0.3240 -0.2374
 7829TIP3    H144902   5.526   5.630  17.227 -0.8256 -0.9156 -1.0359
 7829TIP3    H244903   5.565   5.776  17.224 -1.8396 -0.4975  3.2282
 7830TIP3   OH244904   5.604   4.305  15.641 -0.0188 -0.3276 -0.6715
 7830TIP3    H144905   5.663   4.272  15.574  0.7533 -1.9726  0.8072
 7830TIP3    H244906   5.587   4.230  15.697 -0.0078  1.2302  1.4435
 7831TIP3   OH244907   3.826   6.685   5.358  1.0247 -0.6962 -0.1124
 7831TIP3    H144908   3.769   6.610   5.345 -0.1333  0.0441  0.6269
 7831TIP3    H244909   3.828   6.698   5.453 -0.1293  1.2050 -0.3072
 7832TIP3   OH244910   2.158   2.233   2.491 -0.1536  0.1874  0.4412
 7832TIP3    H144911   2.234   2.190   2.450 -0.9713 -1.3450  0.4817
 7832TIP3    H244912   2.190   2.264   2.575  0.5448 -0.0499  0.2652
 7833TIP3   OH244913   4.529   6.293  12.893 -0.4048  0.0539  0.3179
 7833TIP3    H144914   4.624   6.298  12.884 -0.4405  0.2612  0.0574
 7833TIP3    H244915   4.496   6.365  12.841 -0.6773  0.4031  0.9705
 7834TIP3   OH244916   5.439   1.637   2.599  0.1279 -0.3756  0.0342
 7834TIP3    H144917   5.375   1.598   2.658 -1.1510  1.7445  0.1047
 7834TIP3    H244918   5.388   1.662   2.522  0.5174  2.8544  0.7722
 7835TIP3   OH244919   0.847   3.970   5.205 -0.1227 -0.0550 -0.5573
 7835TIP3    H144920   0.923   4.000   5.255  0.1075 -0.1177 -0.8682
 7835TIP3    H244921   0.816   3.894   5.253 -0.0977  0.0792 -0.3272
 7836TIP3   OH244922   3.180   6.595  16.205 -0.5202  0.1528  0.0863
 7836TIP3    H144923   3.123   6.558  16.273 -1.5121  2.1401  0.3720
 7836TIP3    H244924   3.163   6.541  16.128 -0.7595 -0.9667  0.9095
 7837TIP3   OH244925   1.736   1.474   2.879 -0.0730  0.3554 -0.0416
 7837TIP3    H144926   1.658   1.477   2.935 -0.1860 -0.6003 -0.1443
 7837TIP3    H244927   1.704   1.444   2.794  0.3470  0.3281 -0.1919
 7838TIP3   OH244928   5.009   1.732  16.342 -0.3417 -0.1220  0.1592
 7838TIP3    H144929   5.014   1.677  16.263  2.4072  1.7083 -1.0053
 7838TIP3    H244930   4.929   1.783  16.330 -0.3745 -0.4344 -1.0677
 7839TIP3   OH244931   3.128   5.062  16.947 -0.1567 -0.2734  0.6615
 7839TIP3    H144932   3.127   5.028  16.858  0.6853 -0.1032  0.5759
 7839TIP3    H244933   3.051   5.118  16.953  0.5257  0.8007 -0.4006
 7840TIP3   OH244934   1.387   2.932   5.068 -0.2789  0.1247 -0.0605
 7840TIP3    H144935   1.314   2.932   5.131  0.2125 -0.2224  0.5210
 7840TIP3    H244936   1.405   3.024   5.052  1.6086  0.2876  2.7039
 7841TIP3   OH244937   1.298   6.259   3.161 -0.1969 -0.2906  0.8712
 7841TIP3    H144938   1.236   6.307   3.216  0.1846  1.2459 -0.0091
 7841TIP3    H244939   1.378   6.312   3.163 -0.1473 -0.2784 -1.0841
 7842TIP3   OH244940   4.620   0.154   5.004 -0.1199 -0.1241 -0.8207
 7842TIP3    H144941   4.614   0.228   5.064  0.7513 -0.5404 -0.2029
 7842TIP3    H244942   4.548   0.166   4.943 -0.6557  0.6300 -0.0457
 7843TIP3   OH244943   5.880   5.150   0.867 -0.3599  0.6192 -0.1199
 7843TIP3    H144944   5.921   5.066   0.888 -1.9758 -0.0786  0.3424
 7843TIP3    H244945   5.816   5.163   0.937  0.5431  2.7171  0.3624
 7844TIP3   OH244946   3.134   2.256   1.291 -0.0722  0.2719 -0.8568
 7844TIP3    H144947   3.221   2.276   1.257 -0.1354  1.9750 -0.0659
 7844TIP3    H244948   3.081   2.239   1.213  0.5836  0.8696 -1.4408
 7845TIP3   OH244949   2.452   2.755   2.321 -0.7964  0.3155 -0.2693
 7845TIP3    H144950   2.393   2.715   2.384  0.3832 -0.4771  0.3482
 7845TIP3    H244951   2.415   2.842   2.305 -2.2201 -0.2440 -0.0506
 7846TIP3   OH244952   2.432   1.199  11.701  0.3597 -0.4775 -0.6429
 7846TIP3    H144953   2.432   1.105  11.682  2.6317 -0.5274 -0.5355
 7846TIP3    H244954   2.471   1.240  11.624  0.0383  0.3099 -0.3955
 7847TIP3   OH244955   2.121   4.062   5.032 -0.5148  0.2407 -0.5789
 7847TIP3    H144956   2.048   4.064   4.970  0.2288  0.7361 -1.4615
 7847TIP3    H244957   2.180   4.131   5.001 -0.0898  0.4260  0.6356
 7848TIP3   OH244958   2.188   2.101   0.642  0.2674 -0.0137 -0.0887
 7848TIP3    H144959   2.130   2.137   0.574  0.8639  0.1559 -0.5127
 7848TIP3    H244960   2.238   2.033   0.597  0.0618 -0.4967  0.3986
 7849TIP3   OH244961   5.412   0.180  13.078 -0.0732  0.2357 -0.1247
 7849TIP3    H144962   5.325   0.190  13.038 -0.1976 -0.0680  0.0720
 7849TIP3    H244963   5.425   0.263  13.125 -1.0034 -0.3948  1.2877
 7850TIP3   OH244964   0.781   3.068   4.717  0.0018  0.0897  0.0138
 7850TIP3    H144965   0.756   2.976   4.722  2.2213 -0.5128  0.6075
 7850TIP3    H244966   0.795   3.095   4.808  2.2332  0.1512 -0.3076
 7851TIP3   OH244967   0.653   3.962   6.514  0.0649  0.1711 -1.0633
 7851TIP3    H144968   0.649   4.052   6.546  0.6866  0.5956 -2.1319
 7851TIP3    H244969   0.567   3.946   6.475 -0.6948 -0.3501  0.7593
 7852TIP3   OH244970   3.271   3.164  13.485 -0.5041 -0.8726  0.2067
 7852TIP3    H144971   3.224   3.163  13.402  2.1445 -0.6506 -1.3434
 7852TIP3    H244972   3.282   3.256  13.506  2.0970 -0.8525 -1.1334
 7853TIP3   OH244973   3.776   5.944   4.256 -0.2584 -0.5432 -0.2553
 7853TIP3    H144974   3.838   6.007   4.220 -0.3789  0.0741  0.6061
 7853TIP3    H244975   3.691   5.985   4.244 -0.4886 -1.2713 -1.1864
 7854TIP3   OH244976   5.244   4.255  12.403 -0.0430  0.3793 -0.4283
 7854TIP3    H144977   5.304   4.329  12.398 -0.4867  0.8480  0.9056
 7854TIP3    H244978   5.162   4.293  12.434 -0.6088 -0.4923 -0.8348
 7855TIP3   OH244979   2.089   5.583  13.170  0.2912  0.2525  0.1770
 7855TIP3    H144980   2.106   5.529  13.093 -0.1406 -1.1621  1.0412
 7855TIP3    H244981   2.025   5.647  13.141 -0.0175 -0.3918 -0.5875
 7856TIP3   OH244982   4.296   0.268   5.318 -0.6041  0.2079  0.0872
 7856TIP3    H144983   4.392   0.276   5.313 -0.4391 -1.0242  0.9507
 7856TIP3    H244984   4.269   0.258   5.227  0.1043  0.4823 -0.1610
 7857TIP3   OH244985   0.726   5.066   3.338  0.4427  1.0127 -0.0945
 7857TIP3    H144986   0.634   5.088   3.322  0.5925  0.1646 -2.2336
 7857TIP3    H244987   0.773   5.112   3.269  1.4551 -0.0283 -0.1011
 7858TIP3   OH244988   1.271   6.562  15.652  0.2365  0.0156  0.7365
 7858TIP3    H144989   1.331   6.624  15.609 -0.9793  1.0919  0.5762
 7858TIP3    H244990   1.248   6.605  15.734 -3.2560  1.3898 -0.8372
 7859TIP3   OH244991   3.361   4.096  13.183 -0.0310 -0.1339  0.2101
 7859TIP3    H144992   3.415   4.163  13.224  1.0914  0.0586 -1.5376
 7859TIP3    H244993   3.274   4.107  13.223  0.9547  0.1901  2.3237
 7860TIP3   OH244994   5.794   1.087  12.080 -0.5983 -0.0009  0.3048
 7860TIP3    H144995   5.768   1.095  11.988  1.6468  1.2182 -0.2375
 7860TIP3    H244996   5.823   0.996  12.089  0.8622  0.3589 -0.6502
 7861TIP3   OH244997   3.026   1.237   6.156 -0.1051  0.2838 -1.1447
 7861TIP3    H144998   3.019   1.300   6.227 -0.2556  0.0786 -0.9758
 7861TIP3    H244999   3.073   1.163   6.195 -0.2965  0.1206 -1.2216
 7862TIP3   OH245000   6.112   0.001   0.367  0.3291  0.2262  0.0456
 7862TIP3    H145001   6.155  -0.035   0.444 -0.3307  1.1663  0.8631
 7862TIP3    H245002   6.154  -0.043   0.293  0.3149 -1.3712  0.9727
 7863TIP3   OH245003   2.941   5.020  12.997 -0.3448  0.2654  0.4149
 7863TIP3    H145004   2.986   5.049  12.917 -0.1914 -1.5337 -0.1702
 7863TIP3    H245005   2.938   5.098  13.052  0.0947  1.3769 -1.1022
 7864TIP3   OH245006   5.903   5.535   6.492 -0.6629 -0.1400 -0.9530
 7864TIP3    H145007   5.850   5.470   6.538 -0.4724  1.0586  0.9698
 7864TIP3    H245008   5.920   5.495   6.406 -2.2470 -1.7546 -0.5433
 7865TIP3   OH245009   5.507   0.901  13.803 -0.4009  0.6335  0.3160
 7865TIP3    H145010   5.489   0.995  13.797  0.6516  0.8733  0.7560
 7865TIP3    H245011   5.450   0.861  13.737 -1.3765  1.5109  0.6243
 7866TIP3   OH245012   4.792   5.257   0.743  0.1417 -0.8378 -0.7060
 7866TIP3    H145013   4.709   5.210   0.741 -0.7646  0.7191 -0.3828
 7866TIP3    H245014   4.845   5.208   0.806 -1.3235 -0.5437  0.7798
 7867TIP3   OH245015   0.625   3.335  16.865  0.2270 -0.5412 -0.1274
 7867TIP3    H145016   0.561   3.403  16.843 -0.3680 -0.8192  0.7472
 7867TIP3    H245017   0.694   3.382  16.913  1.7799  0.1678 -2.8775
 7868TIP3   OH245018   4.048   1.384   3.882 -0.7588 -0.3164  0.2127
 7868TIP3    H145019   4.048   1.398   3.977  1.6449 -0.5103  0.2620
 7868TIP3    H245020   4.021   1.293   3.871 -0.6357 -0.4147  0.7181
 7869TIP3   OH245021   5.604   2.699  14.246  0.0203 -0.2503 -0.3564
 7869TIP3    H145022   5.620   2.790  14.221 -1.7258 -0.3506 -1.8874
 7869TIP3    H245023   5.566   2.705  14.334  0.5549  0.4451 -0.1686
 7870TIP3   OH245024   5.078   0.504  13.149 -0.3601  0.4476 -0.7280
 7870TIP3    H145025   5.085   0.472  13.239 -0.2237  1.7437 -0.2699
 7870TIP3    H245026   4.994   0.469  13.118 -0.5748  0.2853  0.0249
 7871TIP3   OH245027   4.065   6.592  14.056  0.4527  0.1145  0.1019
 7871TIP3    H145028   4.065   6.686  14.042 -1.0357  0.0212 -0.6202
 7871TIP3    H245029   4.016   6.556  13.982  0.4226 -1.1572  0.7180
 7872TIP3   OH245030   5.615   2.637  12.338  0.4955  0.0069 -0.0693
 7872TIP3    H145031   5.665   2.579  12.395  1.0972 -0.5074 -1.1108
 7872TIP3    H245032   5.675   2.660  12.268 -0.8503 -0.9736 -1.5909
 7873TIP3   OH245033   0.430   3.977  15.901  0.3701 -0.1819  0.0191
 7873TIP3    H145034   0.355   4.005  15.953 -1.0600 -0.4106 -1.8628
 7873TIP3    H245035   0.434   3.882  15.913  0.1048 -0.2206 -0.1839
 7874TIP3   OH245036   0.095   2.683  11.803 -0.0560  0.3551 -0.8704
 7874TIP3    H145037   0.052   2.719  11.881  1.4728  0.4918 -0.0688
 7874TIP3    H245038   0.104   2.590  11.821 -1.4824  0.0462 -1.7387
 7875TIP3   OH245039   2.922   4.064  14.962 -0.3157 -0.1817  0.5417
 7875TIP3    H145040   2.845   4.120  14.960 -0.1006  0.0941 -0.3371
 7875TIP3    H245041   2.993   4.119  14.927  0.5260 -0.0591  2.3757
 7876TIP3   OH245042   1.160   5.618  13.402  0.6923 -0.3597  0.3313
 7876TIP3    H145043   1.147   5.700  13.449  3.1720  0.4209 -0.2930
 7876TIP3    H245044   1.090   5.616  13.336  0.0594  0.7751  0.9585
 7877TIP3   OH245045   3.299   3.815   4.193 -0.1904  0.3344  0.3399
 7877TIP3    H145046   3.227   3.852   4.143  2.3416 -0.1681 -3.8828
 7877TIP3    H245047   3.275   3.724   4.207 -0.7516  0.3746 -0.3573
 7878TIP3   OH245048   2.626   6.235   1.262  0.2109 -0.4115 -0.3718
 7878TIP3    H145049   2.671   6.228   1.346 -1.2414  0.9100  0.5387
 7878TIP3    H245050   2.625   6.329   1.243  1.2150 -0.7560 -2.2637
 7879TIP3   OH245051   4.934   2.254   0.941  0.0795 -1.0090  0.5002
 7879TIP3    H145052   4.847   2.294   0.951  0.0504 -1.5319  2.5375
 7879TIP3    H245053   4.993   2.329   0.929 -0.4546 -0.5637  0.6103
 7880TIP3   OH245054   6.426   5.304   2.478 -0.2752 -0.1256  0.0610
 7880TIP3    H145055   6.414   5.296   2.383  0.5977  0.4262 -0.0976
 7880TIP3    H245056   6.480   5.229   2.501  1.5278  1.0526 -0.2561
 7881TIP3   OH245057   0.049   1.116   6.199  0.5640 -0.6518  0.2877
 7881TIP3    H145058   0.095   1.055   6.256  0.1151 -1.2951 -0.0375
 7881TIP3    H245059   0.112   1.185   6.182  0.3567  0.1296  2.4760
 7882TIP3   OH245060   0.101   4.870   6.036 -0.0420  0.2233  0.0057
 7882TIP3    H145061   0.165   4.876   6.107 -0.4386  1.7708  0.2670
 7882TIP3    H245062   0.153   4.846   5.959  0.8923  1.5085  0.2038
 7883TIP3   OH245063   4.663   2.656  12.771 -0.1709  0.5826  0.0327
 7883TIP3    H145064   4.679   2.726  12.834 -0.2936 -1.6997  2.7344
 7883TIP3    H245065   4.593   2.605  12.810  0.2212 -1.2881 -1.6369
 7884TIP3   OH245066   0.603   5.004  12.469 -0.0324  0.5282  0.3695
 7884TIP3    H145067   0.609   4.975  12.378 -0.0619 -0.5744  0.7099
 7884TIP3    H245068   0.674   5.067  12.479  0.2400  0.3333 -0.2978
 7885TIP3   OH245069   5.294   0.190  14.899  0.3438  0.3527  0.0571
 7885TIP3    H145070   5.370   0.211  14.953 -0.9092 -0.7406  2.3139
 7885TIP3    H245071   5.291   0.260  14.834  2.9155  0.7433  0.3092
 7886TIP3   OH245072   6.730   1.737  14.591  0.8882 -0.1557  0.0547
 7886TIP3    H145073   6.766   1.730  14.502 -0.3411  1.6688 -0.6187
 7886TIP3    H245074   6.642   1.700  14.585  0.5034  0.7053  0.3122
 7887TIP3   OH245075   3.343   2.523   3.354 -0.0377  0.4328  0.4111
 7887TIP3    H145076   3.259   2.521   3.400 -1.9949 -2.3108 -3.0546
 7887TIP3    H245077   3.373   2.432   3.354  0.0885  0.3814 -3.2246
 7888TIP3   OH245078   5.525   1.705  14.349 -0.1130  0.0171 -0.3834
 7888TIP3    H145079   5.442   1.745  14.323 -0.3274 -0.6179 -0.6691
 7888TIP3    H245080   5.555   1.658  14.271 -0.4496 -1.3638  0.3125
 7889TIP3   OH245081   0.633   3.270  11.723 -0.1272  0.3170  0.0536
 7889TIP3    H145082   0.713   3.219  11.734 -0.7660 -0.4865  1.0431
 7889TIP3    H245083   0.565   3.205  11.707 -0.5767  1.0010 -0.8451
 7890TIP3   OH245084   4.282   6.660   4.182  0.0405  0.0468  0.4937
 7890TIP3    H145085   4.230   6.583   4.159  0.9191 -0.1006 -1.1015
 7890TIP3    H245086   4.222   6.734   4.174 -0.1683 -0.2182 -0.4265
 7891TIP3   OH245087   0.191   3.421   6.149 -0.1156 -0.3521 -0.7814
 7891TIP3    H145088   0.211   3.441   6.241 -0.8805  3.6116 -1.3944
 7891TIP3    H245089   0.271   3.442   6.102 -0.2956 -0.7095 -1.2557
 7892TIP3   OH245090   6.474   1.236  12.116 -0.2545 -0.1837 -0.0088
 7892TIP3    H145091   6.525   1.177  12.171  1.2619  0.0528 -1.1050
 7892TIP3    H245092   6.478   1.197  12.029  0.7933  1.5012 -0.7555
 7893TIP3   OH245093   0.696   2.772   5.082  0.0439  0.0002  0.0330
 7893TIP3    H145094   0.732   2.860   5.096 -1.5885  0.6862  0.0075
 7893TIP3    H245095   0.603   2.787   5.064  0.5278 -1.3635 -4.2515
 7894TIP3   OH245096   2.339   3.733   1.458 -0.3669 -0.5500 -0.3242
 7894TIP3    H145097   2.259   3.753   1.506  0.4614  2.3966 -0.0441
 7894TIP3    H245098   2.324   3.769   1.370  1.3931  2.0076  0.3539
 7895TIP3   OH245099   5.567   6.104   2.993  0.1174  0.0084 -0.2299
 7895TIP3    H145100   5.513   6.033   2.958 -0.9746  0.4640  0.5163
 7895TIP3    H245101   5.520   6.136   3.069  1.9910 -0.2995  1.0961
 7896TIP3   OH245102   2.013   0.979  11.283  0.3446  0.0907 -0.2414
 7896TIP3    H145103   2.071   0.903  11.293  0.7607  0.3478 -0.6962
 7896TIP3    H245104   2.064   1.053  11.313 -0.7513 -0.0595  2.1139
 7897TIP3   OH245105   1.228   2.314  11.688  0.7959 -0.6904  0.0781
 7897TIP3    H145106   1.148   2.266  11.668 -0.0857  0.3652  1.0208
 7897TIP3    H245107   1.280   2.253  11.741  0.2495 -1.0633  0.1867
 7898TIP3   OH245108   2.064   0.987   6.639 -0.4079 -0.1681  0.1936
 7898TIP3    H145109   2.047   0.892   6.635 -0.2430 -0.3478  2.8172
 7898TIP3    H245110   1.982   1.024   6.672 -0.8671  0.7659 -1.9331
 7899TIP3   OH245111   0.187   6.491  10.906 -0.1817  0.5504 -0.2706
 7899TIP3    H145112   0.266   6.543  10.919  0.9353 -0.9640 -0.8267
 7899TIP3    H245113   0.141   6.496  10.989  1.0286  0.5673  0.4083
 7900TIP3   OH245114   5.857   0.806  14.671  0.3184 -0.1043 -0.5345
 7900TIP3    H145115   5.797   0.867  14.627  0.0357  0.3961  0.5235
 7900TIP3    H245116   5.834   0.720  14.635 -1.4663  0.0004  0.3163
 7901TIP3   OH245117   0.960   2.292   5.437 -0.6737  0.0274  0.3736
 7901TIP3    H145118   1.051   2.263   5.442 -0.2730  1.3125  0.8458
 7901TIP3    H245119   0.930   2.288   5.528 -0.7283  0.6985  0.3862
 7902TIP3   OH245120   6.338   3.630   4.056  0.2226  0.9505  0.4978
 7902TIP3    H145121   6.243   3.622   4.045  0.3306  1.3350 -0.8631
 7902TIP3    H245122   6.374   3.595   3.974  1.3545 -1.2294  1.8722
 7903TIP3   OH245123   3.785   5.752   3.019 -0.0459  0.0424  0.0137
 7903TIP3    H145124   3.870   5.718   3.045 -0.4275 -2.1661 -1.4941
 7903TIP3    H245125   3.724   5.714   3.083 -0.2483 -0.5849 -0.5572
 7904TIP3   OH245126   4.101   2.167  14.091  0.7965 -0.0998  0.5424
 7904TIP3    H145127   4.028   2.147  14.032  1.7181  0.9134 -0.9876
 7904TIP3    H245128   4.176   2.121  14.053  1.6627  1.5302  0.2331
 7905TIP3   OH245129   0.915   4.638   5.935  0.3090 -0.0783  0.7273
 7905TIP3    H145130   0.830   4.665   5.970  1.2217  3.1521  0.6251
 7905TIP3    H245131   0.978   4.685   5.990  1.8823  1.1816 -2.0848
 7906TIP3   OH245132   1.345   3.911   1.509  0.1366 -0.1815 -0.9751
 7906TIP3    H145133   1.314   3.935   1.421 -0.1321 -0.5567 -0.9835
 7906TIP3    H245134   1.424   3.858   1.493 -0.1719 -0.6317 -1.0028
 7907TIP3   OH245135   2.842   5.667  11.559 -0.0622 -0.5500  0.1913
 7907TIP3    H145136   2.766   5.720  11.583  1.8194  2.6937 -0.7229
 7907TIP3    H245137   2.841   5.666  11.463  0.1904 -1.8339  0.1924
 7908TIP3   OH245138   0.454   1.915   6.211  0.0950 -0.4698  0.0939
 7908TIP3    H145139   0.364   1.924   6.243  0.8829 -0.6318  2.4072
 7908TIP3    H245140   0.498   1.863   6.278  2.2383  0.5993 -0.4656
 7909TIP3   OH245141   0.802   3.972   2.966  0.1998 -0.4023 -0.1734
 7909TIP3    H145142   0.778   3.951   3.056 -0.8577 -0.1855 -0.3952
 7909TIP3    H245143   0.878   3.917   2.947 -1.6258 -2.9776 -0.2842
 7910TIP3   OH245144   4.885   6.773  14.239 -0.2559 -0.6863 -0.2925
 7910TIP3    H145145   4.835   6.704  14.195  0.9062 -1.1542 -0.9102
 7910TIP3    H245146   4.889   6.844  14.175 -0.7576 -0.3618  0.0344
 7911TIP3   OH245147   0.885   2.317   4.375 -0.0462 -0.0876  0.4521
 7911TIP3    H145148   0.828   2.240   4.378 -0.4994  0.1757 -0.9831
 7911TIP3    H245149   0.954   2.293   4.314  0.5109  0.1804  0.9745
 7912TIP3   OH245150   0.851   2.203  15.173  0.6730  0.3488 -0.0635
 7912TIP3    H145151   0.938   2.242  15.179  0.3123  1.2517 -0.4657
 7912TIP3    H245152   0.817   2.204  15.262  1.0984 -0.0589  0.1028
 7913TIP3   OH245153   0.622   1.056  15.632 -0.6500  0.3619  0.4716
 7913TIP3    H145154   0.603   0.971  15.593  3.3534  0.2149 -1.5210
 7913TIP3    H245155   0.609   1.044  15.726 -0.8721 -2.2285  0.1346
 7914TIP3   OH245156   0.645   2.374   4.890  0.6092  0.3485 -0.0232
 7914TIP3    H145157   0.706   2.399   4.960 -0.3092  0.4242  0.7589
 7914TIP3    H245158   0.559   2.397   4.924  0.3052  2.4729 -2.0788
 7915TIP3   OH245159   5.525   4.409   2.027 -0.4187  0.5179  0.7761
 7915TIP3    H145160   5.493   4.496   2.051  0.0647  0.2971  2.2374
 7915TIP3    H245161   5.614   4.406   2.060 -0.1341 -0.2284 -0.0456
 7916TIP3   OH245162   3.375   5.267   0.195 -0.4112  0.5556  0.8885
 7916TIP3    H145163   3.336   5.325   0.129 -0.7231  1.2832  1.6998
 7916TIP3    H245164   3.425   5.203   0.144  0.5877  2.0055  0.0118
 7917TIP3   OH245165   2.192   4.584  11.370  0.0491 -0.0186 -0.7623
 7917TIP3    H145166   2.183   4.525  11.444  0.0335 -0.1785 -0.8932
 7917TIP3    H245167   2.134   4.658  11.391 -0.6460 -0.4858 -1.0441
 7918TIP3   OH245168   4.201   1.701   4.970 -0.7101 -0.0871 -0.4854
 7918TIP3    H145169   4.269   1.760   4.937 -0.7740 -0.4009 -1.1865
 7918TIP3    H245170   4.216   1.697   5.064 -1.1123  1.5656 -0.3341
 7919TIP3   OH245171   3.005   1.532   4.429 -0.1048  0.1513 -0.1835
 7919TIP3    H145172   2.975   1.445   4.403 -1.8116  0.3942  0.9101
 7919TIP3    H245173   2.992   1.586   4.352 -1.3205 -0.0377 -0.1229
 7920TIP3   OH245174   1.049   6.525   4.331 -0.3154  0.0202  0.3940
 7920TIP3    H145175   1.000   6.602   4.302 -0.0906  0.0638  0.1220
 7920TIP3    H245176   1.004   6.451   4.290 -0.5036  0.0105  0.6178
 7921TIP3   OH245177   3.776   1.261  15.425 -0.1400 -0.0358  0.4047
 7921TIP3    H145178   3.762   1.180  15.375  0.2125  0.1956 -0.0810
 7921TIP3    H245179   3.689   1.290  15.449 -0.1685 -1.6749  2.3791
 7922TIP3   OH245180   1.292   5.744   0.112 -0.2807  0.3158  0.8554
 7922TIP3    H145181   1.249   5.809   0.167 -0.8077 -0.1032  0.9462
 7922TIP3    H245182   1.283   5.778   0.023 -2.0158 -0.4260  0.7249
 7923TIP3   OH245183   2.199   0.344   2.997  0.2423 -0.0104 -0.3950
 7923TIP3    H145184   2.197   0.431   2.958  1.6183 -0.7264 -2.1496
 7923TIP3    H245185   2.111   0.333   3.035 -0.6814  1.2885 -2.0667
 7924TIP3   OH245186   0.433   4.239  11.345  0.2025  0.4332 -0.2364
 7924TIP3    H145187   0.356   4.232  11.290 -1.4486 -0.2195  2.0604
 7924TIP3    H245188   0.485   4.161  11.325 -1.2785 -0.7515  0.4074
 7925TIP3   OH245189   5.845   0.661  15.236  0.4349  0.0386  0.0136
 7925TIP3    H145190   5.863   0.712  15.157 -1.3320  0.4902 -0.1256
 7925TIP3    H245191   5.871   0.572  15.214  3.3017  0.7951  0.1606
 7926TIP3   OH245192   4.885   1.348  16.887 -0.5306 -0.3747  0.0370
 7926TIP3    H145193   4.941   1.278  16.855 -0.6077  0.1793 -1.3328
 7926TIP3    H245194   4.796   1.319  16.866 -0.5891 -0.0696 -0.1374
 7927TIP3   OH245195   0.723   5.624  16.988 -0.4342 -0.2923  0.2785
 7927TIP3    H145196   0.675   5.702  17.016 -0.1187 -0.2232  0.6310
 7927TIP3    H245197   0.704   5.559  17.056 -1.5421 -0.8578 -0.5508
 7928TIP3   OH245198   0.041   5.997  15.948 -0.4157 -0.1506 -0.3707
 7928TIP3    H145199   0.113   5.979  16.008 -1.6029  0.4732  1.2949
 7928TIP3    H245200   0.004   5.911  15.928  1.3726 -0.5497 -1.9850
 7929TIP3   OH245201   1.947   3.652   2.964 -0.1104 -0.7673  0.5661
 7929TIP3    H145202   1.992   3.589   2.907 -0.5962  0.5299 -1.3152
 7929TIP3    H245203   1.993   3.735   2.949  0.0129 -0.4839  2.3990
 7930TIP3   OH245204   4.017   3.178  10.612  0.4399 -0.6905  0.0968
 7930TIP3    H145205   3.976   3.142  10.534  2.2889 -0.6885 -0.9060
 7930TIP3    H245206   4.096   3.221  10.580  1.2930 -0.8049  1.9706
 7931TIP3   OH245207   5.950   1.081   1.303  0.5369  0.1344 -0.2563
 7931TIP3    H145208   5.933   1.144   1.373 -0.0474 -1.5563  1.1850
 7931TIP3    H245209   6.043   1.060   1.311  0.8649  1.2263 -1.1114
 7932TIP3   OH245210   5.308   2.290  13.646  0.3340 -0.4858 -0.7904
 7932TIP3    H145211   5.391   2.300  13.692  0.9692 -2.6747 -1.4011
 7932TIP3    H245212   5.319   2.340  13.565  1.7923 -2.2602 -1.7436
 7933TIP3   OH245213   5.022   3.310   4.314 -0.2664 -0.4519 -0.0405
 7933TIP3    H145214   5.046   3.245   4.380 -0.0964 -2.0751 -1.6519
 7933TIP3    H245215   4.938   3.280   4.279 -1.0405  1.1512  0.3895
 7934TIP3   OH245216   5.245   4.705   3.865 -0.0138 -0.0637 -0.3446
 7934TIP3    H145217   5.216   4.614   3.867 -0.0035 -0.0588  0.5100
 7934TIP3    H245218   5.318   4.706   3.804 -0.4364 -0.4954 -0.8666
 7935TIP3   OH245219   4.096   5.424   0.680  0.2853  0.3188 -0.0752
 7935TIP3    H145220   4.128   5.466   0.761  0.4005 -0.7071  0.4204
 7935TIP3    H245221   4.001   5.432   0.685  0.2676 -0.1612  0.3969
 7936TIP3   OH245222   4.843   5.838  16.575  0.4249  0.1107  0.1689
 7936TIP3    H145223   4.761   5.789  16.587  0.7348 -0.3584  0.4087
 7936TIP3    H245224   4.819   5.929  16.586  0.1542 -0.1088  1.4387
 7937TIP3   OH245225   0.527   3.900  16.853 -0.1813  0.5072 -0.1305
 7937TIP3    H145226   0.583   3.916  16.929 -0.9463  1.1135  0.3235
 7937TIP3    H245227   0.540   3.977  16.797  0.0448  0.2709 -0.4032
 7938TIP3   OH245228   0.948   0.901   2.699 -0.1795  0.3333  0.0400
 7938TIP3    H145229   0.927   0.829   2.639  0.6338  0.4653 -0.4147
 7938TIP3    H245230   0.999   0.860   2.769  0.4708  0.4933 -0.3310
 7939TIP3   OH245231   2.591   1.862   6.573  0.0795 -0.0430 -0.0554
 7939TIP3    H145232   2.636   1.880   6.656  0.1130  0.3766 -0.1623
 7939TIP3    H245233   2.502   1.837   6.600 -0.2462  1.1884  0.0693
 7940TIP3   OH245234   3.830   3.031  12.250  0.3516  0.2990 -0.1356
 7940TIP3    H145235   3.812   3.124  12.239  1.3277  0.6701  1.3355
 7940TIP3    H245236   3.921   3.021  12.223  0.4138 -0.1335  0.2384
 7941TIP3   OH245237   4.686   1.378  13.344 -0.3568 -0.6127 -0.2845
 7941TIP3    H145238   4.700   1.315  13.274 -1.3745 -0.0767 -0.9891
 7941TIP3    H245239   4.659   1.326  13.419 -2.0464 -0.9536 -1.1074
 7942TIP3   OH245240   4.734   5.187   0.427  0.1210 -0.1379 -0.1289
 7942TIP3    H145241   4.648   5.182   0.468 -0.7644  0.6487 -1.8403
 7942TIP3    H245242   4.749   5.281   0.415  0.6204 -0.3291 -1.0401
 7943TIP3   OH245243   6.165   3.548  16.128  0.2451 -0.8383  0.0634
 7943TIP3    H145244   6.128   3.636  16.131  3.0056  0.3953 -0.1164
 7943TIP3    H245245   6.194   3.537  16.038 -0.8247 -2.2854 -0.1264
 7944TIP3   OH245246   0.136   6.491   3.048 -0.6173 -0.6890 -0.0156
 7944TIP3    H145247   0.170   6.577   3.023  0.1963 -1.9239 -3.3765
 7944TIP3    H245248   0.163   6.480   3.139 -2.3243  3.3424  1.0776
 7945TIP3   OH245249   0.974   2.116   3.979 -0.4026  0.0535 -0.0869
 7945TIP3    H145250   0.987   2.021   3.983  0.2826  0.2095  1.5011
 7945TIP3    H245251   0.894   2.132   4.029  0.0149  0.4123  0.4704
 7946TIP3   OH245252   0.969   6.083   0.351 -0.2576 -0.7659 -0.1611
 7946TIP3    H145253   0.889   6.055   0.395  1.4399 -0.2026  3.3886
 7946TIP3    H245254   0.944   6.164   0.306 -2.1067 -1.5792 -0.6823
 7947TIP3   OH245255   4.742   4.569  17.002  0.1917 -0.0467 -0.0377
 7947TIP3    H145256   4.835   4.571  16.981  0.4419 -1.2823  0.9068
 7947TIP3    H245257   4.701   4.622  16.934  1.4607 -0.4144 -1.1092
 7948TIP3   OH245258   5.026   0.054   4.717 -0.3919  0.1785 -0.2250
 7948TIP3    H145259   4.966   0.094   4.780 -1.2434 -0.5670 -0.5718
 7948TIP3    H245260   5.104   0.033   4.769  0.0632  2.2109 -0.0080
 7949TIP3   OH245261   1.586   1.405  14.257  0.1834 -0.1318  0.0992
 7949TIP3    H145262   1.583   1.318  14.297  0.0199 -0.6107 -0.9214
 7949TIP3    H245263   1.524   1.457  14.308 -1.1304 -1.1374 -0.4457
 7950TIP3   OH245264   4.893   2.579   2.617 -0.4153  0.3703 -0.1187
 7950TIP3    H145265   4.854   2.604   2.700 -0.9176  0.5609 -0.4064
 7950TIP3    H245266   4.966   2.640   2.605  0.6318 -0.6627  0.9223
 7951TIP3   OH245267   0.633   6.154   0.435 -0.1128  0.5098 -0.5827
 7951TIP3    H145268   0.570   6.084   0.415 -0.8615  1.3031 -1.0386
 7951TIP3    H245269   0.690   6.116   0.502 -0.3564 -0.6276 -0.9977
 7952TIP3   OH245270   3.515   2.281   3.311  0.1405  0.0397  0.3428
 7952TIP3    H145271   3.522   2.198   3.265 -0.0502 -1.5106  3.0146
 7952TIP3    H245272   3.566   2.269   3.391  0.6974  2.7459  0.4471
 7953TIP3   OH245273   4.330   4.380   1.467 -0.0670 -0.3116 -0.1748
 7953TIP3    H145274   4.349   4.294   1.430 -0.5368  0.1143 -1.4156
 7953TIP3    H245275   4.384   4.440   1.416 -1.5128  0.4043 -0.8888
 7954TIP3   OH245276   1.741   3.916   4.597 -0.0143 -0.1521  0.1319
 7954TIP3    H145277   1.790   3.859   4.538  1.3580  0.4594  0.6561
 7954TIP3    H245278   1.659   3.869   4.613  1.0684 -1.9464  0.5312
 7955TIP3   OH245279   4.986   5.628   2.190 -0.0920  0.1465  0.1867
 7955TIP3    H145280   5.048   5.694   2.221  0.9287  0.0284 -1.5681
 7955TIP3    H245281   5.041   5.558   2.154 -1.1713 -1.4511  1.5416
 7956TIP3   OH245282   1.152   5.364  16.664 -0.0072 -0.4964 -0.1207
 7956TIP3    H145283   1.109   5.450  16.662  2.1553  0.5975 -0.6165
 7956TIP3    H245284   1.152   5.335  16.573  2.9299  0.8703 -0.5975
 7957TIP3   OH245285   3.753   4.427   3.951  0.6752 -0.1922 -0.9946
 7957TIP3    H145286   3.729   4.343   3.989  0.6926 -0.6312 -1.9383
 7957TIP3    H245287   3.682   4.486   3.976  1.2586 -0.1830  0.6854
 7958TIP3   OH245288   3.335   4.397   6.150  0.6013 -0.8058 -0.3060
 7958TIP3    H145289   3.268   4.382   6.217  1.5825 -0.3152  0.7872
 7958TIP3    H245290   3.288   4.443   6.080 -0.2673 -0.6921  0.3427
 7959TIP3   OH245291   2.749   4.965   0.364 -0.2109 -0.1358  0.3732
 7959TIP3    H145292   2.688   4.989   0.433  0.6243 -2.3708  1.9532
 7959TIP3    H245293   2.823   4.925   0.410  0.6657 -1.0428 -1.7622
 7960TIP3   OH245294   4.072   2.071   2.965 -0.3223 -0.0214 -0.5264
 7960TIP3    H145295   4.102   1.981   2.977  0.8064  0.3035 -0.8937
 7960TIP3    H245296   4.139   2.112   2.911 -0.0796  1.4505  0.8448
 7961TIP3   OH245297   4.912   0.308   2.093 -0.4567  0.7260 -0.2835
 7961TIP3    H145298   4.968   0.241   2.132 -1.7583  0.8007  1.7882
 7961TIP3    H245299   4.970   0.381   2.075  0.4053  0.2025  0.3464
 7962TIP3   OH245300   2.967   5.681  13.221 -0.6789 -0.4002  0.0708
 7962TIP3    H145301   3.004   5.755  13.269 -2.2403 -0.0186  0.7389
 7962TIP3    H245302   2.989   5.698  13.129  2.4100 -1.1861  0.6290
 7963TIP3   OH245303   3.409   3.887  12.612  0.5448 -0.3178 -0.1903
 7963TIP3    H145304   3.348   3.816  12.590  0.0564 -0.5159  1.6876
 7963TIP3    H245305   3.356   3.967  12.605  0.2398 -0.4289  0.7530
 7964TIP3   OH245306   6.346   5.832   1.234  0.8186 -0.2056  0.4271
 7964TIP3    H145307   6.373   5.752   1.190 -2.3050  0.3293 -2.5953
 7964TIP3    H245308   6.251   5.827   1.240  0.9093  0.8310  5.1435
 7965TIP3   OH245309   5.270   0.698   1.301  0.2981  0.3375 -0.3703
 7965TIP3    H145310   5.242   0.746   1.379  0.7002 -0.4349  0.2502
 7965TIP3    H245311   5.194   0.645   1.278  0.7349 -0.6462  0.4451
 7966TIP3   OH245312   2.537   6.506   3.717 -0.3541  0.4552  0.0642
 7966TIP3    H145313   2.577   6.444   3.777  0.0517  1.3974  0.7696
 7966TIP3    H245314   2.561   6.474   3.630  1.6682  0.8007  0.4604
 7967TIP3   OH245315   4.673   6.562  14.570 -0.3065  0.0571  0.5384
 7967TIP3    H145316   4.683   6.475  14.531  3.9770 -0.8373  3.3895
 7967TIP3    H245317   4.727   6.620  14.515 -0.5421  0.3383  0.5964
 7968TIP3   OH245318   0.631   2.457  15.373  0.1384 -0.0184  0.5259
 7968TIP3    H145319   0.695   2.503  15.318 -0.7551  0.8116  0.1677
 7968TIP3    H245320   0.549   2.502  15.356 -0.8461 -2.0023 -0.1279
 7969TIP3   OH245321   6.185   0.201   0.048 -0.1169 -0.3386 -0.5567
 7969TIP3    H145322   6.168   0.119   0.093  2.1670 -0.7829 -0.4146
 7969TIP3    H245323   6.213   0.175  -0.040 -2.0532  0.4139 -1.4128
 7970TIP3   OH245324   5.195   5.369   3.921 -0.7288  0.1864  0.2725
 7970TIP3    H145325   5.171   5.286   3.964  0.2163 -0.0248  0.3988
 7970TIP3    H245326   5.149   5.436   3.972 -0.0255 -0.1092  1.3040
 7971TIP3   OH245327   6.700   6.180  15.661  0.0234 -0.5786 -0.4628
 7971TIP3    H145328   6.747   6.210  15.583 -0.0017 -0.4642 -0.4351
 7971TIP3    H245329   6.758   6.203  15.734  0.8153 -2.1902 -0.5545
 7972TIP3   OH245330   0.542   0.814  11.811 -0.4263 -0.5176  0.5843
 7972TIP3    H145331   0.559   0.764  11.731 -0.1106  0.2192  0.1824
 7972TIP3    H245332   0.624   0.810  11.860 -0.8108 -1.4781  1.1611
 7973TIP3   OH245333   3.618   5.263  15.738  0.4687  0.1572 -0.5546
 7973TIP3    H145334   3.596   5.181  15.782 -0.2845  0.0767 -1.0651
 7973TIP3    H245335   3.545   5.278  15.679  1.4111  0.3366 -1.6806
 7974TIP3   OH245336   6.112   6.303   4.812 -0.4248  0.5240  0.2116
 7974TIP3    H145337   6.067   6.308   4.728  0.3970 -0.0968 -0.2683
 7974TIP3    H245338   6.201   6.333   4.793 -0.0378 -0.3098  0.7061
 7975TIP3   OH245339   6.330   0.887  12.293  0.2899  0.2764 -0.0178
 7975TIP3    H145340   6.280   0.806  12.283 -0.5925  0.6274  1.2977
 7975TIP3    H245341   6.329   0.927  12.207 -0.3404 -0.5059 -0.3787
 7976TIP3   OH245342   1.386   1.433  15.935  0.2639  0.7388  0.2824
 7976TIP3    H145343   1.413   1.413  16.024  0.1883  1.0855  0.3802
 7976TIP3    H245344   1.441   1.506  15.908  1.1773 -0.1833 -0.4033
 7977TIP3   OH245345   4.057   2.889  14.067  0.0131 -0.0256 -0.1342
 7977TIP3    H145346   4.009   2.923  13.992  1.0801  2.4034  0.2627
 7977TIP3    H245347   4.148   2.916  14.053  0.0978  1.1760  2.4216
 7978TIP3   OH245348   1.530   5.581  14.132 -0.4971  0.3710 -0.2468
 7978TIP3    H145349   1.475   5.611  14.205 -0.6993  1.1715 -0.7269
 7978TIP3    H245350   1.564   5.496  14.161  0.5127  1.2911  1.3467
 7979TIP3   OH245351   5.739   4.375   4.649 -0.5716  0.1182  0.2554
 7979TIP3    H145352   5.744   4.449   4.709 -1.3992  0.1458  0.3047
 7979TIP3    H245353   5.748   4.413   4.562 -2.2797  0.4628  0.1998
 7980TIP3   OH245354   1.864   0.776  16.734  0.5658 -0.2660 -0.1178
 7980TIP3    H145355   1.922   0.700  16.729  1.1776  0.1560  0.3529
 7980TIP3    H245356   1.899   0.836  16.668  2.6225  1.2754  2.2721
 7981TIP3   OH245357   5.287   6.664  13.669 -0.9819  0.0805  0.5082
 7981TIP3    H145358   5.211   6.699  13.621 -0.5309  1.3672  0.7128
 7981TIP3    H245359   5.250   6.598  13.727 -1.9387  0.5891  0.4950
 7982TIP3   OH245360   6.756   5.533   5.100  0.3163 -0.1836 -0.7319
 7982TIP3    H145361   6.746   5.443   5.133  2.5468 -0.6975 -1.3517
 7982TIP3    H245362   6.669   5.571   5.106 -0.2190 -1.6912  1.6202
 7983TIP3   OH245363   5.320   3.270   3.807 -0.2409  0.0307 -0.5550
 7983TIP3    H145364   5.302   3.215   3.883 -1.5656  1.8900  0.5252
 7983TIP3    H245365   5.302   3.359   3.838 -2.3784  0.6735 -3.5088
 7984TIP3   OH245366   3.762   4.724  17.064  0.0768  0.2667  0.5916
 7984TIP3    H145367   3.784   4.647  17.012  0.7103 -0.7002  2.2487
 7984TIP3    H245368   3.845   4.770  17.075 -0.4002  1.5144 -0.8802
 7985TIP3   OH245369   3.536   5.426  14.442 -0.3765 -0.1638 -0.1472
 7985TIP3    H145370   3.458   5.431  14.497 -0.4916 -1.0338 -0.2202
 7985TIP3    H245371   3.607   5.456  14.499 -0.7700  0.6912 -0.1001
 7986TIP3   OH245372   5.862   0.594  14.463  0.2918 -0.4142 -0.4798
 7986TIP3    H145373   5.780   0.562  14.427 -0.6642  2.0536 -0.5746
 7986TIP3    H245374   5.891   0.662  14.402 -0.2415  2.2927  2.1299
 7987TIP3   OH245375   4.905   4.126   4.467 -0.3400 -0.4198  0.0634
 7987TIP3    H145376   4.878   4.199   4.412  4.2210  1.1153 -0.4167
 7987TIP3    H245377   4.896   4.049   4.411 -1.3774  0.3183 -0.8080
 7988TIP3   OH245378   5.767   2.434   6.005 -0.1936  0.3008 -0.3597
 7988TIP3    H145379   5.681   2.473   6.016 -0.5598 -0.0948 -1.7834
 7988TIP3    H245380   5.815   2.458   6.085 -0.8791  2.4046 -0.5668
 7989TIP3   OH245381   1.272   4.316  15.590  0.4452 -0.3110  0.0491
 7989TIP3    H145382   1.270   4.387  15.526  0.8505  0.1988  0.5979
 7989TIP3    H245383   1.181   4.289  15.599  0.2310  0.4473  0.1757
 7990TIP3   OH245384   1.332   1.750  13.591  1.0139 -0.5072 -0.0106
 7990TIP3    H145385   1.371   1.837  13.581  1.1121 -0.5935 -0.4019
 7990TIP3    H245386   1.244   1.758  13.555  0.8682 -0.4578  0.3544
 7991TIP3   OH245387   5.096   5.128  11.108 -0.1508  0.3264  0.3390
 7991TIP3    H145388   5.134   5.213  11.088  0.4752 -0.1532 -0.4854
 7991TIP3    H245389   5.171   5.070  11.121 -0.5471  0.2093  2.3096
 7992TIP3   OH245390   4.787   6.638  11.994  0.1189  0.4656 -0.2669
 7992TIP3    H145391   4.868   6.596  12.021 -0.6104 -0.9512 -0.2033
 7992TIP3    H245392   4.814   6.710  11.938  1.4564  0.6994  0.6583
 7993TIP3   OH245393   4.646   4.831   1.371  0.4406  0.0739 -0.3880
 7993TIP3    H145394   4.729   4.800   1.406  0.0117  0.9572  1.5001
 7993TIP3    H245395   4.670   4.898   1.307  1.1829  0.0650 -0.1138
 7994TIP3   OH245396   0.877   3.417   5.713 -0.5024 -0.0108  0.5210
 7994TIP3    H145397   0.894   3.357   5.640  0.2165 -0.7341  1.2633
 7994TIP3    H245398   0.879   3.360   5.790 -0.9305  0.8012  1.1233
 7995TIP3   OH245399   5.533   4.622   3.415 -0.6196  0.3221 -0.0994
 7995TIP3    H145400   5.594   4.633   3.342 -1.5141  1.1213 -0.7310
 7995TIP3    H245401   5.526   4.710   3.453 -0.7245  0.0564  0.5109
 7996TIP3   OH245402   2.748   4.469   4.525  0.3825 -0.2302 -0.4886
 7996TIP3    H145403   2.800   4.529   4.472  1.3647  0.6717  1.4920
 7996TIP3    H245404   2.811   4.409   4.563 -0.4184 -1.4343 -1.0239
 7997TIP3   OH245405   6.056   4.089   2.668  0.0534  0.0842 -0.6562
 7997TIP3    H145406   6.034   3.998   2.649  0.5575 -0.2710  0.4262
 7997TIP3    H245407   5.984   4.120   2.724  0.1717  0.1809 -0.5576
 7998TIP3   OH245408   3.561   1.533  14.505  0.6307  0.4583 -0.1599
 7998TIP3    H145409   3.484   1.477  14.496 -0.1543  1.4439  0.4261
 7998TIP3    H245410   3.625   1.494  14.444  0.3103 -1.4085  0.6514
 7999TIP3   OH245411   4.776   5.622   2.730 -0.0749 -0.2948 -0.4672
 7999TIP3    H145412   4.694   5.577   2.708 -1.2051  1.4025  0.1975
 7999TIP3    H245413   4.748   5.702   2.775  1.8905  1.2016 -1.8299
 8000TIP3   OH245414   5.905   2.007   5.246 -0.1577  0.4479 -0.0899
 8000TIP3    H145415   5.951   2.083   5.211 -0.4573 -0.6730 -3.0007
 8000TIP3    H245416   5.939   1.932   5.197  0.5434 -1.4542  3.0773
 8001TIP3   OH245417   4.743   4.531  16.103  0.2803  0.1791 -0.0881
 8001TIP3    H145418   4.729   4.591  16.030 -0.6634 -0.2202 -0.2460
 8001TIP3    H245419   4.783   4.454  16.063  1.0452  0.5121  0.0348
 8002TIP3   OH245420   1.908   1.767   1.499  0.0340 -0.3676  0.2698
 8002TIP3    H145421   1.852   1.844   1.509 -0.4861  0.1222 -4.7563
 8002TIP3    H245422   1.848   1.693   1.505 -0.5396 -0.0283 -1.0398
 8003TIP3   OH245423   2.970   5.585   1.878  0.1546 -0.3073  0.1545
 8003TIP3    H145424   2.893   5.533   1.855 -0.7563  1.4225 -0.8833
 8003TIP3    H245425   2.981   5.645   1.804  1.5666  0.4996  0.9957
 8004TIP3   OH245426   1.635   1.014  13.519 -0.2879 -0.1966 -0.8976
 8004TIP3    H145427   1.708   1.061  13.478 -1.0520  2.0320  0.2465
 8004TIP3    H245428   1.562   1.024  13.458 -0.8865  1.4739  0.0672
 8005TIP3   OH245429   5.458   6.657   0.111 -0.6127  0.0939  0.1374
 8005TIP3    H145430   5.493   6.607   0.184 -2.1513 -2.3991 -0.7557
 8005TIP3    H245431   5.519   6.641   0.039 -0.5273  0.3798  0.1458
 8006TIP3   OH245432   0.952   3.358  15.878  0.1726 -0.3319 -0.0764
 8006TIP3    H145433   0.925   3.329  15.965 -0.6492 -3.4617 -1.2901
 8006TIP3    H245434   1.026   3.301  15.856  1.5039  1.6109 -0.7395
 8007TIP3   OH245435   4.510   6.453  16.524  0.1430  0.2145  0.3656
 8007TIP3    H145436   4.562   6.489  16.452  0.2204  0.5890  0.6079
 8007TIP3    H245437   4.572   6.440  16.595  0.0383 -0.0139  0.4190
 8008TIP3   OH245438   3.591   2.455   4.499 -0.2313  0.5000  0.2503
 8008TIP3    H145439   3.586   2.361   4.519 -0.7522  0.5188  0.2214
 8008TIP3    H245440   3.571   2.498   4.583 -0.5015  0.5832  0.1443
 8009TIP3   OH245441   1.128   2.545  16.325 -0.3915 -0.4799  0.2068
 8009TIP3    H145442   1.036   2.528  16.305 -1.1673  1.2445  2.1166
 8009TIP3    H245443   1.138   2.516  16.416  0.7596  0.0275  0.2441
 8010TIP3   OH245444   2.428   2.665   0.010  0.0322  0.6394 -0.5093
 8010TIP3    H145445   2.503   2.664  -0.050 -0.0916  0.2338 -0.6617
 8010TIP3    H245446   2.368   2.729  -0.027  0.3387  1.0181 -0.3477
 8011TIP3   OH245447   2.944   2.195  14.782  0.4920 -0.0935 -0.6432
 8011TIP3    H145448   2.990   2.112  14.765  0.3355  0.2113 -2.6023
 8011TIP3    H245449   2.861   2.186  14.736 -0.4629  0.2859  0.9913
 8012TIP3   OH245450   4.292   5.662  10.921 -0.2574 -0.1261 -0.3141
 8012TIP3    H145451   4.218   5.655  10.860 -0.8851  1.4678  0.2215
 8012TIP3    H245452   4.367   5.631  10.872 -1.3380 -2.1383 -0.7598
 8013TIP3   OH245453   2.374   1.140   2.207  0.5287 -0.0062 -0.4952
 8013TIP3    H145454   2.348   1.095   2.288 -0.5526 -0.6085 -1.1697
 8013TIP3    H245455   2.318   1.103   2.139 -1.5476  3.4810 -0.8144
 8014TIP3   OH245456   2.635   3.805   3.485 -0.3017  0.0636 -0.0653
 8014TIP3    H145457   2.654   3.899   3.489 -2.0404  0.4476 -0.1128
 8014TIP3    H245458   2.556   3.799   3.430  0.1837 -1.4911 -0.6286
 8015TIP3   OH245459   3.858   2.309  13.032  0.1903  0.1581 -0.1810
 8015TIP3    H145460   3.931   2.370  13.037  0.8834 -0.7430  0.9138
 8015TIP3    H245461   3.893   2.226  13.066 -1.2854 -0.3228  0.2236
 8016TIP3   OH245462   0.372   5.648   3.126 -0.0574 -0.7797 -0.5705
 8016TIP3    H145463   0.466   5.633   3.119  0.0435 -0.5919  0.2676
 8016TIP3    H245464   0.332   5.568   3.093  0.4548 -2.2975  2.3437
 8017TIP3   OH245465   5.960   0.814   5.629 -0.5722 -0.0748 -0.5164
 8017TIP3    H145466   5.943   0.903   5.660  0.4832 -0.9499  2.7141
 8017TIP3    H245467   5.892   0.761   5.670  2.1101 -1.5892  2.0937
 8018TIP3   OH245468   1.552   3.567  15.412  0.3989 -0.3482  0.4347
 8018TIP3    H145469   1.517   3.551  15.324  0.0482 -1.1256  0.7118
 8018TIP3    H245470   1.586   3.482  15.441 -1.3889 -0.5969  1.8863
 8019TIP3   OH245471   1.838   5.009   5.796 -0.1807 -0.5750  0.1913
 8019TIP3    H145472   1.814   5.002   5.888  1.8533 -0.7227  0.7353
 8019TIP3    H245473   1.934   5.016   5.796 -0.1881  0.0332 -1.8739
 8020TIP3   OH245474   1.745   2.294   5.790  0.8899  0.1165  0.8086
 8020TIP3    H145475   1.727   2.335   5.874  2.9470 -0.1292  1.3961
 8020TIP3    H245476   1.806   2.353   5.746 -1.0793  0.8443 -1.0371
 8021TIP3   OH245477   5.945   3.814   5.810  0.2430  0.5202  0.6880
 8021TIP3    H145478   5.918   3.896   5.850 -2.3398 -1.0672  2.4009
 8021TIP3    H245479   5.977   3.760   5.882 -1.8697 -1.3837  0.2783
 8022TIP3   OH245480   1.800   6.425   2.950  0.1880 -0.5541  0.2156
 8022TIP3    H145481   1.774   6.401   2.861  1.1965 -0.6323 -0.0691
 8022TIP3    H245482   1.807   6.520   2.948 -0.5384 -0.4918  0.4290
 8023TIP3   OH245483   4.965   0.603   1.079 -0.3757  0.2957  0.0119
 8023TIP3    H145484   5.030   0.568   1.139  0.0578 -0.5764 -0.9519
 8023TIP3    H245485   4.953   0.694   1.107  0.3961  0.1242  0.9131
 8024TIP3   OH245486   0.123   4.671  11.869 -0.1092  0.9289 -0.5384
 8024TIP3    H145487   0.069   4.665  11.948  0.8337 -0.9034 -0.0233
 8024TIP3    H245488   0.173   4.751  11.880  0.1517  0.5899  0.8111
 8025TIP3   OH245489   4.744   0.087   3.839 -0.1387  0.6331 -0.8587
 8025TIP3    H145490   4.707   0.168   3.872 -0.2911  0.0259  0.5155
 8025TIP3    H245491   4.795   0.052   3.913  3.5254  1.6551 -2.8225
 8026TIP3   OH245492   4.493   4.343  13.802  0.1852 -0.6726  0.0489
 8026TIP3    H145493   4.398   4.347  13.812  0.1760  2.0399 -0.6478
 8026TIP3    H245494   4.528   4.388  13.879  0.7871  0.7825 -1.0446
 8027TIP3   OH245495   2.501   4.711  11.550  0.5187 -0.2484  0.0210
 8027TIP3    H145496   2.585   4.730  11.591  1.3422 -1.3275 -1.1324
 8027TIP3    H245497   2.487   4.617  11.564 -0.7469  0.0200  0.6547
 8028TIP3   OH245498   4.532   4.955  11.938  0.1017  0.7037  0.2831
 8028TIP3    H145499   4.519   4.912  11.854  3.4814 -1.0123  0.5974
 8028TIP3    H245500   4.465   5.024  11.940 -1.4106 -0.6003 -2.8419
 8029TIP3   OH245501   2.258   1.135   0.436  0.5309  0.5961 -0.3017
 8029TIP3    H145502   2.179   1.116   0.385 -1.3357 -0.5227  2.8373
 8029TIP3    H245503   2.313   1.187   0.377 -1.8227  0.0293 -3.1358
 8030TIP3   OH245504   2.232   6.514  12.902  0.2032  0.2449 -0.3127
 8030TIP3    H145505   2.188   6.540  12.982 -0.1896  0.3785 -0.5704
 8030TIP3    H245506   2.261   6.424  12.919  0.6898  0.4999  0.2129
 8031TIP3   OH245507   6.224   6.219   1.288 -0.7372  0.4707  0.1256
 8031TIP3    H145508   6.176   6.148   1.330  1.8557  0.0327  2.4668
 8031TIP3    H245509   6.316   6.194   1.294  0.1638  3.4736 -0.0124
 8032TIP3   OH245510   0.760   4.764  16.755 -0.1064 -0.1621  1.0592
 8032TIP3    H145511   0.838   4.815  16.776 -0.5032  1.0462 -0.3379
 8032TIP3    H245512   0.704   4.772  16.833  0.2592  0.7005  1.2297
 8033TIP3   OH245513   4.391   5.596  11.167  0.1929 -0.6687 -0.0944
 8033TIP3    H145514   4.317   5.614  11.110 -0.1394 -0.8583  0.2680
 8033TIP3    H245515   4.370   5.511  11.207 -0.7660  0.5794  2.1673
 8034TIP3   OH245516   0.541   6.548  13.086  0.2262 -0.4651 -0.7714
 8034TIP3    H145517   0.622   6.539  13.136 -0.4149 -0.7657  0.2219
 8034TIP3    H245518   0.533   6.643  13.071 -0.9586 -0.0598  2.0613
 8035TIP3   OH245519   6.588   4.110  16.779  0.0190 -0.6234 -0.0261
 8035TIP3    H145520   6.588   4.102  16.874  1.7146 -5.2647 -0.2788
 8035TIP3    H245521   6.676   4.139  16.757 -0.0187 -0.6505 -0.2148
 8036TIP3   OH245522   5.567   1.512   0.692 -0.2731  0.0804  0.3864
 8036TIP3    H145523   5.479   1.533   0.722 -1.2655 -1.6420 -1.2771
 8036TIP3    H245524   5.576   1.559   0.609 -0.8690 -2.3180 -1.0967
 8037TIP3   OH245525   5.416   1.639   1.194  0.2215 -0.3922 -0.5453
 8037TIP3    H145526   5.327   1.613   1.215  0.3952 -1.3852 -1.0057
 8037TIP3    H245527   5.407   1.713   1.135 -0.2847  1.0328  1.2495
 8038TIP3   OH245528   3.366   4.563  12.180  0.1148  0.2355  0.3802
 8038TIP3    H145529   3.301   4.608  12.125  0.9819  0.3076 -0.6066
 8038TIP3    H245530   3.417   4.634  12.219  1.0962  0.1553 -0.7045
 8039TIP3   OH245531   0.947   0.508   0.346  0.2856 -0.3825 -0.2488
 8039TIP3    H145532   1.011   0.574   0.372  1.0669 -2.4467  3.4386
 8039TIP3    H245533   0.864   0.541   0.380  0.4167 -0.5402  0.2314
 8040TIP3   OH245534   5.994   3.838   0.562  0.0176  0.1689 -0.2238
 8040TIP3    H145535   5.959   3.813   0.477 -0.6648  2.0395 -0.5131
 8040TIP3    H245536   6.077   3.791   0.569 -0.6305 -1.1503 -1.2756
 8041TIP3   OH245537   5.937   5.606  13.089  0.0539 -0.2166 -0.3871
 8041TIP3    H145538   5.860   5.662  13.087  1.5599  1.9942  0.9616
 8041TIP3    H245539   6.010   5.666  13.103  1.4431 -2.7617  4.2784
 8042TIP3   OH245540   2.131   0.102   4.122  0.3133 -0.1321  0.2756
 8042TIP3    H145541   2.222   0.103   4.093  0.7698 -0.5867  1.6293
 8042TIP3    H245542   2.080   0.090   4.042  1.5133 -1.1459 -0.3476
 8043TIP3   OH245543   1.352   5.312   6.365  0.1221 -0.0800 -0.7111
 8043TIP3    H145544   1.329   5.220   6.362  0.8077 -0.2535 -0.7232
 8043TIP3    H245545   1.448   5.314   6.356  0.4787  0.4316  2.3797
 8044TIP3   OH245546   6.246   3.134   4.813 -0.1505  0.3088 -1.0268
 8044TIP3    H145547   6.197   3.097   4.886  0.7024 -1.6260 -1.3891
 8044TIP3    H245548   6.301   3.201   4.852 -1.3521  0.8538 -0.2608
 8045TIP3   OH245549   0.943   5.764   5.655  0.3133 -0.5798  0.3126
 8045TIP3    H145550   0.900   5.827   5.598 -2.6309 -2.6852  0.0731
 8045TIP3    H245551   0.916   5.790   5.744  1.0004 -0.1357  0.3941
 8046TIP3   OH245552   2.347   5.495   5.305 -0.1927 -0.5536 -0.2553
 8046TIP3    H145553   2.436   5.463   5.316  0.8860  2.6471  1.1695
 8046TIP3    H245554   2.357   5.575   5.253 -2.4449 -1.0313 -1.4996
 8047TIP3   OH245555   5.264   4.847  17.224 -0.7603  0.4449  0.2367
 8047TIP3    H145556   5.185   4.900  17.229 -1.8470 -0.9338 -1.6725
 8047TIP3    H245557   5.322   4.896  17.165 -1.1556  0.2812 -0.2942
 8048TIP3   OH245558   0.801   2.945  16.991  0.2969 -0.0457 -0.1136
 8048TIP3    H145559   0.740   3.014  17.017  1.0544  0.9981 -1.0439
 8048TIP3    H245560   0.820   2.897  17.071 -0.4901  0.6346  0.4815
 8049TIP3   OH245561   1.554   2.886  13.971  0.3458 -0.9581  0.5519
 8049TIP3    H145562   1.609   2.840  13.908 -0.5247 -0.1989 -0.7858
 8049TIP3    H245563   1.465   2.861  13.948 -0.0643  0.4328  0.5707
 8050TIP3   OH245564   4.142   3.207   2.603 -1.1430 -0.3321 -0.1519
 8050TIP3    H145565   4.150   3.292   2.648 -0.1491 -0.1357 -0.6941
 8050TIP3    H245566   4.091   3.227   2.524  0.5490  0.1027 -1.1556
 8051TIP3   OH245567   1.254   4.764  16.886 -0.3832 -0.4598  0.1568
 8051TIP3    H145568   1.265   4.838  16.946  0.9913 -0.7601  0.2878
 8051TIP3    H245569   1.343   4.745  16.855 -1.3409  1.4493 -4.1072
 8052TIP3   OH245570   5.258   5.613  16.967 -0.3087  0.0074  0.4152
 8052TIP3    H145571   5.308   5.662  17.032  1.1794  0.9648 -1.4057
 8052TIP3    H245572   5.309   5.621  16.887 -1.7690 -1.7306 -0.7134
 8053TIP3   OH245573   6.440   1.884  12.407  0.1269 -0.4764 -0.0858
 8053TIP3    H145574   6.450   1.931  12.324 -0.3645 -0.8101 -0.3374
 8053TIP3    H245575   6.456   1.792  12.385  0.4768 -0.5050  0.2857
 8054TIP3   OH245576   5.513   2.500  11.930  0.3329  0.1910 -0.6459
 8054TIP3    H145577   5.566   2.426  11.901 -2.2870 -2.3804  0.8806
 8054TIP3    H245578   5.425   2.481  11.897 -0.8899  1.4392  1.7729
 8055TIP3   OH245579   3.846   6.350   4.052  0.3918  0.2471 -0.5884
 8055TIP3    H145580   3.770   6.385   4.099  1.5354 -0.4599  1.8380
 8055TIP3    H245581   3.815   6.340   3.961 -2.5591 -0.4598  0.4274
 8056TIP3   OH245582   0.560   3.147  17.081  1.0436 -0.3340 -0.7010
 8056TIP3    H145583   0.543   3.196  17.161  1.2594 -0.1907 -0.7408
 8056TIP3    H245584   0.569   3.214  17.013  1.6540 -0.4051 -0.6982
 8057TIP3   OH245585   1.209   2.917  15.235 -0.3027  0.4901 -0.2312
 8057TIP3    H145586   1.158   2.976  15.292 -0.8457  0.0788 -0.2820
 8057TIP3    H245587   1.159   2.915  15.153  0.1258  0.5606 -0.4919
 8058TIP3   OH245588   3.740   4.400  14.389 -0.3819  0.7214 -0.1876
 8058TIP3    H145589   3.716   4.370  14.301  1.4105  0.7877 -0.7241
 8058TIP3    H245590   3.670   4.460  14.414 -1.1037  0.4162 -1.4206
 8059TIP3   OH245591   6.470   2.694  13.617  0.5008 -0.4782  0.7435
 8059TIP3    H145592   6.379   2.719  13.603  0.4915 -1.6420 -1.4845
 8059TIP3    H245593   6.517   2.777  13.620 -0.2698  0.0545 -1.0123
 8060TIP3   OH245594   6.508   5.281  12.477 -0.1524  0.4608 -0.0330
 8060TIP3    H145595   6.438   5.221  12.502 -0.9257  1.0081 -0.8654
 8060TIP3    H245596   6.557   5.295  12.558 -1.2552  0.4066  0.6477
 8061TIP3   OH245597   3.122   4.334   1.877  0.2140  0.3269  0.3270
 8061TIP3    H145598   3.098   4.402   1.940 -1.1500  1.1216 -1.0164
 8061TIP3    H245599   3.215   4.349   1.860  1.0689 -1.0672  3.5403
 8062TIP3   OH245600   5.745   5.532  15.044  0.2785 -0.2999  0.0008
 8062TIP3    H145601   5.837   5.508  15.058  0.1747 -0.4348  0.4644
 8062TIP3    H245602   5.736   5.538  14.949  1.1210  1.0845  0.0047
 8063TIP3   OH245603   5.985   6.784  12.151 -0.3485  0.2096  0.7121
 8063TIP3    H145604   5.918   6.790  12.084 -0.6082  0.5428  0.9979
 8063TIP3    H245605   5.960   6.708  12.204  0.6205 -0.8977 -0.3893
 8064TIP3   OH245606   6.187   3.687  12.950 -0.0990 -0.5389 -0.3666
 8064TIP3    H145607   6.177   3.777  12.982 -1.7108 -0.2255 -1.6908
 8064TIP3    H245608   6.123   3.637  13.000 -0.2476 -0.6726 -0.6898
 8065TIP3   OH245609   5.141   4.179  14.444  0.2235  0.2977 -0.5516
 8065TIP3    H145610   5.140   4.275  14.448 -1.2420  0.2600  0.0139
 8065TIP3    H245611   5.132   4.160  14.351  3.5629  0.7242 -1.0316
 8066TIP3   OH245612   3.138   3.664   6.461 -0.1501  0.1242  0.1129
 8066TIP3    H145613   3.139   3.759   6.466  0.2315  0.1060  0.3704
 8066TIP3    H245614   3.072   3.636   6.525  0.6092  0.1583  0.9143
 8067TIP3   OH245615   3.576   1.556   2.747  0.6468 -0.3412  0.4815
 8067TIP3    H145616   3.630   1.608   2.688  0.7291  0.0675  0.9099
 8067TIP3    H245617   3.532   1.492   2.691  1.4922 -0.6014  0.1233
 8068TIP3   OH245618   6.122   5.310  10.685 -0.0930 -0.1577  0.3664
 8068TIP3    H145619   6.061   5.268  10.746  1.0653  0.0978  1.7516
 8068TIP3    H245620   6.101   5.404  10.690 -1.2903 -0.3355 -1.1298
 8069TIP3   OH245621   1.774   0.928   1.754 -0.2716  0.7002  0.4486
 8069TIP3    H145622   1.828   0.872   1.698 -0.1002  2.4085 -1.1573
 8069TIP3    H245623   1.697   0.875   1.773  0.4844 -0.5711  0.0787
 8070TIP3   OH245624   1.704   0.598  14.836 -0.3521  0.5810 -0.5139
 8070TIP3    H145625   1.626   0.549  14.810  0.3668 -2.5290  2.7614
 8070TIP3    H245626   1.678   0.645  14.915  0.7899  0.2796  0.0596
 8071TIP3   OH245627   3.789   4.133  13.939  0.4666  0.0768  0.7183
 8071TIP3    H145628   3.743   4.108  14.019  0.2172 -0.9613  0.2511
 8071TIP3    H245629   3.720   4.144  13.874  0.8826 -1.7961 -0.0666
 8072TIP3   OH245630   0.306   2.745  14.369 -0.2013  0.2175  0.7245
 8072TIP3    H145631   0.253   2.707  14.439  1.0767 -1.4238  0.8514
 8072TIP3    H245632   0.263   2.828  14.348 -2.6821 -0.9621  0.9361
 8073TIP3   OH245633   3.762   0.255   4.436  0.5467  0.6456  0.2769
 8073TIP3    H145634   3.841   0.244   4.489 -1.6445  0.1377  3.5799
 8073TIP3    H245635   3.699   0.192   4.473 -2.3734  3.1485 -0.2329
 8074TIP3   OH245636   2.350   3.766   5.507  0.1261 -0.3186 -0.3751
 8074TIP3    H145637   2.445   3.761   5.499  0.1364  0.4148 -0.8479
 8074TIP3    H245638   2.324   3.823   5.434 -0.5068  0.7964  0.7022
 8075TIP3   OH245639   3.268   6.199   2.395 -0.1604 -0.7010 -0.1164
 8075TIP3    H145640   3.253   6.280   2.347 -1.1350 -1.2461 -0.7594
 8075TIP3    H245641   3.230   6.216   2.482  2.6103  0.6818  0.9026
 8076TIP3   OH245642   3.003   6.634   4.350 -0.2481 -0.0295 -0.5384
 8076TIP3    H145643   3.024   6.558   4.404  0.7634  1.4293  1.1776
 8076TIP3    H245644   3.087   6.674   4.330 -0.5436 -0.8396 -3.7358
 8077TIP3   OH245645   2.913   3.103  14.835  0.1911  0.3624 -0.0502
 8077TIP3    H145646   2.867   3.074  14.914  0.2078 -0.9756 -0.5146
 8077TIP3    H245647   2.901   3.031  14.773  0.9092  1.0329 -0.9748
 8078TIP3   OH245648   2.438   0.287   0.243  0.0272  0.0814  0.1344
 8078TIP3    H145649   2.370   0.281   0.176 -0.5058  0.3589  0.6475
 8078TIP3    H245650   2.391   0.307   0.324  0.4906 -1.9617  0.9369
 8079TIP3   OH245651   0.901   4.804  15.427  0.1072  0.6322 -0.5244
 8079TIP3    H145652   0.933   4.726  15.383 -2.3840 -0.5232 -0.3638
 8079TIP3    H245653   0.944   4.877  15.382  1.0811 -0.7425 -1.8555
 8080TIP3   OH245654   1.335   5.452  17.195 -0.2970 -0.4206  0.0021
 8080TIP3    H145655   1.276   5.378  17.182  0.8093 -1.1020 -1.2467
 8080TIP3    H245656   1.334   5.498  17.112 -0.6296  0.7212  0.6311
 8081TIP3   OH245657   6.521   5.667   4.682  0.6484  0.2397 -0.0631
 8081TIP3    H145658   6.455   5.714   4.632 -0.1039 -0.8050 -0.0523
 8081TIP3    H245659   6.472   5.604   4.735  1.8008 -2.4027 -2.0546
 8082TIP3   OH245660   0.534   2.448   2.181 -0.0355  0.3403  0.1305
 8082TIP3    H145661   0.544   2.537   2.214  0.0757 -0.2334  1.7139
 8082TIP3    H245662   0.611   2.401   2.214 -1.2164 -0.8775  1.2328
 8083TIP3   OH245663   6.150   2.769   5.468 -0.5618 -0.1920 -0.4773
 8083TIP3    H145664   6.120   2.850   5.426 -1.6483 -0.0440  0.5545
 8083TIP3    H245665   6.216   2.798   5.531 -2.0090  0.0950  0.9564
 8084TIP3   OH245666   5.461   1.928   1.672 -0.4377 -0.3213  0.0335
 8084TIP3    H145667   5.384   1.873   1.687 -0.0355 -0.1394  3.1853
 8084TIP3    H245668   5.483   1.961   1.759  1.9016  1.3903 -1.1695
 8085TIP3   OH245669   0.821   2.616  13.641  1.0443  0.5230  0.0897
 8085TIP3    H145670   0.876   2.592  13.567  0.0039 -1.1340 -0.1629
 8085TIP3    H245671   0.841   2.551  13.708  0.6045  0.8889  0.5808
 8086TIP3   OH245672   4.221   0.684  12.544  0.4897 -0.4008 -0.6420
 8086TIP3    H145673   4.169   0.761  12.518 -0.4239 -1.3978 -1.8487
 8086TIP3    H245674   4.155   0.620  12.571  1.1587 -1.3437 -1.2597
 8087TIP3   OH245675   2.943   2.448   1.984 -0.1054 -0.7315 -0.1660
 8087TIP3    H145676   2.948   2.483   2.073 -0.9555 -0.6237 -0.1635
 8087TIP3    H245677   2.879   2.503   1.940 -0.1586 -1.1898 -0.6624
 8088TIP3   OH245678   4.303   6.181   0.856  0.7550  0.2851  0.2788
 8088TIP3    H145679   4.337   6.231   0.782 -0.8154 -0.4484 -0.9733
 8088TIP3    H245680   4.297   6.091   0.824 -0.9962  0.1533  0.9003
 8089TIP3   OH245681   5.921   1.681   0.834 -0.1743 -0.1195  0.3107
 8089TIP3    H145682   5.871   1.687   0.916  0.1987 -1.7217  0.6642
 8089TIP3    H245683   5.904   1.593   0.802 -0.5769  0.6068 -1.5312
 8090TIP3   OH245684   3.057   5.890  12.770 -0.2922  0.5700 -0.4383
 8090TIP3    H145685   3.096   5.974  12.795 -1.9932  1.0229  0.7886
 8090TIP3    H245686   3.038   5.899  12.677 -1.5244  1.9913 -0.0608
 8091TIP3   OH245687   5.693   0.069   0.087  0.0242 -0.4335  0.6037
 8091TIP3    H145688   5.722   0.007   0.154 -0.1967  0.3391  1.4238
 8091TIP3    H245689   5.647   0.015   0.023  0.4726 -1.2197  0.9348
 8092TIP3   OH245690   1.157   1.744  12.215  0.4112 -0.4455  0.2930
 8092TIP3    H145691   1.116   1.658  12.225  1.6100 -1.1544 -0.6722
 8092TIP3    H245692   1.250   1.727  12.226  0.5948  0.8705  0.8539
 8093TIP3   OH245693   6.384   3.767   4.554 -0.1891  0.2922  0.0476
 8093TIP3    H145694   6.343   3.726   4.478  2.3163 -2.4600  0.1320
 8093TIP3    H245695   6.393   3.859   4.529 -1.2673 -0.1617 -2.1424
 8094TIP3   OH245696   0.045   2.873   0.111 -0.1218  0.0297  0.9583
 8094TIP3    H145697  -0.030   2.897   0.165  0.0560  3.1910 -0.1109
 8094TIP3    H245698   0.021   2.902   0.023  1.9450  0.1638  0.4164
 8095TIP3   OH245699   5.820   6.594   4.305 -0.2917  0.0627  0.5064
 8095TIP3    H145700   5.788   6.537   4.375 -0.5422  0.3305  0.6128
 8095TIP3    H245701   5.741   6.635   4.270  0.0022  1.4259  1.3710
 8096TIP3   OH245702   3.324   6.388   3.483  0.2970 -0.0509  0.6091
 8096TIP3    H145703   3.332   6.420   3.393  0.6947 -0.6125  0.4410
 8096TIP3    H245704   3.234   6.409   3.508  0.4093  0.7683  0.3402
 8097TIP3   OH245705   4.557   4.355  15.786  0.5450 -0.0100  0.1894
 8097TIP3    H145706   4.528   4.265  15.801  0.6798  0.1522  1.4683
 8097TIP3    H245707   4.488   4.393  15.732  1.0315 -1.1919 -1.3198
 8098TIP3   OH245708   1.403   1.738  12.275 -1.0276  0.4534 -0.3450
 8098TIP3    H145709   1.457   1.775  12.205 -0.2333 -0.3347 -0.1645
 8098TIP3    H245710   1.466   1.691  12.330 -1.8039  0.1537  0.2844
 8099TIP3   OH245711   2.483   4.618   5.656 -0.0367  0.7078  0.2489
 8099TIP3    H145712   2.416   4.627   5.589  0.5934  1.4420 -0.2895
 8099TIP3    H245713   2.447   4.663   5.732  0.1758  1.8140 -0.2915
 8100TIP3   OH245714   5.352   2.289   4.046 -0.6750 -0.5656  0.2213
 8100TIP3    H145715   5.400   2.242   3.978  1.0913  0.3318  0.8260
 8100TIP3    H245716   5.345   2.227   4.118 -1.2859 -1.0262 -0.2281
 8101TIP3   OH245717   1.461   1.297   1.060  0.1120 -0.2211  0.4695
 8101TIP3    H145718   1.490   1.297   1.151 -3.3882  0.6930  1.6891
 8101TIP3    H245719   1.461   1.389   1.034 -3.0555  0.0006  1.0508
 8102TIP3   OH245720   4.649   2.006   1.563  0.0021  0.0305 -0.0550
 8102TIP3    H145721   4.663   1.976   1.653  1.5787  1.2800  0.1399
 8102TIP3    H245722   4.634   2.100   1.572  0.2526  0.1707 -1.0979
 8103TIP3   OH245723   1.866   0.040  13.906 -0.3515  0.6712  0.4437
 8103TIP3    H145724   1.828   0.079  13.827 -0.8987  0.2886  0.5126
 8103TIP3    H245725   1.794   0.040  13.969 -0.2063  0.0432  0.6156
 8104TIP3   OH245726   5.520   3.406   3.185 -0.3946 -0.0071 -0.1146
 8104TIP3    H145727   5.425   3.408   3.196 -0.3632  0.4642  0.0783
 8104TIP3    H245728   5.555   3.395   3.273 -0.2713 -0.3447 -0.2022
 8105TIP3   OH245729   1.032   1.361  11.984  0.2207  0.6106  0.5839
 8105TIP3    H145730   0.965   1.391  12.044  0.0875  0.0454  0.7235
 8105TIP3    H245731   1.017   1.411  11.904 -0.3604  0.4963  0.6176
 8106TIP3   OH245732   3.210   4.608  11.701  0.1791  0.3088 -0.2461
 8106TIP3    H145733   3.285   4.551  11.718  1.5666  2.2923  0.5108
 8106TIP3    H245734   3.134   4.555  11.724  1.3098 -1.8770 -1.3866
 8107TIP3   OH245735   5.554   3.174  15.153 -0.8215  0.6410  0.0231
 8107TIP3    H145736   5.560   3.115  15.078  0.1939 -1.4729  1.7080
 8107TIP3    H245737   5.585   3.258  15.120  0.6523 -0.5188 -1.6646
 8108TIP3   OH245738   0.709   0.785   1.701  0.2185  0.1371 -0.5907
 8108TIP3    H145739   0.800   0.802   1.678 -0.2858  1.4764 -1.6555
 8108TIP3    H245740   0.661   0.793   1.618 -1.1143  1.2772  0.2606
 8109TIP3   OH245741   5.930   6.435   3.024  1.0009 -0.4341  0.3040
 8109TIP3    H145742   6.019   6.447   3.056  0.9360 -1.7035  1.0002
 8109TIP3    H245743   5.880   6.409   3.102  0.1810 -0.4501 -0.2218
 8110TIP3   OH245744   2.725   0.044  13.012  0.4664  0.0652 -0.1263
 8110TIP3    H145745   2.704   0.040  13.105 -3.2044  1.0315 -0.8295
 8110TIP3    H245746   2.792   0.112  13.006 -1.8036  2.5942  1.4987
 8111TIP3   OH245747   4.257   0.428   4.819 -0.2107 -0.1366  0.1231
 8111TIP3    H145748   4.165   0.448   4.836 -0.4206  0.2802 -1.3885
 8111TIP3    H245749   4.291   0.398   4.903 -1.7314 -0.3210  0.6991
 8112TIP3   OH245750   3.593   1.125  12.590 -0.9769  0.5433  0.1030
 8112TIP3    H145751   3.611   1.207  12.636 -0.4807 -0.6215  2.0496
 8112TIP3    H245752   3.519   1.145  12.533 -0.7388  2.3893  0.4162
 8113TIP3   OH245753   0.223   4.678  14.891 -0.3051 -0.4434  0.6618
 8113TIP3    H145754   0.295   4.714  14.943  1.1386 -0.0242 -1.5740
 8113TIP3    H245755   0.153   4.743  14.900  1.1950  1.4276 -0.7967
 8114TIP3   OH245756   5.565   5.137   4.616 -0.3479 -0.1589  0.6937
 8114TIP3    H145757   5.500   5.131   4.686 -1.0244 -1.1812  0.0016
 8114TIP3    H245758   5.521   5.189   4.548 -0.5887 -1.1808  0.0667
 8115TIP3   OH245759   3.072   3.290   2.934  0.1260  1.3275  0.1806
 8115TIP3    H145760   3.015   3.242   2.874  1.5241 -0.3386  0.1618
 8115TIP3    H245761   3.011   3.333   2.995 -1.1973  0.8355 -0.7671
 8116TIP3   OH245762   4.346   4.374  11.735  0.1589  0.2063  0.3599
 8116TIP3    H145763   4.334   4.281  11.755  0.3817  0.6762  2.8870
 8116TIP3    H245764   4.268   4.399  11.685  0.1821 -1.3689 -0.4839
 8117TIP3   OH245765   1.273   5.288   4.433  0.3137  0.0945 -0.1447
 8117TIP3    H145766   1.367   5.302   4.423  0.1163  0.5047 -1.4583
 8117TIP3    H245767   1.239   5.375   4.454  0.0224  0.2248 -1.1807
 8118TIP3   OH245768   6.473   1.859   2.409  0.1211  0.7911 -0.4648
 8118TIP3    H145769   6.488   1.766   2.422  0.9095  1.1575  1.3199
 8118TIP3    H245770   6.545   1.887   2.352  1.2077  0.7718  0.8903
 8119TIP3   OH245771   6.484   5.207  15.862 -0.3045 -0.2257 -0.4856
 8119TIP3    H145772   6.520   5.276  15.917 -0.3352 -1.6704  1.4332
 8119TIP3    H245773   6.409   5.173  15.912 -2.0559  0.2338 -2.6978
 8120TIP3   OH245774   1.167   6.418  16.213  0.1503 -0.2533  0.0210
 8120TIP3    H145775   1.083   6.463  16.205  0.1134 -0.2339  0.4765
 8120TIP3    H245776   1.231   6.489  16.227  0.2673 -0.2549 -0.4839
 8121TIP3   OH245777   5.228   0.527   4.456 -0.2435 -0.1684 -0.5858
 8121TIP3    H145778   5.136   0.527   4.431 -0.2369 -1.6934 -0.6428
 8121TIP3    H245779   5.271   0.584   4.392 -1.0630  0.1835 -0.8279
 8122TIP3   OH245780   5.043   5.756  15.761  0.1367 -0.4659 -0.3601
 8122TIP3    H145781   4.985   5.785  15.690 -1.1356  0.4013  0.9958
 8122TIP3    H245782   5.108   5.825  15.768  0.4123 -0.6734 -0.8391
 8123TIP3   OH245783   6.760   2.894   6.495  0.7477 -0.0369  0.3273
 8123TIP3    H145784   6.838   2.869   6.545  1.4972  0.2845 -0.6522
 8123TIP3    H245785   6.693   2.831   6.521  1.8640 -1.4639 -0.1922
 8124TIP3   OH245786   3.831   4.015  14.989 -0.1522 -0.6449  0.0876
 8124TIP3    H145787   3.736   4.020  14.997 -0.0615  0.2815  0.7158
 8124TIP3    H245788   3.862   4.024  15.079  0.6339  2.1457 -0.4058
 8125TIP3   OH245789   2.155   5.263  11.350  0.0164  0.1812  0.5803
 8125TIP3    H145790   2.069   5.229  11.324 -0.6504  1.5919  0.9031
 8125TIP3    H245791   2.193   5.296  11.269 -0.0421  0.2163  0.5683
 8126TIP3   OH245792   0.747   5.330  11.253 -0.1924 -0.7227 -0.0024
 8126TIP3    H145793   0.797   5.326  11.172 -2.6308  2.4598 -1.7863
 8126TIP3    H245794   0.684   5.259  11.247  0.3019 -1.1267 -0.4273
 8127TIP3   OH245795   0.970   6.360   5.087 -0.5631 -0.3955 -0.0910
 8127TIP3    H145796   1.058   6.396   5.095  0.2146 -2.1294 -0.4524
 8127TIP3    H245797   0.930   6.408   5.015  0.4079 -0.1852 -0.4933
 8128TIP3   OH245798   2.041   2.828   2.790 -0.5109 -0.5245  0.3888
 8128TIP3    H145799   1.984   2.756   2.817 -1.1694 -0.0972  0.1542
 8128TIP3    H245800   2.078   2.799   2.707  1.0557 -1.5857  1.4321
 8129TIP3   OH245801   6.408   5.610  17.217  0.1981 -0.1737 -0.6566
 8129TIP3    H145802   6.488   5.558  17.203  0.4577  0.1193 -0.2926
 8129TIP3    H245803   6.361   5.563  17.285  0.4443  0.0759 -0.3101
 8130TIP3   OH245804   1.354   1.811  15.964  0.2438 -0.1924 -0.1030
 8130TIP3    H145805   1.343   1.727  16.010  0.7028 -0.9974 -1.4290
 8130TIP3    H245806   1.427   1.853  16.009  1.7899 -1.7112 -1.1142
 8131TIP3   OH245807   5.817   1.892  13.085 -0.2510 -0.6949  0.0149
 8131TIP3    H145808   5.909   1.866  13.082 -0.0663 -0.0262 -0.3427
 8131TIP3    H245809   5.807   1.933  13.171  0.1999  0.6986 -0.5865
 8132TIP3   OH245810   6.667   0.323  17.109 -0.0370 -0.0706  0.3751
 8132TIP3    H145811   6.636   0.346  17.196  0.3062  0.4457  0.3645
 8132TIP3    H245812   6.747   0.375  17.098 -0.8549  0.9646 -0.8081
 8133TIP3   OH245813   2.087   4.254  12.395 -0.0586 -0.1320  0.0579
 8133TIP3    H145814   2.097   4.329  12.336  1.2327 -0.8435 -0.6484
 8133TIP3    H245815   2.175   4.240  12.431 -0.7189 -0.0448  1.7536
 8134TIP3   OH245816   2.896   3.720  16.250 -0.1228 -1.0366 -0.2171
 8134TIP3    H145817   2.861   3.675  16.174 -0.7763 -1.0758  0.1097
 8134TIP3    H245818   2.928   3.650  16.307  1.4395 -0.9625 -0.9710
 8135TIP3   OH245819   4.043   4.022  11.419  0.0896  0.1380  0.3535
 8135TIP3    H145820   4.025   4.056  11.506  0.8828 -0.8249  0.9026
 8135TIP3    H245821   3.976   3.955  11.405 -0.0064  0.2568  0.2360
 8136TIP3   OH245822   3.277   6.580  13.036 -0.8417 -0.0179  0.0280
 8136TIP3    H145823   3.217   6.575  13.109  0.6693 -0.0634  1.2972
 8136TIP3    H245824   3.362   6.600  13.076 -0.0940  0.4857 -1.7486
 8137TIP3   OH245825   5.410   4.961  17.019  0.6490 -0.3571  0.0970
 8137TIP3    H145826   5.444   4.925  16.937  0.7495 -0.6437  0.2624
 8137TIP3    H245827   5.489   4.983  17.069  0.6027  1.0171 -0.3964
 8138TIP3   OH245828   4.033   6.275   5.037 -0.2842 -0.1808  0.4458
 8138TIP3    H145829   4.034   6.347   4.974  0.8418 -0.6723 -0.1041
 8138TIP3    H245830   4.095   6.300   5.105  0.3598 -0.7747  0.0843
 8139TIP3   OH245831   6.393   6.448   4.826  0.2841  0.0197  0.1854
 8139TIP3    H145832   6.442   6.376   4.787 -0.7589 -0.3466 -0.4732
 8139TIP3    H245833   6.375   6.419   4.915  2.6368  0.8407  0.9616
 8140TIP3   OH245834   2.630   1.560  13.242  0.5893 -0.2338 -0.1313
 8140TIP3    H145835   2.573   1.621  13.290  1.0452  0.4032 -0.3960
 8140TIP3    H245836   2.687   1.523  13.309 -0.5370 -1.3466  0.2411
 8141TIP3   OH245837   0.842   2.635   1.853  0.2469 -0.2331 -0.2400
 8141TIP3    H145838   0.923   2.598   1.888 -1.3254 -0.5651  3.3005
 8141TIP3    H245839   0.785   2.559   1.840 -0.5503  0.2767  0.2557
 8142TIP3   OH245840   0.693   2.147  16.415  0.4079  0.5658 -0.0120
 8142TIP3    H145841   0.622   2.084  16.406  1.1339 -0.1573 -0.8187
 8142TIP3    H245842   0.746   2.135  16.337  0.4396  2.3588 -0.2871
 8143TIP3   OH245843   5.406   1.191  11.245  0.1455 -0.3758 -0.4449
 8143TIP3    H145844   5.373   1.242  11.171  0.1919 -2.1620 -1.7310
 8143TIP3    H245845   5.501   1.206  11.244 -0.1498  1.8870  1.0505
 8144TIP3   OH245846   4.584   3.562   2.456 -0.1247  0.4673  0.2428
 8144TIP3    H145847   4.637   3.554   2.535  0.3467 -0.8149 -0.1926
 8144TIP3    H245848   4.540   3.477   2.447 -1.1025  1.0101 -0.2167
 8145TIP3   OH245849   2.109   4.737   2.374 -0.6762  0.3441  0.7019
 8145TIP3    H145850   2.127   4.830   2.385 -0.4276  0.4647 -0.6935
 8145TIP3    H245851   2.063   4.731   2.290  0.8966 -0.9891 -0.0723
 8146TIP3   OH245852   6.096   4.387  10.891  0.2236 -0.2554 -0.1089
 8146TIP3    H145853   6.114   4.294  10.904 -0.3582 -0.3005  0.4014
 8146TIP3    H245854   6.158   4.415  10.824  1.2010 -0.7331  0.5921
 8147TIP3   OH245855   0.764   3.018   5.166  0.0115 -0.1549  0.4344
 8147TIP3    H145856   0.701   3.067   5.218  0.2523  0.4163  0.1978
 8147TIP3    H245857   0.817   3.085   5.123  0.1790 -0.6200 -0.1001
 8148TIP3   OH245858   1.310   1.257  14.893 -0.2172  0.3870  0.0409
 8148TIP3    H145859   1.332   1.205  14.971  1.4496 -0.2830 -0.8512
 8148TIP3    H245860   1.295   1.191  14.825  0.1827  1.0342 -0.6682
 8149TIP3   OH245861   0.740   4.854   5.446  0.2927 -0.6148  0.4022
 8149TIP3    H145862   0.655   4.823   5.413  0.5003 -2.4692  1.5110
 8149TIP3    H245863   0.780   4.898   5.371 -1.2844 -0.4755 -0.3829
 8150TIP3   OH245864   4.384   0.055   3.534  0.1629 -0.5501  0.1971
 8150TIP3    H145865   4.403   0.146   3.510 -1.3993 -0.1579  0.4254
 8150TIP3    H245866   4.356   0.059   3.625  1.0389 -1.3982  0.5201
 8151TIP3   OH245867   4.687   4.011  16.054  0.4968 -0.1187 -0.0146
 8151TIP3    H145868   4.594   4.023  16.073  0.6103  1.8105 -0.6468
 8151TIP3    H245869   4.731   4.073  16.112  1.3623 -0.5105 -0.2486
 8152TIP3   OH245870   0.426   2.861   3.146  0.3003 -0.1023 -0.7706
 8152TIP3    H145871   0.354   2.834   3.204  1.6128 -0.4900  0.7130
 8152TIP3    H245872   0.424   2.798   3.074 -0.9249 -0.0342 -0.8006
 8153TIP3   OH245873   0.087   6.667   5.661  0.0729  0.3179 -0.7561
 8153TIP3    H145874   0.042   6.737   5.707 -0.1078  0.5017 -1.2127
 8153TIP3    H245875   0.018   6.621   5.613  0.1499 -0.3341 -0.2575
 8154TIP3   OH245876   6.227   5.998  11.992 -0.0101 -0.2344  0.1622
 8154TIP3    H145877   6.295   5.979  11.926  0.4168  1.5450  0.0615
 8154TIP3    H245878   6.147   6.010  11.941  0.2447  0.7677 -0.0186
 8155TIP3   OH245879   3.301   2.900   3.178  0.3074  0.2576  0.0101
 8155TIP3    H145880   3.288   2.968   3.112  0.3055  2.2467  2.0078
 8155TIP3    H245881   3.395   2.882   3.177  0.2709  0.1228 -0.7060
 8156TIP3   OH245882   6.503   5.945  11.221 -0.4826  0.2221  0.6242
 8156TIP3    H145883   6.470   6.034  11.238 -2.3407 -0.1524 -0.8728
 8156TIP3    H245884   6.430   5.888  11.245  0.0018 -0.7878 -0.2980
 8157TIP3   OH245885   0.996   5.170   2.776  0.3193  0.5568 -0.2983
 8157TIP3    H145886   0.997   5.104   2.706 -0.5046 -1.5719  1.6610
 8157TIP3    H245887   1.082   5.163   2.816  0.2673  0.7543 -0.1558
 8158TIP3   OH245888   0.417   0.893  14.086 -0.1367  0.4077  0.8806
 8158TIP3    H145889   0.323   0.875  14.076 -0.4706  2.6268 -0.4101
 8158TIP3    H245890   0.456   0.859  14.005 -0.0305  0.7505  0.7874
 8159TIP3   OH245891   5.670   5.087   5.742 -0.3126 -0.1404 -0.3787
 8159TIP3    H145892   5.584   5.047   5.730 -0.1029 -0.1081 -2.1089
 8159TIP3    H245893   5.652   5.182   5.742 -0.3642 -0.1459  0.0951
 8160TIP3   OH245894   3.004   4.189  12.164 -0.0179 -0.3553 -0.1074
 8160TIP3    H145895   3.062   4.113  12.161  0.2028 -0.1864 -0.1163
 8160TIP3    H245896   2.928   4.158  12.213  0.1730 -0.5113  0.0942
 8161TIP3   OH245897   6.364   0.586  14.404 -0.2330 -0.5823  0.3627
 8161TIP3    H145898   6.289   0.581  14.463 -0.3602 -0.6659  0.1987
 8161TIP3    H245899   6.325   0.583  14.316 -0.0611 -0.2572  0.2770
 8162TIP3   OH245900   3.637   5.053  14.450  0.0603 -0.2298 -0.1387
 8162TIP3    H145901   3.622   5.101  14.532 -0.8008 -1.6109  0.5343
 8162TIP3    H245902   3.701   4.985  14.473 -0.7804 -1.1309 -0.3935
 8163TIP3   OH245903   1.539   5.344  11.388 -0.2214  0.0267 -0.2144
 8163TIP3    H145904   1.550   5.439  11.385 -1.9599  0.2527  0.2308
 8163TIP3    H245905   1.576   5.318  11.473 -2.1043  0.6600  0.8378
 8164TIP3   OH245906   3.101   6.757  12.476  0.3701  0.7672 -0.2344
 8164TIP3    H145907   3.025   6.719  12.519 -0.5421  0.0052 -2.4354
 8164TIP3    H245908   3.066   6.828  12.423  1.3148  1.0715 -0.4594
 8165TIP3   OH245909   6.716   4.116  15.935 -0.0639  0.0061 -0.5032
 8165TIP3    H145910   6.629   4.116  15.896 -0.5314 -0.5463  0.5164
 8165TIP3    H245911   6.700   4.127  16.029  0.9842  0.2201 -0.3386
 8166TIP3   OH245912   5.817   4.343   2.112  0.4210  0.2256 -0.3112
 8166TIP3    H145913   5.858   4.421   2.149 -4.2415  3.0815 -0.8304
 8166TIP3    H245914   5.786   4.294   2.188  0.3857  0.5880 -0.0908
 8167TIP3   OH245915   1.719   4.162  13.275  0.0667  0.1483  0.2758
 8167TIP3    H145916   1.772   4.213  13.337 -2.0429  1.9118  0.7113
 8167TIP3    H245917   1.647   4.129  13.328 -1.4323  1.1609 -1.1088
 8168TIP3   OH245918   2.240   6.595   0.116  0.4007  0.1341 -0.4576
 8168TIP3    H145919   2.190   6.650   0.056 -1.1427 -1.4297 -0.6642
 8168TIP3    H245920   2.197   6.510   0.112  0.4427 -0.1096  2.6374
 8169TIP3   OH245921   4.695   4.038   4.900 -0.3005 -0.5397 -0.4695
 8169TIP3    H145922   4.616   3.985   4.895 -0.3257 -0.6070  0.5245
 8169TIP3    H245923   4.664   4.126   4.923 -0.0190 -0.8181  1.0810
 8170TIP3   OH245924   3.409   5.971   3.906 -0.0051 -0.4927 -0.0741
 8170TIP3    H145925   3.405   5.887   3.859  0.1140 -1.3545  1.4074
 8170TIP3    H245926   3.327   6.015   3.882 -1.2597 -2.1171  1.0435
 8171TIP3   OH245927   6.138   3.833   1.818  0.3122  0.1119  0.1910
 8171TIP3    H145928   6.130   3.922   1.852  2.7365  0.0841  0.8977
 8171TIP3    H245929   6.104   3.777   1.888 -2.1619  0.4939 -0.6485
 8172TIP3   OH245930   0.485   6.544   2.450  0.0796 -0.3335 -0.1262
 8172TIP3    H145931   0.519   6.463   2.413  1.9265  0.0817  0.5537
 8172TIP3    H245932   0.554   6.609   2.433 -1.1732  0.9881 -0.2866
 8173TIP3   OH245933   0.633   1.146   6.322  0.3683 -0.1095 -0.1864
 8173TIP3    H145934   0.651   1.113   6.410  0.4759  0.6553  0.0757
 8173TIP3    H245935   0.549   1.105   6.298 -0.4286  0.8662  0.8705
 8174TIP3   OH245936   0.709   3.563  13.442 -0.1489 -0.1498  0.2478
 8174TIP3    H145937   0.804   3.570  13.440 -0.1364 -0.3492 -1.8825
 8174TIP3    H245938   0.692   3.470  13.456  0.0597 -0.7764 -3.1498
 8175TIP3   OH245939   4.552   6.740   5.676 -0.0851 -0.3472  0.1382
 8175TIP3    H145940   4.515   6.798   5.744  1.0444  0.3645  0.1590
 8175TIP3    H245941   4.586   6.800   5.610 -0.9408 -1.0394 -0.9471
 8176TIP3   OH245942   3.262   2.427   4.318 -0.0424 -0.3974  0.0868
 8176TIP3    H145943   3.197   2.494   4.338  0.8766  0.5126  0.0603
 8176TIP3    H245944   3.289   2.445   4.228  1.7635  0.5482  0.7877
 8177TIP3   OH245945   6.570   6.027   1.057 -0.6766 -0.4954 -0.0944
 8177TIP3    H145946   6.475   6.016   1.053 -0.7249  0.6140 -2.3037
 8177TIP3    H245947   6.594   6.067   0.974  1.4819  1.2450  1.3056
 8178TIP3   OH245948   0.127   3.883  13.443  0.2476 -0.3927 -0.2159
 8178TIP3    H145949   0.139   3.857  13.352  1.3298  0.0210 -0.2069
 8178TIP3    H245950   0.161   3.808  13.493  0.5666 -0.2130 -0.1643
 8179TIP3   OH245951   6.475   1.000   0.789  0.2658  0.3149 -0.1269
 8179TIP3    H145952   6.526   0.981   0.867  0.2810 -0.6084 -0.3540
 8179TIP3    H245953   6.479   0.920   0.737 -0.7760  0.4880 -0.4970
 8180TIP3   OH245954   3.089   4.794  15.459  0.3811 -0.4244  0.5717
 8180TIP3    H145955   3.166   4.777  15.405 -1.0456 -1.8617 -1.0517
 8180TIP3    H245956   3.087   4.889  15.469  0.6162 -0.1365 -1.9674
 8181TIP3   OH245957   3.822   3.105   5.156  0.4284 -0.7899  0.1362
 8181TIP3    H145958   3.762   3.142   5.091 -0.0099 -2.6125 -0.5168
 8181TIP3    H245959   3.765   3.079   5.229  0.6073 -1.0954  0.1685
 8182TIP3   OH245960   0.119   2.007   1.527  0.0329 -0.1397  0.4902
 8182TIP3    H145961   0.148   1.962   1.448 -0.6692 -0.6478  0.5095
 8182TIP3    H245962   0.036   2.048   1.502  0.2948  0.5184  0.6862
 8183TIP3   OH245963   2.985   0.745  13.796 -0.0714 -0.1461 -0.1956
 8183TIP3    H145964   2.999   0.653  13.773 -0.2054 -0.7143  1.8902
 8183TIP3    H245965   2.895   0.763  13.769  0.5942 -0.0322 -2.4199
 8184TIP3   OH245966   4.576   4.422   2.433 -0.1486 -0.2375 -0.3922
 8184TIP3    H145967   4.489   4.444   2.468  0.4331 -1.0552  1.6606
 8184TIP3    H245968   4.633   4.491   2.467  0.2134 -0.3689 -0.7408
 8185TIP3   OH245969   6.311   1.512  13.265 -0.3579  0.2199 -0.0206
 8185TIP3    H145970   6.291   1.543  13.177  1.3140  0.7889 -0.2100
 8185TIP3    H245971   6.291   1.419  13.263  1.9528 -0.2736 -1.7303
 8186TIP3   OH245972   6.377   5.670  11.344 -0.2400  0.3966 -0.3210
 8186TIP3    H145973   6.390   5.702  11.433  0.8093  0.0001 -0.3211
 8186TIP3    H245974   6.288   5.697  11.321 -0.5267  0.4665  0.8561
 8187TIP3   OH245975   3.429   4.367  15.245 -0.7441 -0.3577 -0.8530
 8187TIP3    H145976   3.336   4.389  15.257 -0.7456 -2.5648  4.6765
 8187TIP3    H245977   3.432   4.272  15.250  2.0799 -0.1954  1.5325
 8188TIP3   OH245978   6.274   5.358  12.227 -0.4372 -0.1643 -0.1465
 8188TIP3    H145979   6.201   5.309  12.188 -0.7388 -0.1628  0.4075
 8188TIP3    H245980   6.281   5.323  12.316  1.7241 -1.7656 -0.9203
 8189TIP3   OH245981   4.346   3.583   4.482  0.2418  0.0358 -0.5277
 8189TIP3    H145982   4.281   3.519   4.454  0.0640  0.4057 -0.9471
 8189TIP3    H245983   4.329   3.596   4.575  0.8452 -1.2050 -0.2352
 8190TIP3   OH245984   5.635   0.902  12.975  0.4993 -0.1273  0.5394
 8190TIP3    H145985   5.701   0.838  12.951 -0.1683 -0.9477  0.8536
 8190TIP3    H245986   5.685   0.976  13.010  1.4432  0.8123 -2.6185
 8191TIP3   OH245987   1.990   6.496   0.614 -0.1976 -0.1681 -0.7633
 8191TIP3    H145988   2.011   6.491   0.521 -0.3071 -0.0946 -0.7918
 8191TIP3    H245989   1.894   6.502   0.617 -0.0802  1.7776 -0.7207
 8192TIP3   OH245990   0.986   0.104   4.418 -0.0933  0.3602  0.5791
 8192TIP3    H145991   0.913   0.080   4.362  0.6098  2.7406 -1.4507
 8192TIP3    H245992   1.063   0.068   4.374  0.1829 -0.4113  1.6632
 8193TIP3   OH245993   5.226   0.814   3.225  0.0607  0.0970 -0.4469
 8193TIP3    H145994   5.133   0.791   3.227  0.4963 -1.9375 -1.6091
 8193TIP3    H245995   5.241   0.845   3.136  0.1538  2.0068  0.2232
 8194TIP3   OH245996   1.400   5.080  14.726  0.3129 -1.2409 -0.5419
 8194TIP3    H145997   1.429   5.050  14.641  2.5245 -0.0659 -0.2420
 8194TIP3    H245998   1.478   5.076  14.782 -0.6107 -0.1317  0.8911
 8195TIP3   OH245999   6.190   3.235  16.921 -0.5726 -0.0164  0.1472
 8195TIP3    H146000   6.235   3.281  16.991 -2.2970  1.4454  0.3410
 8195TIP3    H246001   6.187   3.144  16.950  3.0025 -0.3510 -0.3018
 8196TIP3   OH246002   0.535   6.713   1.119  0.0779  0.2525 -0.6675
 8196TIP3    H146003   0.542   6.669   1.203  1.1320  0.1921 -0.7801
 8196TIP3    H246004   0.465   6.777   1.130  0.7416  0.7762  0.4832
 8197TIP3   OH246005   2.921   0.992   0.369  0.3789  0.1977  0.0289
 8197TIP3    H146006   2.951   0.997   0.278  2.0691 -0.4350  0.5368
 8197TIP3    H246007   2.828   0.970   0.362  0.7089 -0.7980 -1.5229
 8198TIP3   OH246008   5.242   1.976  16.839  0.7404  0.7098 -0.1451
 8198TIP3    H146009   5.177   1.911  16.811  1.1369  0.2594 -0.0296
 8198TIP3    H246010   5.318   1.924  16.865  0.9114  1.2008  0.3462
 8199TIP3   OH246011   2.495   5.841   5.323 -0.0441  0.1850 -0.7500
 8199TIP3    H146012   2.461   5.823   5.411  1.6809 -0.2995 -0.1587
 8199TIP3    H246013   2.565   5.777   5.311 -0.9835 -0.4868 -2.9412
 8200TIP3   OH246014   5.889   6.616   2.560 -0.3428  0.2564 -0.6964
 8200TIP3    H146015   5.834   6.553   2.607 -0.3745  1.2089  0.5755
 8200TIP3    H246016   5.836   6.643   2.485 -0.7454 -0.4413 -0.6687
 8201TIP3   OH246017   3.211   6.077  16.876  0.0710 -0.1858  0.6311
 8201TIP3    H146018   3.163   6.110  16.953  0.2296  0.6791  0.3603
 8201TIP3    H246019   3.151   6.013  16.836  0.0766 -0.8132  1.5972
 8202TIP3   OH246020   2.216   1.402   5.091 -0.0679 -0.2244  0.6010
 8202TIP3    H146021   2.285   1.360   5.142 -0.6128 -0.5612  1.0643
 8202TIP3    H246022   2.197   1.484   5.137  0.4699  0.1789  0.1138
 8203TIP3   OH246023   5.039   5.718   0.003  0.1731 -0.1889 -0.0719
 8203TIP3    H146024   5.066   5.671   0.082  1.7721 -2.7475 -2.0670
 8203TIP3    H246025   5.118   5.766  -0.024 -0.4616  0.9406  0.0568
 8204TIP3   OH246026   3.076   0.986   6.310  0.2155  0.2478  0.2569
 8204TIP3    H146027   3.107   0.940   6.388 -1.6026 -1.1169  0.1929
 8204TIP3    H246028   2.982   1.000   6.326  0.1244  1.2744 -1.0490
 8205TIP3   OH246029   2.107   0.391   2.375 -0.5662  0.0845 -0.0089
 8205TIP3    H146030   2.104   0.391   2.280  0.7459 -0.6008 -0.0622
 8205TIP3    H246031   2.074   0.305   2.401 -1.3278  0.4287  0.1746
 8206TIP3   OH246032   6.219   3.885  15.117  0.5354  0.0653 -0.7530
 8206TIP3    H146033   6.309   3.919  15.119 -0.0312  1.5791  0.8515
 8206TIP3    H246034   6.220   3.812  15.180  1.1072 -1.2176 -2.2236
 8207TIP3   OH246035   6.330   1.886  13.154 -0.1431 -0.4331  0.2439
 8207TIP3    H146036   6.342   1.928  13.069 -1.2556 -1.6683 -0.5291
 8207TIP3    H246037   6.248   1.922  13.188  0.2859  0.0422  0.8122
 8208TIP3   OH246038   6.019   1.530   2.758  0.6070  0.3538  0.4501
 8208TIP3    H146039   5.964   1.593   2.711  0.2026  0.6213  1.2637
 8208TIP3    H246040   5.957   1.469   2.798  0.8900  0.7010  1.4342
 8209TIP3   OH246041   6.758   5.898  14.006  0.2033 -0.3327  0.1050
 8209TIP3    H146042   6.816   5.971  14.029  0.3309 -0.4682  0.2150
 8209TIP3    H246043   6.671   5.937  14.000  0.5031  0.1175 -1.3607
 8210TIP3   OH246044   1.598   4.168  10.854  0.6532  0.0893 -0.3302
 8210TIP3    H146045   1.663   4.153  10.785  0.9096  0.9311 -0.2873
 8210TIP3    H246046   1.515   4.171  10.808  0.7038 -0.4503 -0.4571
 8211TIP3   OH246047   3.701   0.957   0.371  0.1911 -0.4671 -0.0010
 8211TIP3    H146048   3.673   0.897   0.439 -0.7682 -0.8529 -0.7269
 8211TIP3    H246049   3.623   0.972   0.318  0.0910  2.3397  0.8440
 8212TIP3   OH246050   3.789   5.692  13.156 -0.3227  0.2353 -0.1868
 8212TIP3    H146051   3.817   5.685  13.247 -2.4237  0.0498  0.4582
 8212TIP3    H246052   3.779   5.786  13.142  1.5674  0.3753 -0.7318
 8213TIP3   OH246053   0.644   2.030   5.561 -0.2947  0.0831 -0.7053
 8213TIP3    H146054   0.643   2.088   5.637 -1.5406 -0.3517 -0.3857
 8213TIP3    H246055   0.599   2.080   5.493  0.0077  0.0971 -0.8998
 8214TIP3   OH246056   0.717   0.950   5.472  0.0866 -0.6676  0.5645
 8214TIP3    H146057   0.676   0.895   5.539 -3.6845 -0.2533 -1.2289
 8214TIP3    H246058   0.688   1.038   5.494  0.3261 -0.3092 -0.5701
 8215TIP3   OH246059   5.991   0.313   3.512 -0.0317  0.2219 -0.4212
 8215TIP3    H146060   5.938   0.361   3.576  0.2709 -0.6237  0.4708
 8215TIP3    H246061   6.042   0.381   3.468  0.3861  0.7301  0.8330
 8216TIP3   OH246062   5.095   6.384   5.006 -0.1294  0.2509 -0.1164
 8216TIP3    H146063   5.155   6.454   5.031 -2.6327  2.7175 -0.7094
 8216TIP3    H246064   5.140   6.335   4.937  2.4698 -0.0167  1.7096
 8217TIP3   OH246065   6.254   3.799  16.295  0.0877  0.3618  0.6491
 8217TIP3    H146066   6.319   3.767  16.233  2.1814  0.0452  2.9210
 8217TIP3    H246067   6.280   3.889  16.314 -0.1242  0.2437  1.5501
 8218TIP3   OH246068   3.208   4.719  13.392  0.4021 -0.6818  0.0831
 8218TIP3    H146069   3.187   4.777  13.466 -2.0637 -0.9743 -0.3457
 8218TIP3    H246070   3.226   4.635  13.433  0.0584 -0.5911  0.4318
 8219TIP3   OH246071   5.383   2.046  17.163 -0.5796 -0.4072 -0.2453
 8219TIP3    H146072   5.393   2.028  17.069 -3.6415 -0.0892 -0.6629
 8219TIP3    H246073   5.346   1.966  17.199  1.2343 -0.7797  0.8741
 8220TIP3   OH246074   5.012   6.138  15.014  0.1027  0.0146  0.3587
 8220TIP3    H146075   4.961   6.202  14.964 -0.6919 -1.6591 -1.0374
 8220TIP3    H246076   4.986   6.152  15.105  0.6229  2.2677  0.1781
 8221TIP3   OH246077   2.820   3.608   4.825  0.0080 -0.3845 -0.2931
 8221TIP3    H146078   2.777   3.573   4.747 -0.2394  1.2699 -0.9316
 8221TIP3    H246079   2.883   3.541   4.851  1.1126 -0.3453 -2.7787
 8222TIP3   OH246080   4.367   5.454  15.462 -0.4743  0.4380 -0.1873
 8222TIP3    H146081   4.405   5.515  15.525  1.6200 -0.0343 -0.9524
 8222TIP3    H246082   4.388   5.492  15.377 -0.1430 -0.7666 -0.6500
 8223TIP3   OH246083   3.688   1.915  13.124 -0.0034 -0.1489 -0.2673
 8223TIP3    H146084   3.742   1.939  13.199  0.5462 -3.4059  0.4864
 8223TIP3    H246085   3.601   1.898  13.162 -0.0472 -0.5701 -0.5476
 8224TIP3   OH246086   1.339   4.007  10.997 -0.3397  0.1486 -0.2380
 8224TIP3    H146087   1.272   4.059  11.039  1.2061  0.9230  1.3168
 8224TIP3    H246088   1.422   4.040  11.033  0.8217 -1.3808 -1.4278
 8225TIP3   OH246089   4.702   2.824  14.184 -0.1834  0.7140 -0.1337
 8225TIP3    H146090   4.767   2.755  14.200 -0.4791  0.2762 -0.7947
 8225TIP3    H246091   4.618   2.778  14.181 -0.2902  0.9603 -1.5083
 8226TIP3   OH246092   6.379   0.357  14.874  0.1816 -0.2535 -0.1933
 8226TIP3    H146093   6.447   0.397  14.929  0.9240 -0.5567 -0.8908
 8226TIP3    H246094   6.321   0.313  14.937  1.5321 -1.3786  0.3026
 8227TIP3   OH246095   3.755   5.569   1.903 -0.0454  0.0515  0.5062
 8227TIP3    H146096   3.779   5.634   1.969  1.3277 -0.5754  0.6384
 8227TIP3    H246097   3.787   5.486   1.938 -2.2646 -0.8033  0.5921
 8228TIP3   OH246098   3.404   5.212   4.181 -0.1703  0.2709  0.2987
 8228TIP3    H146099   3.319   5.243   4.150 -0.5546 -1.1799 -0.1043
 8228TIP3    H246100   3.391   5.119   4.199  1.2799  0.0880  0.4528
 8229TIP3   OH246101   0.834   2.596   3.711  0.0025 -0.1139  0.3757
 8229TIP3    H146102   0.842   2.689   3.733  2.2844 -0.5427  1.5811
 8229TIP3    H246103   0.762   2.565   3.766  1.0130  0.3732  2.0303
 8230TIP3   OH246104   0.049   2.130  14.628 -0.0271 -0.5588  0.4893
 8230TIP3    H146105  -0.041   2.115  14.656  0.3487  1.0028  2.6308
 8230TIP3    H246106   0.094   2.049  14.649 -0.7548 -1.0782  0.0853
 8231TIP3   OH246107   2.884   3.308   1.179  0.1044 -0.2066 -0.2930
 8231TIP3    H146108   2.816   3.323   1.244  0.0798 -0.1533 -0.3314
 8231TIP3    H246109   2.965   3.303   1.230  0.2508  1.0561 -0.3670
 8232TIP3   OH246110   6.032   4.204   3.296 -0.5206  0.1680  0.4525
 8232TIP3    H146111   5.957   4.168   3.343 -0.7386 -0.7935 -0.6143
 8232TIP3    H246112   6.088   4.239   3.364 -1.0331 -0.8234  1.4032
 8233TIP3   OH246113   1.730   1.579  13.618  0.3678  0.1563  0.1969
 8233TIP3    H146114   1.736   1.484  13.618  0.1780  0.1454 -0.4783
 8233TIP3    H246115   1.704   1.602  13.707 -0.7694 -0.4925  0.0273
 8234TIP3   OH246116   0.196   4.154  11.583 -0.6378 -0.1439  0.3340
 8234TIP3    H146117   0.226   4.067  11.554 -3.3325 -0.9014 -0.3426
 8234TIP3    H246118   0.182   4.144  11.677  1.4378  0.3087  0.7191
 8235TIP3   OH246119   0.144   0.659  15.889 -0.3128  0.6892  0.2309
 8235TIP3    H146120   0.183   0.572  15.894 -0.4200  0.6660  0.6260
 8235TIP3    H246121   0.114   0.678  15.978 -1.0853  0.7659 -0.0449
 8236TIP3   OH246122   6.418   1.184  15.650  0.0617 -0.7418  0.2797
 8236TIP3    H146123   6.499   1.157  15.608  1.5492  3.1528  0.4951
 8236TIP3    H246124   6.441   1.196  15.742 -0.8520 -0.0126  0.4197
 8237TIP3   OH246125   2.662   2.728  15.240 -0.6195 -0.4597  0.0709
 8237TIP3    H146126   2.581   2.778  15.244 -0.6477 -0.4638 -0.4075
 8237TIP3    H246127   2.674   2.693  15.328 -1.1565 -0.4940  0.1270
 8238TIP3   OH246128   3.639   5.353   3.112 -0.2065 -0.0988 -0.3604
 8238TIP3    H146129   3.597   5.419   3.057 -0.7910  1.8974  2.3550
 8238TIP3    H246130   3.591   5.273   3.092  0.7554  0.1242 -3.9924
 8239TIP3   OH246131   4.434   2.392   3.605 -0.5537  0.1725 -0.9531
 8239TIP3    H146132   4.527   2.410   3.614 -0.8652  1.5674 -0.3986
 8239TIP3    H246133   4.427   2.297   3.616  0.7279  0.1226 -0.4784
 8240TIP3   OH246134   6.516   4.124  14.325  0.4610 -0.0599 -0.4108
 8240TIP3    H146135   6.459   4.199  14.311  0.6087 -0.0736 -1.0703
 8240TIP3    H246136   6.472   4.051  14.282 -0.3254 -0.6451  1.3102
 8241TIP3   OH246137   1.954   5.590  16.167  0.1007  0.2181 -0.0642
 8241TIP3    H146138   2.000   5.506  16.168  1.2589  0.6945 -4.4699
 8241TIP3    H246139   2.019   5.653  16.139 -1.5626  2.0992  0.1578
 8242TIP3   OH246140   2.997   5.609   5.249 -0.1135 -0.1629 -0.8245
 8242TIP3    H146141   3.083   5.574   5.225 -0.2763 -1.8212  0.8843
 8242TIP3    H246142   3.008   5.640   5.339 -0.9621  0.8004 -1.0435
 8243TIP3   OH246143   2.306   4.749  16.124 -0.8229  0.3843  0.0683
 8243TIP3    H146144   2.226   4.711  16.161  0.7608 -2.4596  0.8116
 8243TIP3    H246145   2.373   4.732  16.191  1.1236 -0.5378 -2.0361
 8244TIP3   OH246146   6.502   6.767  14.257  0.0338  0.0472 -0.3276
 8244TIP3    H146147   6.458   6.688  14.288 -0.0684  0.6172  1.0521
 8244TIP3    H246148   6.574   6.735  14.204  0.4318 -1.0085  0.8047
 8245TIP3   OH246149   0.347   6.607  11.946  0.3238 -0.8696 -0.4164
 8245TIP3    H146150   0.432   6.586  11.985  0.4955  1.1390  0.3131
 8245TIP3    H246151   0.362   6.599  11.852  1.7500  0.8926 -0.3690
 8246TIP3   OH246152   3.760   0.888   1.170 -0.5238 -0.3906  0.1183
 8246TIP3    H146153   3.708   0.818   1.210 -1.1165 -0.0211 -0.0047
 8246TIP3    H246154   3.713   0.968   1.192  0.0145 -0.0513  0.0335
 8247TIP3   OH246155   2.792   6.486  16.327  0.0467  0.2888  0.3789
 8247TIP3    H146156   2.816   6.419  16.264 -0.2150  2.1905 -1.7843
 8247TIP3    H246157   2.876   6.521  16.358  0.2216 -2.1511  2.7924
 8248TIP3   OH246158   1.696   0.833  16.260 -0.7167 -0.0147  0.2792
 8248TIP3    H146159   1.635   0.768  16.224  0.8804 -1.4977  0.1927
 8248TIP3    H246160   1.714   0.802  16.349  0.4557  0.0117  0.0638
 8249TIP3   OH246161   3.249   1.666   2.595 -0.2339  0.3634  0.6290
 8249TIP3    H146162   3.330   1.624   2.564 -0.6294  0.9761 -1.2868
 8249TIP3    H246163   3.279   1.731   2.658  0.5822 -1.0244  1.7049
 8250TIP3   OH246164   0.014   0.733  17.131  0.0756  0.2895 -0.0525
 8250TIP3    H146165   0.101   0.768  17.115  0.1552 -0.2557 -0.8711
 8250TIP3    H246166  -0.032   0.745  17.048 -0.6021  0.5178  0.3566
 8251TIP3   OH246167   5.709   4.729  12.052 -0.1383  0.2846 -0.3933
 8251TIP3    H146168   5.646   4.737  11.981  0.0182 -1.0633 -0.7076
 8251TIP3    H246169   5.757   4.812  12.052 -2.1050  1.4512  0.0562
 8252TIP3   OH246170   1.527   4.006  13.426 -0.2315 -0.0716 -0.4117
 8252TIP3    H146171   1.443   4.052  13.426 -0.6381 -0.6502  3.1282
 8252TIP3    H246172   1.507   3.917  13.396 -0.6857  0.0836 -0.5638
 8253TIP3   OH246173   6.088   1.685  16.584  0.1228 -0.4184  0.1696
 8253TIP3    H146174   6.129   1.758  16.537 -1.0120 -0.6645 -1.2393
 8253TIP3    H246175   6.051   1.630  16.515  1.0330 -2.3818  1.2065
 8254TIP3   OH246176   2.147   3.433  16.928  0.2943 -0.3503 -0.3649
 8254TIP3    H146177   2.125   3.421  17.021  2.7613 -1.1369  0.1627
 8254TIP3    H246178   2.234   3.472  16.929  0.6043 -0.9258 -2.3480
 8255TIP3   OH246179   2.803   1.798   6.093 -0.1981  0.0922 -0.4071
 8255TIP3    H146180   2.724   1.824   6.046 -0.3453 -1.4281 -1.0526
 8255TIP3    H246181   2.781   1.809   6.186 -0.1729  2.3792 -0.6617
 8256TIP3   OH246182   6.448   1.273   2.301  0.3282 -0.7660 -0.2358
 8256TIP3    H146183   6.385   1.330   2.257  1.1926  1.3710  1.2145
 8256TIP3    H246184   6.533   1.295   2.261  0.4639 -2.1321 -0.7241
 8257TIP3   OH246185   6.398   1.791  14.209  0.1218  0.1159 -0.5505
 8257TIP3    H146186   6.335   1.859  14.184  0.4491 -0.2364 -2.3324
 8257TIP3    H246187   6.354   1.709  14.190  1.2775 -0.1349 -2.2802
 8258TIP3   OH246188   1.938   1.755  13.639 -0.5413  0.1962 -0.0574
 8258TIP3    H146189   1.894   1.786  13.718 -1.4265  1.8316 -1.1736
 8258TIP3    H246190   1.879   1.688  13.603 -0.8770  0.5461 -0.1589
 8259TIP3   OH246191   2.111   5.141   3.976  0.1482  0.1502  0.6045
 8259TIP3    H146192   2.123   5.084   4.051  2.5328  0.2041  0.3109
 8259TIP3    H246193   2.188   5.198   3.976 -0.1570  0.6280 -1.4579
 8260TIP3   OH246194   0.260   3.263   1.601  0.1373 -0.5784 -0.1239
 8260TIP3    H146195   0.229   3.258   1.692  1.0810 -1.6086  0.1451
 8260TIP3    H246196   0.194   3.214   1.551 -0.3466 -0.0704  0.0101
 8261TIP3   OH246197   1.007   5.907  16.001 -1.0265 -0.4351 -0.4723
 8261TIP3    H146198   1.005   5.839  15.934  1.9110  0.8242 -1.9315
 8261TIP3    H246199   0.946   5.974  15.970 -0.7933 -0.5360 -1.1441
 8262TIP3   OH246200   1.541   0.915  15.626 -0.1265  0.2996 -0.3106
 8262TIP3    H146201   1.506   0.936  15.539 -1.0278 -0.6406 -0.1807
 8262TIP3    H246202   1.471   0.937  15.686 -2.2002 -5.3195 -0.3337
 8263TIP3   OH246203   6.206   3.695   0.654 -0.1763  0.1859  0.0647
 8263TIP3    H146204   6.282   3.642   0.631  0.6453  0.6577  1.5816
 8263TIP3    H246205   6.153   3.639   0.710 -0.5249  0.1285 -0.3282
 8264TIP3   OH246206   3.681   1.255  16.010  0.5367  0.5042 -0.2750
 8264TIP3    H146207   3.719   1.178  15.968 -0.0164 -0.8346  1.6070
 8264TIP3    H246208   3.624   1.294  15.943 -0.8853 -1.9778 -0.5817
 8265TIP3   OH246209   1.546   1.964  12.627 -0.9842  0.2299 -0.1575
 8265TIP3    H146210   1.543   1.985  12.721 -1.3904  2.9318 -0.7138
 8265TIP3    H246211   1.519   1.873  12.621 -0.7955 -0.0178  2.3749
 8266TIP3   OH246212   3.800   6.555  11.181 -0.2335 -0.3742 -0.3772
 8266TIP3    H146213   3.739   6.629  11.172  1.8014  1.3135 -0.4518
 8266TIP3    H246214   3.834   6.542  11.092  1.0831  0.0532  0.0603
 8267TIP3   OH246215   2.340   3.798  12.433  0.2434 -0.0274 -0.0924
 8267TIP3    H146216   2.326   3.766  12.522 -0.7928 -0.6039 -0.4558
 8267TIP3    H246217   2.430   3.773  12.412  0.1349 -0.8416  0.4020
 8268TIP3   OH246218   5.827   1.823   6.675 -0.4236  0.3763  0.4485
 8268TIP3    H146219   5.843   1.902   6.625 -0.4218  0.1182  0.0454
 8268TIP3    H246220   5.762   1.774   6.624  0.6199 -0.5503 -0.0181
 8269TIP3   OH246221   0.261   6.419   3.397 -0.1804  0.5316 -1.0975
 8269TIP3    H146222   0.335   6.411   3.458  0.4348 -0.1662 -1.9299
 8269TIP3    H246223   0.189   6.452   3.451  0.1404 -0.8256  0.1880
 8270TIP3   OH246224   3.341   3.074   5.496  0.2571  0.0228 -0.2237
 8270TIP3    H146225   3.383   3.157   5.473 -1.6296  0.8321 -0.9164
 8270TIP3    H246226   3.273   3.062   5.429 -0.4874 -1.3150  0.7283
 8271TIP3   OH246227   3.919   5.675   5.835 -0.5753 -0.2857 -0.2748
 8271TIP3    H146228   3.850   5.736   5.862  0.6414 -0.0215  2.4363
 8271TIP3    H246229   3.887   5.589   5.864 -0.9507 -0.5363 -1.4145
 8272TIP3   OH246230   0.718   4.281  16.252  0.0310  0.1610  0.1074
 8272TIP3    H146231   0.743   4.226  16.177 -0.3107  0.8422 -0.5103
 8272TIP3    H246232   0.783   4.259  16.319 -0.1169 -1.0132 -0.1208
 8273TIP3   OH246233   1.436   5.533  14.979 -0.2935  0.3661  0.4321
 8273TIP3    H146234   1.475   5.566  15.059  0.0031  2.1601 -0.4189
 8273TIP3    H246235   1.358   5.587  14.966 -0.0360  0.4806 -0.7653
 8274TIP3   OH246236   1.773   0.982   5.343 -0.3197  0.2865 -0.0891
 8274TIP3    H146237   1.698   0.983   5.403 -0.0404  0.4293  0.2567
 8274TIP3    H246238   1.849   0.992   5.400  0.0511 -1.1668 -0.3067
 8275TIP3   OH246239   1.221   2.338  13.197 -0.4563  0.3958 -0.2336
 8275TIP3    H146240   1.136   2.304  13.227  0.3096 -0.8304  0.6113
 8275TIP3    H246241   1.209   2.433  13.193 -1.5459  0.3231  0.8927
 8276TIP3   OH246242   6.518   2.640  15.374  0.5277  0.1072  0.2947
 8276TIP3    H146243   6.567   2.717  15.345  2.4270 -2.3799 -3.5151
 8276TIP3    H246244   6.435   2.646  15.327 -1.3372  2.1321  3.5853
 8277TIP3   OH246245   1.947   1.001   2.379  0.3260  0.6248 -0.4636
 8277TIP3    H146246   2.032   1.041   2.400  0.9818 -0.8212 -0.3160
 8277TIP3    H246247   1.969   0.925   2.325 -0.8990  0.4260 -0.6924
 8278TIP3   OH246248   5.542   4.971   3.744 -0.3123  0.2181  0.0253
 8278TIP3    H146249   5.519   4.950   3.653 -2.2148  0.6528  0.3958
 8278TIP3    H246250   5.484   5.043   3.767  0.5252  0.4512  1.4270
 8279TIP3   OH246251   3.635   3.396   3.501  0.0562 -0.0675 -0.5223
 8279TIP3    H146252   3.592   3.475   3.466 -0.6237 -0.0808  0.2743
 8279TIP3    H246253   3.563   3.341   3.530  0.5781 -0.5424 -0.1296
 8280TIP3   OH246254   4.043   5.590   0.922 -0.2027 -0.4942  0.5898
 8280TIP3    H146255   3.960   5.575   0.967  0.2114 -0.8125  1.2581
 8280TIP3    H246256   4.037   5.680   0.890 -0.9702 -0.6538  0.2737
 8281TIP3   OH246257   0.295   3.577   5.816  0.1141  0.0825 -0.4373
 8281TIP3    H146258   0.334   3.495   5.784  0.1989 -0.2447  0.4803
 8281TIP3    H246259   0.353   3.605   5.887 -1.8336 -0.9285  1.6137
 8282TIP3   OH246260   1.634   0.311  14.728  0.4576  0.5716  0.1217
 8282TIP3    H146261   1.688   0.255  14.672  2.4329  2.4835  0.0524
 8282TIP3    H246262   1.664   0.292  14.817 -0.4538 -0.1014  0.3020
 8283TIP3   OH246263   4.108   0.959   1.323  0.2416 -0.8656 -0.3043
 8283TIP3    H146264   4.125   1.037   1.375  3.3082 -1.5825 -0.1603
 8283TIP3    H246265   4.130   0.984   1.233 -0.4789 -1.0428 -0.5356
 8284TIP3   OH246266   1.324   2.890   3.835 -0.4943 -0.6799 -0.0745
 8284TIP3    H146267   1.338   2.852   3.921 -0.8627 -0.1993  0.2003
 8284TIP3    H246268   1.302   2.815   3.779  0.3639 -1.0683  0.1039
 8285TIP3   OH246269   1.528   4.949  12.714  0.5297  0.5437  0.1478
 8285TIP3    H146270   1.479   4.867  12.706 -1.2024  1.4336  1.4944
 8285TIP3    H246271   1.577   4.940  12.796 -0.5648  1.3067  0.9021
 8286TIP3   OH246272   1.676   4.066  15.399 -0.5116 -0.0369 -0.0983
 8286TIP3    H146273   1.599   4.029  15.442 -0.5995  0.4114  0.1357
 8286TIP3    H246274   1.641   4.129  15.337 -0.3275  0.2263  0.0659
 8287TIP3   OH246275   1.219   2.115  16.040  0.1709  0.0340 -0.0468
 8287TIP3    H146276   1.170   2.124  15.958  0.7955  0.0942 -0.4204
 8287TIP3    H246277   1.187   2.034  16.079 -2.0924  1.3791  0.9983
 8288TIP3   OH246278   1.157   1.172   2.186 -0.7455 -0.6333 -0.4556
 8288TIP3    H146279   1.192   1.253   2.149 -0.9794 -0.1001  0.4735
 8288TIP3    H246280   1.216   1.103   2.153 -0.0580  0.0099 -0.5899
 8289TIP3   OH246281   6.117   4.825   4.243  0.2878 -0.3030  0.1473
 8289TIP3    H146282   6.123   4.730   4.254  0.2963 -0.1806  1.2011
 8289TIP3    H246283   6.048   4.837   4.177 -0.8592 -0.9650  1.2144
 8290TIP3   OH246284   5.625   5.126  14.390  0.6649 -0.3090 -0.1023
 8290TIP3    H146285   5.552   5.098  14.336  0.5335 -0.8340  0.3432
 8290TIP3    H246286   5.599   5.212  14.424 -0.3025 -1.0414  1.0738
 8291TIP3   OH246287   3.381   3.931  13.497  0.2726 -0.4614  0.0022
 8291TIP3    H146288   3.335   4.003  13.454  1.2461 -0.6210 -1.3352
 8291TIP3    H246289   3.385   3.957  13.589  0.0307  0.8846 -0.3608
 8292TIP3   OH246290   5.755   3.268  12.868  0.3973  0.3087 -0.1986
 8292TIP3    H146291   5.720   3.312  12.945  0.2195  1.4331 -0.9124
 8292TIP3    H246292   5.760   3.176  12.893  1.6793  0.8551  1.6589
 8293TIP3   OH246293   3.851   3.774   3.821  0.0706 -0.1505  0.1655
 8293TIP3    H146294   3.798   3.747   3.897 -0.1594  1.8934  0.7743
 8293TIP3    H246295   3.934   3.728   3.832 -0.8268 -1.7849  0.3170
 8294TIP3   OH246296   5.528   0.359   3.578 -0.0232 -0.3972 -0.0728
 8294TIP3    H146297   5.582   0.322   3.508  1.2171  0.9637  0.1396
 8294TIP3    H246298   5.584   0.359   3.655 -1.4468 -2.0566  1.0056
 8295TIP3   OH246299   0.708   1.818   2.390 -0.4297  0.1704  0.4078
 8295TIP3    H146300   0.668   1.746   2.341  1.6685  0.5909 -2.0468
 8295TIP3    H246301   0.780   1.777   2.438 -1.7249 -0.0211  2.2481
 8296TIP3   OH246302   3.679   6.604   1.722  0.0433 -0.4389 -0.6161
 8296TIP3    H146303   3.615   6.579   1.656  1.1506  0.6247 -2.1254
 8296TIP3    H246304   3.703   6.694   1.700  2.7057 -1.0964 -0.6270
 8297TIP3   OH246305   5.518   0.943  11.608 -0.3430  0.8366 -0.4443
 8297TIP3    H146306   5.613   0.926  11.608 -0.2649  1.2573 -0.2343
 8297TIP3    H246307   5.511   1.039  11.615 -0.7963  0.6907  1.2124
 8298TIP3   OH246308   3.569   1.459   0.484 -0.3485 -0.1242 -0.4252
 8298TIP3    H146309   3.545   1.550   0.501 -0.2927 -0.1423 -0.2523
 8298TIP3    H246310   3.664   1.457   0.492 -0.5369 -0.7487  2.2699
 8299TIP3   OH246311   5.276   1.973   2.434  0.3306  0.0937  0.1872
 8299TIP3    H146312   5.274   2.048   2.374 -1.9485 -1.5198 -1.8071
 8299TIP3    H246313   5.360   1.981   2.479  1.3530  2.2810 -2.0247
 8300TIP3   OH246314   1.410   6.102  13.260  0.1957 -0.0054 -0.1827
 8300TIP3    H146315   1.414   6.155  13.180  1.4618  2.7468  1.6158
 8300TIP3    H246316   1.318   6.107  13.287 -0.2556 -1.0047 -1.4583
 8301TIP3   OH246317   5.250   5.550   2.528  0.7633  0.0004 -0.3123
 8301TIP3    H146318   5.255   5.538   2.433 -0.8009  0.0004 -0.4039
 8301TIP3    H246319   5.332   5.594   2.551  0.9635  0.3868 -1.7249
 8302TIP3   OH246320   5.095   1.706   6.131  0.5180  0.2369 -0.4406
 8302TIP3    H146321   5.042   1.783   6.112  1.1882  0.7663 -0.1604
 8302TIP3    H246322   5.157   1.734   6.198  0.5638 -0.6312 -0.1072
 8303TIP3   OH246323   4.389   0.161   3.982 -0.1024 -0.5831 -0.1759
 8303TIP3    H146324   4.425   0.072   3.986  0.2796 -0.4966 -1.5448
 8303TIP3    H246325   4.321   0.163   4.050  2.0208 -0.9482  2.0470
 8304TIP3   OH246326   5.037   2.754  14.129 -0.3908 -0.0509 -0.0421
 8304TIP3    H146327   5.011   2.844  14.111 -0.1579  0.0340  0.0465
 8304TIP3    H246328   5.131   2.759  14.145 -0.2411 -0.4110 -0.7676
 8305TIP3   OH246329   1.143   3.040   0.205  0.3387 -0.7681  0.0730
 8305TIP3    H146330   1.173   3.112   0.261 -0.8350  0.1872 -0.4978
 8305TIP3    H246331   1.223   2.993   0.181  1.1265  0.3696  0.4230
 8306TIP3   OH246332   3.853   6.340   6.009 -0.2243  0.5367 -0.0422
 8306TIP3    H146333   3.826   6.251   5.986  0.7090  0.0308  0.7588
 8306TIP3    H246334   3.917   6.363   5.941 -0.8482  0.7919 -0.5421
 8307TIP3   OH246335   3.410   2.827   4.419  0.2551 -0.2230 -0.5640
 8307TIP3    H146336   3.330   2.871   4.446  0.4310  0.7214 -1.5478
 8307TIP3    H246337   3.405   2.824   4.323  1.2967 -0.3295 -0.6247
 8308TIP3   OH246338   0.360   3.905   5.083 -0.5633 -0.3837  0.1439
 8308TIP3    H146339   0.269   3.892   5.110 -0.8983 -0.7123 -1.0788
 8308TIP3    H246340   0.387   3.986   5.127 -1.3383 -0.4757  0.7926
 8309TIP3   OH246341   6.670   2.242   3.099  0.3581  0.2976  0.4820
 8309TIP3    H146342   6.623   2.185   3.160 -2.1630 -0.1993 -1.8012
 8309TIP3    H246343   6.725   2.182   3.048  1.9166  0.6225  1.7605
 8310TIP3   OH246344   1.369   4.249  11.383  0.8131  0.0369  0.0982
 8310TIP3    H146345   1.388   4.333  11.340  2.3862 -0.8346 -0.9692
 8310TIP3    H246346   1.373   4.270  11.477  0.0589  1.3931 -0.1582
 8311TIP3   OH246347   2.829   3.348   2.732 -0.0770 -0.4239  0.8990
 8311TIP3    H146348   2.837   3.318   2.641 -1.9227  0.6607  0.3657
 8311TIP3    H246349   2.853   3.272   2.784 -2.7855 -2.2853 -0.4608
 8312TIP3   OH246350   6.436   6.035  14.586  0.0171  0.4431 -0.1824
 8312TIP3    H146351   6.520   5.992  14.566 -0.2911  0.8535 -2.5672
 8312TIP3    H246352   6.416   6.009  14.676  3.1196  1.0073  0.7428
 8313TIP3   OH246353   4.811   1.516  12.750  0.8266  0.2260 -0.3418
 8313TIP3    H146354   4.751   1.470  12.809 -0.2751  0.2770 -1.4040
 8313TIP3    H246355   4.868   1.566  12.808  0.3540 -0.4396  0.7176
 8314TIP3   OH246356   2.631   4.208   4.173 -0.2081 -0.2994 -0.2600
 8314TIP3    H146357   2.544   4.204   4.212  0.3836 -1.5350  0.9764
 8314TIP3    H246358   2.689   4.227   4.247  0.5548  0.7096 -1.1028
 8315TIP3   OH246359   2.227   5.943  13.470  0.3705 -0.1072  0.1983
 8315TIP3    H146360   2.199   6.033  13.457 -0.5265 -0.3578  0.4043
 8315TIP3    H246361   2.193   5.919  13.556  1.6804 -0.2360  0.6993
 8316TIP3   OH246362   0.543   3.923   5.547  0.2423  0.3166 -0.1829
 8316TIP3    H146363   0.506   3.838   5.573  0.6405 -0.7931 -3.0001
 8316TIP3    H246364   0.467   3.976   5.524 -0.0547  1.0121  2.3043
 8317TIP3   OH246365   3.491   4.481   2.497  0.3750 -0.6929 -0.0144
 8317TIP3    H146366   3.407   4.465   2.454  0.0672 -0.6824  0.5795
 8317TIP3    H246367   3.528   4.556   2.449 -0.1018 -0.4843 -0.0656
 8318TIP3   OH246368   1.307   2.148   2.622 -0.6800 -0.5104 -0.2031
 8318TIP3    H146369   1.229   2.127   2.674  0.0806 -3.1377 -0.0557
 8318TIP3    H246370   1.291   2.107   2.537  0.4222 -0.8590 -0.2481
 8319TIP3   OH246371   1.238   2.865   1.771 -0.2936  0.2925  0.1699
 8319TIP3    H146372   1.189   2.940   1.805 -3.4229 -1.7807  0.4749
 8319TIP3    H246373   1.174   2.818   1.718  1.0076 -3.2920  1.6693
 8320TIP3   OH246374   2.768   3.760   4.534  0.1725 -0.2478 -0.1174
 8320TIP3    H146375   2.860   3.783   4.523 -0.1692  1.9542  1.4138
 8320TIP3    H246376   2.737   3.740   4.445  0.9179  3.7210 -1.3852
 8321TIP3   OH246377   4.414   5.935  15.592 -0.1206  0.2718 -0.0298
 8321TIP3    H146378   4.359   5.864  15.559  1.3023 -0.5822 -0.5661
 8321TIP3    H246379   4.418   5.920  15.687 -1.6246  0.9265  0.1575
 8322TIP3   OH246380   0.933   2.104   3.120 -0.7158  0.9382 -0.7538
 8322TIP3    H146381   0.866   2.092   3.053 -1.6709 -0.6746  0.4480
 8322TIP3    H246382   0.896   2.167   3.181 -1.1754 -0.0077 -0.0512
 8323TIP3   OH246383   4.646   2.519  16.273  0.0243  1.2074  0.7223
 8323TIP3    H146384   4.648   2.590  16.338  0.1651  1.8741 -0.0106
 8323TIP3    H246385   4.688   2.445  16.318  1.3851  2.0758  0.9079
 8324TIP3   OH246386   0.149   5.484  12.543  0.4213  0.3599 -0.1661
 8324TIP3    H146387   0.215   5.547  12.513  1.3523 -1.2656 -1.6849
 8324TIP3    H246388   0.141   5.422  12.470 -0.9935 -0.8505  0.9911
 8325TIP3   OH246389   3.342   2.656  11.299  0.0647  0.7586 -0.5784
 8325TIP3    H146390   3.377   2.743  11.321 -0.3404  0.8084 -0.1264
 8325TIP3    H246391   3.256   2.675  11.261  0.1561  0.5786 -0.8766
 8326TIP3   OH246392   4.332   1.715  11.996 -0.1312  0.3283  0.1612
 8326TIP3    H146393   4.348   1.620  11.989  0.8402  0.4987 -0.0268
 8326TIP3    H246394   4.330   1.732  12.090  3.0899  0.6510  0.2189
 8327TIP3   OH246395   2.614   2.928   6.290 -0.6390  0.2145  0.0879
 8327TIP3    H146396   2.666   2.853   6.319 -1.8271 -0.0014  1.7088
 8327TIP3    H246397   2.661   3.004   6.324  0.4309  0.2232 -1.3443
 8328TIP3   OH246398   1.011   2.962   4.988 -0.2481  0.0361  0.0628
 8328TIP3    H146399   1.099   2.955   5.027  0.1395  5.0848  0.5127
 8328TIP3    H246400   0.955   2.910   5.046  1.9665 -0.7576  1.5695
 8329TIP3   OH246401   1.352   2.739   5.704 -0.1140 -0.0398 -0.4225
 8329TIP3    H146402   1.262   2.706   5.703 -0.6551  1.3154  0.8600
 8329TIP3    H246403   1.406   2.663   5.683 -1.5248 -0.9892 -0.6774
 8330TIP3   OH246404   4.327   1.281   3.739  0.7286 -0.0511  0.0277
 8330TIP3    H146405   4.332   1.186   3.739  0.1757 -0.0833 -0.0567
 8330TIP3    H246406   4.259   1.302   3.803 -0.0402  0.2259 -0.8666
 8331TIP3   OH246407   0.614   5.593  16.752  0.1991 -0.6766 -0.5366
 8331TIP3    H146408   0.659   5.613  16.834 -2.5424  0.1503  0.8445
 8331TIP3    H246409   0.651   5.655  16.689 -0.0489  1.0195  0.9204
 8332TIP3   OH246410   4.888   2.497   0.546  0.0845 -0.6158 -0.6407
 8332TIP3    H146411   4.968   2.444   0.547 -0.6512 -1.7753  1.4937
 8332TIP3    H246412   4.917   2.586   0.564  0.9359 -0.9936 -0.1266
 8333TIP3   OH246413   0.656   2.099  12.916 -0.2144  0.2928  0.0021
 8333TIP3    H146414   0.577   2.108  12.863 -0.2910  0.1544  0.0936
 8333TIP3    H246415   0.720   2.154  12.871  0.2046 -1.1142 -1.2005
 8334TIP3   OH246416   2.963   0.293  15.315 -0.4826 -0.1617 -0.2667
 8334TIP3    H146417   3.030   0.340  15.266 -1.3250  0.8052 -0.4904
 8334TIP3    H246418   2.983   0.312  15.407  0.4914 -1.1635 -0.2562
 8335TIP3   OH246419   0.817   6.440   0.809 -0.4300  0.1490 -0.0833
 8335TIP3    H146420   0.824   6.383   0.886 -1.3496 -1.1060 -0.9013
 8335TIP3    H246421   0.881   6.510   0.825  1.6116 -1.7527  0.4040
 8336TIP3   OH246422   3.832   1.754  17.012 -0.3964 -0.6986  0.7704
 8336TIP3    H146423   3.778   1.805  16.951  0.5689  0.9219  1.2452
 8336TIP3    H246424   3.900   1.715  16.957 -0.7105 -0.9045  0.5219
 8337TIP3   OH246425   2.501   4.616  11.015 -0.1846 -0.2365  0.0878
 8337TIP3    H146426   2.513   4.625  10.920 -0.0492  0.1961  0.1409
 8337TIP3    H246427   2.578   4.569  11.045  0.9986  1.7574  0.3100
 8338TIP3   OH246428   4.331   4.813  16.196 -0.6783  0.2481 -0.0482
 8338TIP3    H146429   4.379   4.866  16.260 -2.2932  1.7477 -0.0428
 8338TIP3    H246430   4.242   4.847  16.199 -2.0003 -3.1267  0.6381
 8339TIP3   OH246431   5.157   6.612  14.570 -0.2265 -0.4616 -0.2955
 8339TIP3    H146432   5.125   6.664  14.644  1.8138  0.8322 -0.2936
 8339TIP3    H246433   5.247   6.590  14.593  0.4444 -0.0071 -2.4298
 8340TIP3   OH246434   0.919   5.703   1.755  0.0636 -0.6781 -0.1961
 8340TIP3    H146435   0.982   5.641   1.717  0.2351 -0.2184 -0.6748
 8340TIP3    H246436   0.859   5.649   1.806 -1.0247 -1.4967 -2.2680
 8341TIP3   OH246437   3.594   3.042  15.410  0.3441  0.2424 -0.2113
 8341TIP3    H146438   3.520   3.097  15.437 -0.9572 -0.8911 -1.3383
 8341TIP3    H246439   3.569   3.011  15.323  1.4142 -1.4784  0.0694
 8342TIP3   OH246440   3.444   0.219  14.248 -0.4358  0.4445  0.7774
 8342TIP3    H146441   3.412   0.188  14.163 -0.0299 -0.0924  0.8174
 8342TIP3    H246442   3.383   0.290  14.271  0.0129  1.2395 -0.3989
 8343TIP3   OH246443   1.861   3.083   3.426 -0.3905 -0.2561 -0.0292
 8343TIP3    H146444   1.808   3.003   3.419 -0.5962 -0.1352  0.1142
 8343TIP3    H246445   1.951   3.053   3.418 -0.4183 -0.6227  0.9216
 8344TIP3   OH246446   2.860   5.160  11.744  0.1588 -0.3290 -0.3088
 8344TIP3    H146447   2.895   5.175  11.656 -0.6019  0.0275 -0.5537
 8344TIP3    H246448   2.914   5.090  11.780  2.1348  1.2300 -0.1048
 8345TIP3   OH246449   2.889   4.339   3.286  0.0029 -0.7035  0.2355
 8345TIP3    H146450   2.923   4.394   3.216  0.1286 -0.5382  0.4264
 8345TIP3    H246451   2.799   4.319   3.259 -0.4994  0.7163  0.8251
 8346TIP3   OH246452   0.235   0.383   1.860  0.2986 -0.0098  0.6775
 8346TIP3    H146453   0.174   0.378   1.787  0.1704 -1.4616  0.8730
 8346TIP3    H246454   0.187   0.429   1.929 -1.0179 -2.1744  1.2456
 8347TIP3   OH246455   0.159   2.658   4.956 -0.4708  0.1500  0.1814
 8347TIP3    H146456   0.156   2.570   4.993  0.1045 -0.2127 -0.6052
 8347TIP3    H246457   0.097   2.708   5.008  0.1517 -0.3962  1.4837
 8348TIP3   OH246458   2.026   5.695   0.692  0.0644  0.1812  0.2711
 8348TIP3    H146459   2.057   5.624   0.636  1.7225  1.5717 -0.6364
 8348TIP3    H246460   2.105   5.746   0.711 -1.1945  2.1411  0.3841
 8349TIP3   OH246461   6.726   3.400   2.366  0.0369 -0.0456 -0.5128
 8349TIP3    H146462   6.686   3.353   2.440  1.2315  3.1612  2.2796
 8349TIP3    H246463   6.815   3.364   2.360  1.3336  2.5026  2.3526
 8350TIP3   OH246464   5.013   4.316  15.585 -0.2256  0.6699 -0.8098
 8350TIP3    H146465   4.919   4.301  15.575 -0.0933  0.2432 -1.4199
 8350TIP3    H246466   5.051   4.281  15.505  0.4803  0.6049 -0.4417
 8351TIP3   OH246467   4.032   1.192   1.543  0.0405 -0.4480  0.1063
 8351TIP3    H146468   3.995   1.225   1.625 -2.5155 -2.9036  0.0140
 8351TIP3    H246469   4.103   1.134   1.570  1.1072  0.9966  0.4480
 8352TIP3   OH246470   4.703   2.061   5.981 -0.2864 -0.3433  0.0008
 8352TIP3    H146471   4.611   2.046   6.003 -0.1754 -0.7487  0.1924
 8352TIP3    H246472   4.752   2.013   6.047  0.0835  0.7242  0.5151
 8353TIP3   OH246473   3.848   1.025  16.434 -0.0356 -0.5999  0.4384
 8353TIP3    H146474   3.794   1.099  16.407 -1.5864 -1.3186  1.4898
 8353TIP3    H246475   3.845   0.964  16.360  1.3766  0.4219 -0.4952
 8354TIP3   OH246476   3.159   5.481   3.679 -0.2073 -0.1568 -0.2409
 8354TIP3    H146477   3.083   5.448   3.727  0.8526 -0.3161  1.3887
 8354TIP3    H246478   3.154   5.439   3.594 -1.3360 -1.0521  0.2550
 8355TIP3   OH246479   0.091   0.950  10.673 -0.0041  0.3130  0.0924
 8355TIP3    H146480   0.046   0.884  10.620 -0.5537  0.1554  0.7477
 8355TIP3    H246481   0.023   1.011  10.699  0.4093  0.8338 -0.0519
 8356TIP3   OH246482   3.726   4.753   3.280 -0.1180  0.4005  0.3571
 8356TIP3    H146483   3.676   4.805   3.217  0.4767  1.5880  0.8390
 8356TIP3    H246484   3.689   4.777   3.365  1.5227  1.6357  0.7611
 8357TIP3   OH246485   3.442   4.707  13.705 -0.3459 -0.5332 -0.5707
 8357TIP3    H146486   3.510   4.696  13.638 -0.9760  0.2862 -1.3572
 8357TIP3    H246487   3.400   4.790  13.683  1.6073  1.5009  2.7889
 8358TIP3   OH246488   0.050   5.664  13.854  0.4506  0.2968 -0.1397
 8358TIP3    H146489   0.050   5.747  13.901  0.3307 -0.5035  1.2924
 8358TIP3    H246490  -0.043   5.640  13.847  0.1009  2.3293 -4.3049
 8359TIP3   OH246491   4.919   1.361  12.324 -1.3287 -0.2140 -0.1193
 8359TIP3    H146492   4.902   1.419  12.250  0.0060  0.2343 -0.1003
 8359TIP3    H246493   4.838   1.313  12.337 -1.5018 -0.4425 -1.9992
 8360TIP3   OH246494   3.081   5.299  11.933 -0.0761  0.1610  0.3520
 8360TIP3    H146495   3.071   5.364  11.864 -0.4409  1.7122  1.8371
 8360TIP3    H246496   2.995   5.294  11.974  0.3834 -0.0504  1.3047
 8361TIP3   OH246497   4.182   2.966  13.759 -0.0944 -0.6598  0.4231
 8361TIP3    H146498   4.155   3.042  13.708 -1.9903 -0.3846  1.7664
 8361TIP3    H246499   4.179   2.893  13.698  0.9719  0.2173 -0.6854
 8362TIP3   OH246500   3.990   3.871   4.217 -0.2737  0.2755  0.4950
 8362TIP3    H146501   4.061   3.858   4.281 -0.4925 -0.1246  0.6637
 8362TIP3    H246502   4.002   3.960   4.185  0.6300  0.0280  0.1301
 8363TIP3   OH246503   3.165   2.217  13.784 -0.4176  0.4850  0.7296
 8363TIP3    H146504   3.077   2.208  13.821 -0.3606 -0.8371  0.5672
 8363TIP3    H246505   3.216   2.148  13.826  0.5750  1.2886  0.8802
 8364TIP3   OH246506   5.840   0.450   3.690  0.1248 -0.2323  0.3834
 8364TIP3    H146507   5.861   0.437   3.782 -0.1015 -0.1430  0.4484
 8364TIP3    H246508   5.830   0.544   3.680 -0.1863 -0.2657  0.3449
 8365TIP3   OH246509   5.174   6.380   2.133  0.8058  0.1861 -0.1355
 8365TIP3    H146510   5.085   6.413   2.115 -0.0880 -2.0585  0.0113
 8365TIP3    H246511   5.207   6.351   2.048  0.2681 -1.6209  0.2504
 8366TIP3   OH246512   4.353   3.349  12.412  0.4697 -0.0145  0.1207
 8366TIP3    H146513   4.387   3.263  12.389 -0.2303 -1.3871  3.7590
 8366TIP3    H246514   4.429   3.406  12.411  1.1772 -0.9503 -1.0579
 8367TIP3   OH246515   6.438   3.708   0.387 -0.2569  0.0564  0.1115
 8367TIP3    H146516   6.380   3.777   0.422 -0.1486 -0.4199  1.2496
 8367TIP3    H246517   6.504   3.756   0.336 -0.6399  0.7334  0.2376
 8368TIP3   OH246518   4.786   3.099  11.008  0.1206  0.2161  0.0214
 8368TIP3    H146519   4.726   3.029  10.981  0.8175 -0.2841 -0.2705
 8368TIP3    H246520   4.773   3.168  10.944 -0.6639  0.4064  0.3836
 8369TIP3   OH246521   4.497   1.581   4.595  0.3827  0.1479 -0.5006
 8369TIP3    H146522   4.496   1.628   4.678 -3.8688 -1.0892  0.2787
 8369TIP3    H246523   4.578   1.530   4.596 -0.2778 -0.9392  3.5569
 8370TIP3   OH246524   0.835   6.347  15.706  0.0049  0.1384  0.1401
 8370TIP3    H146525   0.795   6.408  15.644 -3.6003 -1.4170  0.7945
 8370TIP3    H246526   0.821   6.388  15.791 -1.4588 -1.0410  0.4857
 8371TIP3   OH246527   3.445   6.400   0.422  0.2111  0.0720 -0.4105
 8371TIP3    H146528   3.388   6.478   0.427 -2.5247 -1.7844 -1.3504
 8371TIP3    H246529   3.518   6.428   0.367  0.5433  2.7108  1.2874
 8372TIP3   OH246530   6.012   1.639   3.338  0.8123  0.0448 -0.4077
 8372TIP3    H146531   5.943   1.574   3.349 -2.0225  3.0423  0.1472
 8372TIP3    H246532   6.046   1.654   3.427 -1.5387  2.3861  0.1776
 8373TIP3   OH246533   5.822   1.490   3.766  0.2204 -0.4865  0.2594
 8373TIP3    H146534   5.871   1.514   3.844  0.5763 -0.3710  0.0008
 8373TIP3    H246535   5.740   1.454   3.799  1.0734 -2.0365  0.7423
 8374TIP3   OH246536   5.827   4.518  16.055  0.3828 -0.0524 -0.0603
 8374TIP3    H146537   5.903   4.488  16.104  1.0812  0.0760 -1.0317
 8374TIP3    H246538   5.837   4.477  15.969  0.5925  1.7775 -0.9475
 8375TIP3   OH246539   2.281   0.914  15.998  0.1712 -0.0188  0.5861
 8375TIP3    H146540   2.304   0.841  16.056  0.4753  0.4256  1.0214
 8375TIP3    H246541   2.270   0.989  16.057 -0.8802  0.1239  0.2246
 8376TIP3   OH246542   1.189   1.446   3.067  0.1375 -0.4076 -0.2231
 8376TIP3    H146543   1.101   1.412   3.051  0.4275 -0.6766 -1.2121
 8376TIP3    H246544   1.174   1.520   3.127 -0.5979 -1.4848  0.9632
 8377TIP3   OH246545   1.323   0.951  11.212 -0.0168 -0.3002 -0.1753
 8377TIP3    H146546   1.364   0.996  11.286 -2.7042  1.2284  0.4539
 8377TIP3    H246547   1.359   0.995  11.135  0.6464  0.0229  0.3118
 8378TIP3   OH246548   5.124   0.137  12.058  0.0190 -0.3828 -0.7042
 8378TIP3    H146549   5.137   0.229  12.034  0.9907 -0.0252  1.1383
 8378TIP3    H246550   5.205   0.093  12.033 -0.9802 -1.0799 -2.9452
 8379TIP3   OH246551   5.614   4.216  13.048  0.2464 -0.3014  0.4252
 8379TIP3    H146552   5.679   4.168  12.997  0.2209  0.5928 -0.4472
 8379TIP3    H246553   5.642   4.204  13.139  1.0766 -0.7369  0.1164
 8380TIP3   OH246554   0.631   4.110  16.676 -0.3545  0.3709 -0.2626
 8380TIP3    H146555   0.668   4.051  16.611  2.0721  0.8291  0.6400
 8380TIP3    H246556   0.679   4.192  16.665 -1.3173  1.0944  0.7489
 8381TIP3   OH246557   4.539   3.901   2.494  0.5407  0.4824  0.0183
 8381TIP3    H146558   4.544   3.983   2.444 -1.4071  1.7197  1.7907
 8381TIP3    H246559   4.467   3.853   2.454 -1.4416  1.7554  1.9879
 8382TIP3   OH246560   4.605   5.164   5.334 -0.6977 -0.6131  0.4764
 8382TIP3    H146561   4.667   5.098   5.303 -2.1154 -1.4126 -0.7411
 8382TIP3    H246562   4.646   5.202   5.411  0.5415 -2.3079  0.6684
 8383TIP3   OH246563   4.350   3.864  13.900  0.1142  0.3703  0.7709
 8383TIP3    H146564   4.339   3.934  13.965  0.2171  0.0271  1.1586
 8383TIP3    H246565   4.279   3.802  13.919 -2.7746  2.5262 -2.3851
 8384TIP3   OH246566   1.079   1.692  17.042  0.1943 -0.2298 -0.0580
 8384TIP3    H146567   1.125   1.610  17.060 -2.1072 -1.1069  2.0473
 8384TIP3    H246568   1.112   1.753  17.108  0.4665 -0.0108 -0.3932
 8385TIP3   OH246569   0.391   4.698  11.440 -0.3910 -0.0772  0.2119
 8385TIP3    H146570   0.444   4.620  11.452  1.5629  1.0846 -0.6026
 8385TIP3    H246571   0.430   4.764  11.497  0.1486  1.3016 -1.7014
 8386TIP3   OH246572   0.952   3.184   0.949 -0.0644 -0.4166  0.2664
 8386TIP3    H146573   1.047   3.176   0.961 -0.1652 -2.5332 -0.1334
 8386TIP3    H246574   0.937   3.154   0.859 -1.1612 -0.6407  0.5169
 8387TIP3   OH246575   0.550   1.451  10.877 -0.0395 -0.4633 -0.0188
 8387TIP3    H146576   0.646   1.448  10.878  0.0054  0.7751  1.0591
 8387TIP3    H246577   0.526   1.416  10.792  1.5015  1.7130 -1.4150
 8388TIP3   OH246578   1.046   5.134   3.690  0.1800 -0.1511  0.1625
 8388TIP3    H146579   1.075   5.088   3.768 -1.0718 -1.3771 -0.0774
 8388TIP3    H246580   0.953   5.114   3.683  0.1826  0.2893 -1.3965
 8389TIP3   OH246581   5.831   4.860  16.000  0.2903  0.0398  0.3453
 8389TIP3    H146582   5.817   4.842  16.093  1.7445 -2.9670  0.0395
 8389TIP3    H246583   5.747   4.838  15.959  0.2159 -0.4296  0.7387
 8390TIP3   OH246584   0.361   1.574   3.856 -0.1338 -0.2852 -0.1287
 8390TIP3    H146585   0.295   1.541   3.917 -0.3361  0.2960 -0.0251
 8390TIP3    H246586   0.348   1.523   3.776  0.4611 -1.3971  0.4754
 8391TIP3   OH246587   5.981   5.279  12.464  0.2791 -0.4178  0.2591
 8391TIP3    H146588   5.962   5.306  12.553  1.4933  0.9308  0.1096
 8391TIP3    H246589   5.941   5.192  12.457 -1.1537  0.1126  1.6185
 8392TIP3   OH246590   0.151   1.830   1.299 -0.0387  0.7509  0.0587
 8392TIP3    H146591   0.103   1.848   1.218 -1.8324  1.6243  1.2908
 8392TIP3    H246592   0.225   1.776   1.271 -0.8591  0.6955 -2.1095
 8393TIP3   OH246593   0.318   4.304   5.770  0.3259  0.1615  0.0757
 8393TIP3    H146594   0.393   4.285   5.714 -0.2230  2.1846 -1.3985
 8393TIP3    H246595   0.356   4.331   5.853  1.2365  0.9826 -0.5956
 8394TIP3   OH246596   0.132   2.663   3.628 -0.0640 -0.0679  0.0747
 8394TIP3    H146597   0.099   2.682   3.540 -1.1469 -0.6866  0.3311
 8394TIP3    H246598   0.216   2.709   3.633 -0.1999  0.3312 -1.1236
 8395TIP3   OH246599   0.202   1.456  14.826  0.6172  0.3476  0.4086
 8395TIP3    H146600   0.140   1.415  14.887  0.8620 -0.1549  0.3184
 8395TIP3    H246601   0.230   1.385  14.768  0.3365  0.8371 -0.3324
 8396TIP3   OH246602   3.390   2.520  16.984 -0.3234  0.4125 -0.0128
 8396TIP3    H146603   3.385   2.426  17.002  0.1710  0.3575 -0.1663
 8396TIP3    H246604   3.421   2.558  17.067  0.8179  0.2852 -0.3655
 8397TIP3   OH246605   4.522   5.588  12.505  0.2585  0.4340  0.4528
 8397TIP3    H146606   4.529   5.643  12.427 -1.0219  0.6546  0.4748
 8397TIP3    H246607   4.577   5.631  12.570  1.4447  0.1754 -0.3622
 8398TIP3   OH246608   2.208   4.377  14.031 -0.4285  0.1791  0.6048
 8398TIP3    H146609   2.228   4.392  13.939 -3.2635 -1.2650 -0.2931
 8398TIP3    H246610   2.243   4.290  14.050  1.1394  0.9234  1.2325
 8399TIP3   OH246611   0.891   3.304  14.214 -0.3825 -0.0371  0.0820
 8399TIP3    H146612   0.843   3.346  14.143 -3.0240  1.3670  2.5710
 8399TIP3    H246613   0.972   3.354  14.220 -1.7061  2.1461  0.3316
 8400TIP3   OH246614   6.274   1.761   4.402 -0.0042 -0.0427 -0.5218
 8400TIP3    H146615   6.194   1.811   4.393  0.5027  0.8394 -0.1708
 8400TIP3    H246616   6.289   1.724   4.315 -0.6125  0.0532 -0.6688
 8401TIP3   OH246617   3.576   4.681  13.462  0.7434  0.5414 -0.3419
 8401TIP3    H146618   3.505   4.715  13.408 -0.0266 -0.6064 -0.0872
 8401TIP3    H246619   3.656   4.708  13.418  0.1281  0.6780 -1.3737
 8402TIP3   OH246620   2.555   1.227  12.728  0.3000 -0.2420  0.2744
 8402TIP3    H146621   2.470   1.187  12.712  0.5590 -1.0520  0.8641
 8402TIP3    H246622   2.584   1.258  12.642 -1.3609  1.6423  0.3536
 8403TIP3   OH246623   6.212   6.561   2.482 -0.6955 -0.5365 -0.0389
 8403TIP3    H146624   6.221   6.515   2.398 -1.8590 -1.8860  0.5567
 8403TIP3    H246625   6.148   6.510   2.530  0.7632 -0.3958  2.1048
 8404TIP3   OH246626   6.462   6.506  17.026  0.3454 -0.0015 -0.3815
 8404TIP3    H146627   6.381   6.532  17.069  0.3796  0.1706 -0.4229
 8404TIP3    H246628   6.519   6.582  17.034 -0.3268  0.7432 -2.4756
 8405TIP3   OH246629   2.494   5.869   0.906 -0.1094 -0.0610 -0.2164
 8405TIP3    H146630   2.520   5.886   0.996  3.7676 -1.2495 -0.9840
 8405TIP3    H246631   2.534   5.940   0.855  0.3407 -1.0591 -1.2943
 8406TIP3   OH246632   2.659   2.073   3.876  0.5587  0.7933 -0.3282
 8406TIP3    H146633   2.658   2.140   3.808 -0.1223 -1.9920 -3.1351
 8406TIP3    H246634   2.571   2.036   3.875  0.3886  1.0084  2.4306
 8407TIP3   OH246635   6.367   3.349   0.871 -0.3817  0.1861 -0.3247
 8407TIP3    H146636   6.366   3.385   0.782 -0.1929  0.1940 -0.3240
 8407TIP3    H246637   6.457   3.360   0.900 -0.1585 -0.9079 -0.5775
 8408TIP3   OH246638   0.196   4.531   5.468  0.7672  0.2898 -0.5863
 8408TIP3    H146639   0.208   4.625   5.461  0.6004  0.3859  0.4812
 8408TIP3    H246640   0.279   4.498   5.502 -0.0143  0.3256  1.3722
 8409TIP3   OH246641   4.946   6.254   4.285 -0.0155 -0.1562  0.2557
 8409TIP3    H146642   5.027   6.208   4.262  0.1434  0.8554 -1.2441
 8409TIP3    H246643   4.942   6.247   4.381  1.3553 -1.0153  0.2730
 8410TIP3   OH246644   0.446   4.472   0.927 -0.0485 -0.4598  0.0389
 8410TIP3    H146645   0.392   4.550   0.942  1.7677  0.9400 -0.5401
 8410TIP3    H246646   0.469   4.441   1.014 -0.0854  0.1609  0.2724
 8411TIP3   OH246647   3.783   2.943  10.652 -0.5610 -0.0184  0.1682
 8411TIP3    H146648   3.865   2.901  10.679 -0.0491 -1.9225 -3.9133
 8411TIP3    H246649   3.716   2.879  10.673 -0.3240 -0.8726 -1.5748
 8412TIP3   OH246650   0.750   3.512  15.227  0.8644  0.0384  0.7721
 8412TIP3    H146651   0.716   3.488  15.141  1.7429  1.1491  0.0930
 8412TIP3    H246652   0.691   3.470  15.290 -0.6257  0.3766 -0.3751
 8413TIP3   OH246653   2.025   4.821  12.405  0.3195 -0.1869  0.1744
 8413TIP3    H146654   2.051   4.775  12.485  0.2840 -2.3728 -1.0295
 8413TIP3    H246655   2.062   4.768  12.334 -2.1033  0.0847 -1.3445
 8414TIP3   OH246656   4.706   1.671   2.041 -0.4399 -0.1461 -0.2018
 8414TIP3    H146657   4.694   1.615   2.118 -0.3709 -0.7086 -0.5980
 8414TIP3    H246658   4.667   1.621   1.969 -1.1743  0.7065 -0.4024
 8415TIP3   OH246659   1.639   5.608  10.926 -0.0864  1.2438  0.4096
 8415TIP3    H146660   1.628   5.652  10.842 -0.6836  0.8840  0.2904
 8415TIP3    H246661   1.569   5.645  10.981 -0.8569  0.1627  0.1803
 8416TIP3   OH246662   2.845   0.813  13.420  0.1218  0.3307 -0.4272
 8416TIP3    H146663   2.807   0.727  13.403  2.6095 -0.9751  0.2275
 8416TIP3    H246664   2.919   0.818  13.359 -1.0994  2.8256 -1.7600
 8417TIP3   OH246665   6.077   6.292  12.273 -0.1610 -0.0724 -0.3894
 8417TIP3    H146666   6.083   6.372  12.325  0.7806 -1.1861  1.2702
 8417TIP3    H246667   6.003   6.307  12.214 -1.6645  0.9858  1.7152
 8418TIP3   OH246668   3.677   4.140   4.011  0.4664 -0.4799  0.1523
 8418TIP3    H146669   3.603   4.083   3.987  1.1421 -1.1760 -0.2892
 8418TIP3    H246670   3.698   4.114   4.101 -0.3709  0.3115  0.5863
 8419TIP3   OH246671   3.660   4.179   2.383 -0.0314 -0.0201  0.1542
 8419TIP3    H146672   3.687   4.224   2.464 -1.1024  1.4435 -0.2760
 8419TIP3    H246673   3.625   4.095   2.412 -1.5822  1.0167  1.3447
 8420TIP3   OH246674   3.549   5.527   5.181 -0.1146 -0.0511 -0.7936
 8420TIP3    H146675   3.518   5.542   5.271 -0.0377 -0.5898 -0.6750
 8420TIP3    H246676   3.572   5.615   5.149 -0.3246  0.1686 -0.3565
 8421TIP3   OH246677   2.659   2.800   5.295 -0.6931  0.5614  0.2218
 8421TIP3    H146678   2.678   2.707   5.285  1.5006  1.0134 -0.1076
 8421TIP3    H246679   2.645   2.812   5.389 -0.7929 -0.0557  0.2868
 8422TIP3   OH246680   6.732   0.041  14.004  0.0990  0.0137 -0.3124
 8422TIP3    H146681   6.809   0.003  13.962 -0.2714  0.2796 -1.2396
 8422TIP3    H246682   6.767   0.100  14.071  0.7224  1.2876 -1.7451
 8423TIP3   OH246683   6.520   6.353  14.801  0.5679  0.5826  0.2236
 8423TIP3    H146684   6.496   6.298  14.875  0.8515 -0.6305 -0.5694
 8423TIP3    H246685   6.613   6.333  14.785  0.2525  0.0805 -1.0766
 8424TIP3   OH246686   4.369   4.999  11.326  0.1739 -0.9706 -0.1513
 8424TIP3    H146687   4.433   4.946  11.374  0.1584 -0.6060  0.2783
 8424TIP3    H246688   4.362   4.957  11.241  0.4049 -1.4720  0.0726
 8425TIP3   OH246689   4.060   4.634  11.549  0.3485 -0.0741 -0.5561
 8425TIP3    H146690   4.047   4.539  11.551  0.6187 -0.1054 -0.2055
 8425TIP3    H246691   3.974   4.669  11.523  0.0139 -0.3693  0.1322
 8426TIP3   OH246692   2.232   6.312  16.465 -0.1158 -1.0023 -0.0500
 8426TIP3    H146693   2.268   6.231  16.429  0.2516 -1.3778  1.1496
 8426TIP3    H246694   2.307   6.370  16.473 -0.7238  0.2898 -3.0374
 8427TIP3   OH246695   4.759   4.324  15.084 -0.3618  0.0382 -0.7637
 8427TIP3    H146696   4.779   4.230  15.084  0.2417  0.1596 -0.0988
 8427TIP3    H246697   4.785   4.354  14.997 -0.3013 -0.3644 -0.8828
 8428TIP3   OH246698   0.860   3.506   1.499 -0.2601  0.1502  0.6911
 8428TIP3    H146699   0.769   3.522   1.522 -1.0657  0.6866 -2.6013
 8428TIP3    H246700   0.896   3.593   1.481  0.3910 -0.2102  0.1972
 8429TIP3   OH246701   6.773   0.394  13.195 -0.3474  0.0123  0.4710
 8429TIP3    H146702   6.788   0.488  13.207 -2.0599  0.4275 -0.4561
 8429TIP3    H246703   6.818   0.353  13.269  0.1104  1.5872  1.0863
 8430TIP3   OH246704   1.368   1.241   1.603  0.3687 -0.6332  0.1848
 8430TIP3    H146705   1.398   1.156   1.637 -0.7863 -1.0010  0.3022
 8430TIP3    H246706   1.443   1.299   1.615  0.7902 -1.3587  1.1622
 8431TIP3   OH246707   3.408   1.982   4.583 -0.0132 -0.0222  0.1926
 8431TIP3    H146708   3.354   1.959   4.508 -1.9896  2.1637  0.8765
 8431TIP3    H246709   3.471   1.910   4.591 -1.5516 -1.6432 -1.8241
 8432TIP3   OH246710   5.541   4.127   0.441 -0.6895 -0.4858 -0.0255
 8432TIP3    H146711   5.559   4.043   0.399  0.6052 -0.2951  0.1311
 8432TIP3    H246712   5.513   4.185   0.370  2.7796  0.2202 -0.8997
 8433TIP3   OH246713   1.470   6.714  15.508  0.0253  0.2475  0.5022
 8433TIP3    H146714   1.421   6.796  15.519  0.5263  0.5499  0.5328
 8433TIP3    H246715   1.562   6.742  15.506  0.1441 -0.1994 -0.6013
 8434TIP3   OH246716   0.226   2.135  15.733 -0.1554  0.5633 -0.3070
 8434TIP3    H146717   0.175   2.075  15.788  0.2859  2.3413  2.1314
 8434TIP3    H246718   0.307   2.149  15.782 -0.3780  3.3604 -0.6764
 8435TIP3   OH246719   1.086   6.443   3.853  0.0986 -0.2794  0.7360
 8435TIP3    H146720   1.031   6.424   3.777  0.1178  1.1612  0.3650
 8435TIP3    H246721   1.059   6.378   3.918  0.4467 -1.8761 -0.6530
 8436TIP3   OH246722   2.303   4.224   2.170  0.0603  0.6213  0.1388
 8436TIP3    H146723   2.253   4.197   2.093  0.1143  1.9509 -0.3830
 8436TIP3    H246724   2.294   4.152   2.231  0.7805 -0.8571 -1.4728
 8437TIP3   OH246725   3.411   5.008  14.172 -0.0237  0.4785  0.3776
 8437TIP3    H146726   3.491   4.995  14.120  0.7059  0.1996  1.5397
 8437TIP3    H246727   3.342   5.019  14.107  0.4665 -2.2144 -0.6655
 8438TIP3   OH246728   6.132   0.399   4.442 -0.3327  0.4878 -0.0313
 8438TIP3    H146729   6.061   0.394   4.378  1.7038 -0.9401 -2.2643
 8438TIP3    H246730   6.149   0.308   4.467 -0.0878  0.9164  1.4070
 8439TIP3   OH246731   2.575   1.715   1.103  0.3268 -0.1209 -0.2205
 8439TIP3    H146732   2.635   1.646   1.130 -0.3647 -0.3683  0.7291
 8439TIP3    H246733   2.504   1.711   1.167 -0.2760  0.7271 -0.8231
 8440TIP3   OH246734   1.863   2.474   6.139 -0.5428 -0.4866 -0.6430
 8440TIP3    H146735   1.795   2.538   6.161  0.0667  0.6424 -2.0019
 8440TIP3    H246736   1.918   2.518   6.074  0.9782 -1.7182 -0.2145
 8441TIP3   OH246737   5.173   5.830  14.699 -0.2676  0.5399 -0.1194
 8441TIP3    H146738   5.211   5.844  14.612  1.6285 -0.7003  0.4654
 8441TIP3    H246739   5.212   5.899  14.753  0.5886 -0.2831  0.3202
 8442TIP3   OH246740   0.004   3.055   4.449 -0.5054 -0.8080 -0.0130
 8442TIP3    H146741   0.071   3.113   4.485 -0.7615  0.2900 -1.2918
 8442TIP3    H246742   0.048   2.971   4.440  0.1555 -0.5732  0.9312
 8443TIP3   OH246743   4.268   1.339  15.433  0.0454 -0.2650  0.0876
 8443TIP3    H146744   4.224   1.416  15.468  1.7250  0.3995  0.7730
 8443TIP3    H246745   4.341   1.373  15.382 -1.3897 -1.2869 -2.7556
 8444TIP3   OH246746   3.580   4.059  15.137 -0.0794 -0.0086  0.2553
 8444TIP3    H146747   3.589   4.031  15.228  0.5541  3.8990  1.4928
 8444TIP3    H246748   3.492   4.095  15.131  1.0679  2.9403  0.3242
 8445TIP3   OH246749   2.102   1.519   0.812  0.5050  0.0207  0.3521
 8445TIP3    H146750   2.007   1.505   0.818  0.4784  0.5326  1.1771
 8445TIP3    H246751   2.112   1.613   0.803  0.8933 -0.1234 -0.7643
 8446TIP3   OH246752   1.802   0.015  11.299 -0.0650  0.4804 -0.6976
 8446TIP3    H146753   1.762  -0.008  11.382  1.2708  0.8648  0.0667
 8446TIP3    H246754   1.730   0.052  11.247 -1.1175 -0.7039 -0.1035
 8447TIP3   OH246755   1.021   3.080   3.322 -0.2997 -0.2366  0.2021
 8447TIP3    H146756   0.963   3.078   3.246 -0.9809  0.0062  0.7131
 8447TIP3    H246757   1.107   3.057   3.286 -0.3023  1.3613 -0.9190
 8448TIP3   OH246758   0.633   0.668   1.926  0.2337  0.2338  0.1603
 8448TIP3    H146759   0.639   0.713   1.842 -0.9398  0.2401  0.0728
 8448TIP3    H246760   0.666   0.732   1.989  0.7083  0.3851 -0.2382
 8449TIP3   OH246761   6.761   3.780   5.752  0.3212  0.2999  0.1048
 8449TIP3    H146762   6.857   3.778   5.755  0.3569  0.3543 -0.8986
 8449TIP3    H246763   6.739   3.873   5.753  0.2417  0.2683  1.3715
 8450TIP3   OH246764   3.737   4.233  12.983  0.3930 -0.2931 -0.0329
 8450TIP3    H146765   3.703   4.322  12.971  2.3757  0.4396 -0.4253
 8450TIP3    H246766   3.796   4.220  12.908  0.3344 -1.8343  0.1822
 8451TIP3   OH246767   5.046   5.827   1.267 -0.3966  0.5181  0.5104
 8451TIP3    H146768   4.987   5.869   1.204  0.8408 -0.9927 -1.6952
 8451TIP3    H246769   5.013   5.738   1.275  0.8874  0.0060  0.1583
 8452TIP3   OH246770   2.964   0.760   5.614  0.0631 -0.1816 -0.6992
 8452TIP3    H146771   2.937   0.745   5.705  1.2614  0.4855 -0.2288
 8452TIP3    H246772   3.010   0.680   5.589 -0.4563 -0.4549 -0.8081
 8453TIP3   OH246773   3.708   2.485  15.153  0.2211 -0.2378 -0.2243
 8453TIP3    H146774   3.716   2.417  15.220 -1.0064 -0.5693 -0.4007
 8453TIP3    H246775   3.614   2.488  15.134  0.3548  1.0484 -0.6903
 8454TIP3   OH246776   5.996   1.339   0.893 -0.0754  0.5432  0.4020
 8454TIP3    H146777   5.938   1.362   0.820  0.6919  0.8908 -0.1071
 8454TIP3    H246778   5.937   1.328   0.968 -0.8479  0.4236 -0.2103
 8455TIP3   OH246779   5.876   6.164   2.942  0.0986  1.2752  0.3173
 8455TIP3    H146780   5.803   6.208   2.898 -0.4826  0.7651  0.7726
 8455TIP3    H246781   5.884   6.210   3.026 -1.4670 -0.4327  1.4261
 8456TIP3   OH246782   5.966   5.752   2.909 -0.1229 -0.0821 -0.1571
 8456TIP3    H146783   6.029   5.824   2.916 -0.7990  0.6433 -1.5840
 8456TIP3    H246784   5.927   5.747   2.996 -0.0866  1.2858 -0.0495
 8457TIP3   OH246785   3.731   4.352   1.780  0.4097 -0.0703  0.2083
 8457TIP3    H146786   3.797   4.317   1.840  0.6067  1.3202  0.8221
 8457TIP3    H246787   3.742   4.447   1.785 -1.1534  0.1487 -0.2340
 8458TIP3   OH246788   2.066   1.203   5.373 -0.3483  0.3789 -0.2233
 8458TIP3    H146789   2.132   1.243   5.315  0.8667 -0.6583  0.4123
 8458TIP3    H246790   2.093   1.111   5.380 -0.8456  0.3407  1.4502
 8459TIP3   OH246791   4.501   0.961  15.269 -0.7002  0.4557  0.3919
 8459TIP3    H146792   4.504   0.900  15.195  2.3412  2.2271 -1.0538
 8459TIP3    H246793   4.426   1.018  15.250 -1.8037 -1.0068  0.2907
 8460TIP3   OH246794   2.844   5.171   1.489  0.5423  0.0812  0.0990
 8460TIP3    H146795   2.774   5.106   1.494  0.4286  0.2985  1.3856
 8460TIP3    H246796   2.908   5.132   1.429 -0.5269 -0.2575 -0.8394
 8461TIP3   OH246797   1.635   4.054  11.123 -0.2334 -0.3136  0.0708
 8461TIP3    H146798   1.624   4.114  11.049 -2.9424 -2.5307 -1.3741
 8461TIP3    H246799   1.696   3.988  11.091  0.3582 -0.0535  0.6365
 8462TIP3   OH246800   5.347   6.076  13.810 -0.1426  0.0327 -0.4582
 8462TIP3    H146801   5.303   6.103  13.890  1.6605  1.7299  0.0005
 8462TIP3    H246802   5.293   6.005  13.775 -4.1611  3.0593 -0.7794
 8463TIP3   OH246803   4.519   3.829  14.858 -0.7017  0.0455 -0.9089
 8463TIP3    H146804   4.490   3.905  14.908  0.4617 -0.1097  0.0190
 8463TIP3    H246805   4.438   3.787  14.828 -1.4085  0.1996  0.7444
 8464TIP3   OH246806   0.452   2.465   1.907  0.1194 -0.2726 -0.0952
 8464TIP3    H146807   0.365   2.431   1.886 -0.3280  0.2107  0.9143
 8464TIP3    H246808   0.470   2.430   1.994  0.9889 -0.4606 -0.3466
 8465TIP3   OH246809   3.529   5.780   1.911  0.3183 -0.3533 -0.7237
 8465TIP3    H146810   3.610   5.828   1.893 -0.7100  1.7757  0.0907
 8465TIP3    H246811   3.541   5.745   1.999  1.5366 -2.6233 -1.7660
 8466TIP3   OH246812   2.432   4.783  13.724 -0.3600  0.2206 -0.1783
 8466TIP3    H146813   2.375   4.733  13.664  0.6093  0.4206 -1.2829
 8466TIP3    H246814   2.517   4.784  13.680  0.7301 -0.7736  1.8390
 8467TIP3   OH246815   5.616   4.031   5.300  0.2750  0.2568 -0.4357
 8467TIP3    H146816   5.707   4.051   5.320  0.6534 -0.1188 -1.7586
 8467TIP3    H246817   5.614   3.936   5.287 -0.6786 -0.0010  1.4716
 8468TIP3   OH246818   2.234   2.167   4.809  0.3605  0.1957  0.1272
 8468TIP3    H146819   2.317   2.152   4.763  1.5789  0.6974  2.0980
 8468TIP3    H246820   2.212   2.081   4.846  0.9384  0.4389  1.0688
 8469TIP3   OH246821   5.989   2.015   3.029 -0.3041  0.4675  0.2245
 8469TIP3    H146822   5.899   1.985   3.037  0.2704 -1.1308  1.1334
 8469TIP3    H246823   6.020   1.977   2.947 -0.2173  0.2926  0.3356
 8470TIP3   OH246824   2.525   0.617   0.811 -0.3246  0.6846 -0.1038
 8470TIP3    H146825   2.610   0.656   0.828 -0.7220  0.0094  3.8602
 8470TIP3    H246826   2.545   0.529   0.779  0.4630  1.1502 -0.9091
 8471TIP3   OH246827   6.289   3.592  14.752  0.1789 -0.6687  0.1901
 8471TIP3    H146828   6.246   3.506  14.751 -1.4881  0.1135  1.3281
 8471TIP3    H246829   6.226   3.649  14.797  0.9755  1.2951 -1.1266
 8472TIP3   OH246830   1.658   2.186  12.075 -0.4144  0.0686  0.1297
 8472TIP3    H146831   1.632   2.136  12.153 -0.3030  0.6483  0.5390
 8472TIP3    H246832   1.594   2.256  12.068 -1.5033 -1.0207 -1.3487
 8473TIP3   OH246833   4.459   1.614  17.013  0.5830  0.2283 -0.0826
 8473TIP3    H146834   4.481   1.700  17.048 -0.0676  0.4259 -0.1550
 8473TIP3    H246835   4.426   1.565  17.088  0.7339  0.1173 -0.0878
 8474TIP3   OH246836   3.234   5.730  13.812 -1.0004  0.3104 -0.0720
 8474TIP3    H146837   3.164   5.739  13.877  0.4691  0.4893  1.5193
 8474TIP3    H246838   3.301   5.679  13.855 -1.0361 -1.7749 -2.3674
 8475TIP3   OH246839   4.714   1.016  14.118  0.2581 -0.3968 -0.0819
 8475TIP3    H146840   4.651   1.069  14.166  0.2798  0.3662 -0.8831
 8475TIP3    H246841   4.684   0.926  14.130 -1.4074  0.0208 -1.0736
 8476TIP3   OH246842   1.826   5.131   4.209  0.3800  0.0264  0.8305
 8476TIP3    H146843   1.846   5.185   4.285  0.0171  1.7957 -0.2986
 8476TIP3    H246844   1.750   5.174   4.169  1.7853  0.3028 -1.6320
 8477TIP3   OH246845   3.704   2.312   2.848 -0.4078  0.0644 -0.1106
 8477TIP3    H146846   3.767   2.354   2.788 -1.3672  2.9528  0.8204
 8477TIP3    H246847   3.759   2.261   2.907  0.8369  0.1897 -1.1241
 8478TIP3   OH246848   5.899   4.013   5.323 -0.6806  0.1961 -0.4266
 8478TIP3    H146849   5.917   4.096   5.278 -0.9142 -0.3710 -1.5828
 8478TIP3    H246850   5.985   3.978   5.345 -0.5443  0.1184 -1.0914
 8479TIP3   OH246851   6.648   2.155   4.386  0.1134 -0.5235  0.2479
 8479TIP3    H146852   6.574   2.169   4.446 -0.3480 -2.1493  0.0837
 8479TIP3    H246853   6.670   2.062   4.397  0.3340 -0.7311 -1.7578
 8480TIP3   OH246854   2.702   5.982  11.207 -0.0942 -0.2699  0.6892
 8480TIP3    H146855   2.636   5.959  11.141  1.8499  1.7554 -2.1393
 8480TIP3    H246856   2.778   5.928  11.184  0.4337  0.0904  1.5908
 8481TIP3   OH246857   2.569   6.072  16.475  0.5148 -0.8165  0.2855
 8481TIP3    H146858   2.491   6.094  16.424  1.2786  1.0035 -0.1321
 8481TIP3    H246859   2.573   5.976  16.473  0.6102 -0.7981 -3.2590
 8482TIP3   OH246860   4.648   0.449   1.770  0.0423  0.0895 -0.6607
 8482TIP3    H146861   4.704   0.483   1.840  0.9054  2.3041 -2.3623
 8482TIP3    H246862   4.705   0.390   1.720  0.1819  0.5046 -0.9961
 8483TIP3   OH246863   6.586   0.226   4.447 -0.0416 -0.1480 -0.3554
 8483TIP3    H146864   6.534   0.146   4.447  0.9273 -0.7951 -0.6124
 8483TIP3    H246865   6.524   0.296   4.426 -1.2411 -0.5864  1.6334
 8484TIP3   OH246866   4.312   6.107   3.389 -0.7022 -0.0581 -0.4248
 8484TIP3    H146867   4.228   6.085   3.428 -0.9642  0.4650 -0.6943
 8484TIP3    H246868   4.337   6.190   3.430  0.8172 -1.3676  1.4133
 8485TIP3   OH246869   5.750   4.591   1.330  0.0764  0.2616  0.1974
 8485TIP3    H146870   5.688   4.534   1.286 -0.0388  1.4937 -1.2734
 8485TIP3    H246871   5.774   4.543   1.410  1.3074 -2.6264 -1.8225
 8486TIP3   OH246872   2.597   6.137   4.617  0.7141 -0.1903 -0.5794
 8486TIP3    H146873   2.573   6.108   4.705  0.6391  0.2769 -0.4466
 8486TIP3    H246874   2.676   6.189   4.630 -0.2106  1.2317 -0.5969
 8487TIP3   OH246875   1.731   2.701   0.345 -0.6205 -0.2987 -0.5368
 8487TIP3    H146876   1.649   2.702   0.394 -0.1288 -2.4769  0.3735
 8487TIP3    H246877   1.713   2.649   0.267 -0.5382  0.5457 -1.1230
 8488TIP3   OH246878   4.560   1.866  17.075  0.2068 -0.8228  0.3988
 8488TIP3    H146879   4.525   1.953  17.054 -2.0609 -1.4955  1.2082
 8488TIP3    H246880   4.638   1.857  17.021 -0.6064  0.9589 -1.1173
 8489TIP3   OH246881   4.911   5.518   3.380  0.1236 -0.0137 -0.2310
 8489TIP3    H146882   4.927   5.427   3.357  0.0167 -0.2449  0.6303
 8489TIP3    H246883   4.910   5.564   3.295 -0.4329 -0.8968 -0.7025
 8490TIP3   OH246884   2.055   6.679  14.441  0.2777  0.6109 -0.0791
 8490TIP3    H146885   1.960   6.675  14.433  0.3928 -1.4589 -0.7710
 8490TIP3    H246886   2.085   6.716  14.358  0.2816 -2.4662 -1.5133
 8491TIP3   OH246887   4.932   6.295   5.203  0.3714 -0.0183 -0.2008
 8491TIP3    H146888   4.950   6.206   5.172 -2.6880 -0.4159 -1.0357
 8491TIP3    H246889   4.984   6.352   5.146  0.5979 -1.1538 -1.1390
 8492TIP3   OH246890   4.898   2.706  11.698  0.8136 -0.2171  0.1643
 8492TIP3    H146891   4.993   2.715  11.711  0.7299 -0.7298  1.0970
 8492TIP3    H246892   4.864   2.794  11.713  1.0996 -0.0982  0.1249
 8493TIP3   OH246893   5.611   4.792  13.909 -0.2005 -0.8355  0.0792
 8493TIP3    H146894   5.681   4.737  13.875 -0.9140 -1.4319 -0.4471
 8493TIP3    H246895   5.655   4.856  13.965  0.6806 -1.6747  0.3456
 8494TIP3   OH246896   4.141   4.330  13.811 -0.2235 -0.8222  0.3862
 8494TIP3    H146897   4.099   4.365  13.890 -1.6155  1.5551 -1.3045
 8494TIP3    H246898   4.089   4.253  13.789 -2.0112  0.4937 -0.1099
 8495TIP3   OH246899   5.192   5.924  16.058  0.2131 -0.5408 -0.0236
 8495TIP3    H146900   5.173   5.845  16.108  1.1628 -0.8046 -0.0724
 8495TIP3    H246901   5.133   5.919  15.982  0.2725 -1.2023 -0.0306
 8496TIP3   OH246902   0.457   6.553  14.272  0.1572  0.1876 -0.8004
 8496TIP3    H146903   0.540   6.594  14.249  1.2741 -1.8035 -0.3873
 8496TIP3    H246904   0.481   6.473  14.318 -2.0042  0.0888  0.2215
 8497TIP3   OH246905   2.051   1.639  11.100 -0.1552 -0.6549  0.1669
 8497TIP3    H146906   2.102   1.558  11.108  0.3824 -0.3488 -0.1313
 8497TIP3    H246907   1.960   1.609  11.098  0.1003 -1.4040 -1.7450
 8498TIP3   OH246908   6.492   0.118   0.629  0.1626 -0.4278  0.0489
 8498TIP3    H146909   6.490   0.062   0.706 -2.4681 -1.5818 -0.7955
 8498TIP3    H246910   6.579   0.106   0.591  1.2215 -0.3847  2.4203
 8499TIP3   OH246911   4.919   6.000   3.563  0.2603 -0.0069 -0.3576
 8499TIP3    H146912   4.957   5.918   3.529  1.8023  0.8153 -0.6683
 8499TIP3    H246913   4.968   6.017   3.643 -1.3030 -0.3299  0.6780
 8500TIP3   OH246914   3.953   6.085   0.676 -0.1100 -0.0895 -0.2049
 8500TIP3    H146915   3.993   6.046   0.598 -0.4731 -0.3136 -0.2818
 8500TIP3    H246916   3.860   6.065   0.667 -0.1161 -0.3326  0.4160
 8501TIP3   OH246917   1.345   4.371  14.621  0.2987 -0.3883 -0.1942
 8501TIP3    H146918   1.393   4.373  14.538 -0.3706  0.2310 -0.5725
 8501TIP3    H246919   1.289   4.293  14.614 -1.7745  1.1609 -1.4922
 8502TIP3   OH246920   0.042   4.149   2.530  0.0936 -0.2683 -0.1579
 8502TIP3    H146921   0.036   4.088   2.604  1.4111 -1.3342 -0.9116
 8502TIP3    H246922   0.017   4.097   2.454 -2.3748  1.1362 -0.3366
 8503TIP3   OH246923   6.514   5.901  15.924  1.1154 -0.1241  0.2692
 8503TIP3    H146924   6.549   5.813  15.907  2.2087  0.3464  0.0652
 8503TIP3    H246925   6.540   5.921  16.013 -0.9893 -0.8634  1.0852
 8504TIP3   OH246926   3.858   2.157  15.011 -0.5335  0.2400 -0.7173
 8504TIP3    H146927   3.931   2.218  14.994 -0.1055 -0.2345 -0.5865
 8504TIP3    H246928   3.857   2.099  14.936  0.9677 -1.4723  0.5514
 8505TIP3   OH246929   1.238   6.275   3.629  0.2074  0.3048 -0.0579
 8505TIP3    H146930   1.235   6.328   3.709  0.7856  0.2503  0.0008
 8505TIP3    H246931   1.328   6.282   3.599  0.3012 -0.6717 -0.0275
 8506TIP3   OH246932   4.514   4.516  11.535 -0.0955 -0.0107  0.0303
 8506TIP3    H146933   4.466   4.536  11.454  0.4261 -0.8975 -0.5092
 8506TIP3    H246934   4.489   4.426  11.555  0.1145  0.0658  0.6308
 8507TIP3   OH246935   5.892   4.567   4.394  0.2357  0.0593  0.0319
 8507TIP3    H146936   5.864   4.656   4.414 -0.1671  0.1985 -1.1445
 8507TIP3    H246937   5.964   4.577   4.331  1.6517 -0.3762  1.5452
 8508TIP3   OH246938   1.058   3.874   4.373 -0.1913 -0.5196  0.5580
 8508TIP3    H146939   1.056   3.956   4.423 -0.8518 -1.2625  1.7429
 8508TIP3    H246940   1.014   3.896   4.291  0.8350  0.6760  0.3014
 8509TIP3   OH246941   6.134   3.427  13.382 -0.2231  0.0103 -0.0490
 8509TIP3    H146942   6.047   3.439  13.421  0.3563  0.1455  1.2033
 8509TIP3    H246943   6.166   3.345  13.420 -0.1261 -0.4739 -1.1405
 8510TIP3   OH246944   1.646   6.361  16.508  0.3630  0.0715  0.5715
 8510TIP3    H146945   1.699   6.306  16.450 -0.8796 -0.8985  0.3290
 8510TIP3    H246946   1.558   6.324  16.503 -1.1249  3.5957 -1.5770
 8511TIP3   OH246947   3.348   3.807  15.253 -0.0180 -0.3872 -0.0554
 8511TIP3    H146948   3.380   3.806  15.163  1.7914 -1.5185  0.5656
 8511TIP3    H246949   3.269   3.861  15.250  0.6295  0.4995 -2.1041
 8512TIP3   OH246950   2.769   2.923   3.058 -0.1232  0.2836  0.1978
 8512TIP3    H146951   2.833   2.851   3.054  0.4479  0.6487  2.1809
 8512TIP3    H246952   2.689   2.885   3.022  0.7117 -0.7351 -0.6378
 8513TIP3   OH246953   3.891   6.569  13.869  0.5911  0.0928  0.3174
 8513TIP3    H146954   3.862   6.572  13.778  0.3991  2.0084  0.4233
 8513TIP3    H246955   3.819   6.606  13.919  1.5340  0.9908  1.0344
 8514TIP3   OH246956   3.173   6.402  14.167 -0.5383  0.0154  0.2962
 8514TIP3    H146957   3.174   6.449  14.084 -0.4980 -1.7733 -0.7530
 8514TIP3    H246958   3.265   6.378  14.183 -0.4453  0.9440  1.2148
 8515TIP3   OH246959   1.573   5.734   0.606 -0.1629 -0.1970  0.5544
 8515TIP3    H146960   1.525   5.780   0.537 -0.8812 -2.3697 -0.4610
 8515TIP3    H246961   1.610   5.658   0.561  1.5794 -0.2426  2.0262
 8516TIP3   OH246962   6.770   6.145  14.330  0.0838 -0.0656  0.1285
 8516TIP3    H146963   6.703   6.164  14.264 -1.1555  0.9836  1.6860
 8516TIP3    H246964   6.803   6.231  14.356 -0.2839 -0.4146  1.7612
 8517TIP3   OH246965   5.496   5.456   4.700 -0.4307  0.3521 -0.2926
 8517TIP3    H146966   5.413   5.496   4.728 -1.0823 -0.2545 -1.3226
 8517TIP3    H246967   5.523   5.403   4.774 -0.6858  0.9845  0.2611
 8518TIP3   OH246968   3.654   4.360   5.696  0.2828  0.3034  0.6095
 8518TIP3    H146969   3.571   4.341   5.740 -0.0768 -0.5956 -0.4251
 8518TIP3    H246970   3.707   4.282   5.710  0.5344  0.4200  0.3122
 8519TIP3   OH246971   3.246   2.575   1.197 -0.0195  0.0549  0.2693
 8519TIP3    H146972   3.281   2.486   1.192  1.3011  0.6915 -3.2770
 8519TIP3    H246973   3.293   2.615   1.270  0.4377 -1.6984  0.9712
 8520TIP3   OH246974   4.459   4.465   2.878 -0.1154  0.0164 -0.1566
 8520TIP3    H146975   4.484   4.395   2.817 -0.9184 -0.0712 -0.3891
 8520TIP3    H246976   4.469   4.546   2.828 -0.1618 -0.0082 -0.2065
 8521TIP3   OH246977   5.144   0.641   4.784 -0.6916 -0.2217 -0.0374
 8521TIP3    H146978   5.072   0.704   4.796 -0.7527  0.4233 -3.1916
 8521TIP3    H246979   5.103   0.566   4.740  0.1033 -0.8519  0.2995
 8522TIP3   OH246980   0.601   3.119   5.354  0.1085  0.1589 -0.0403
 8522TIP3    H146981   0.651   3.184   5.403  0.1302 -0.3539  0.6266
 8522TIP3    H246982   0.519   3.163   5.331  0.8047  0.9579 -1.0166
 8523TIP3   OH246983   0.332   3.067  12.042 -0.1355 -0.3139  0.2390
 8523TIP3    H146984   0.369   3.047  11.956 -1.1066 -0.5347 -0.1259
 8523TIP3    H246985   0.406   3.055  12.102  0.7354  0.5386 -0.6352
 8524TIP3   OH246986   1.634   1.499  14.648  0.0040 -0.0900 -0.2199
 8524TIP3    H146987   1.643   1.416  14.694 -0.4351 -0.5357 -0.9272
 8524TIP3    H246988   1.568   1.482  14.580 -0.0972  0.8348 -0.3596
 8525TIP3   OH246989   3.249   1.671  12.776 -0.1520  0.2277  0.6202
 8525TIP3    H146990   3.275   1.616  12.850 -0.3466 -0.1251  0.4296
 8525TIP3    H246991   3.161   1.640  12.753  0.1317 -0.0452 -0.1144
 8526TIP3   OH246992   0.892   5.317  12.689 -0.0870 -0.1030  0.6237
 8526TIP3    H146993   0.898   5.229  12.726 -1.1938 -0.8205 -0.8317
 8526TIP3    H246994   0.816   5.356  12.732 -0.3322 -0.3113  0.3832
 8527TIP3   OH246995   4.629   6.435   1.283 -0.5236  0.0806  0.3466
 8527TIP3    H146996   4.604   6.493   1.211 -0.3524  1.7272  1.5929
 8527TIP3    H246997   4.724   6.427   1.275 -0.5808 -0.2755 -0.0030
 8528TIP3   OH246998   3.756   6.475   3.268 -0.7106 -0.3204 -0.7497
 8528TIP3    H146999   3.793   6.392   3.298  0.8486  0.2162 -1.1524
 8528TIP3    H247000   3.702   6.452   3.192 -0.6409 -1.0062 -0.5906
 8529TIP3   OH247001   0.179   4.342   1.844  0.1266 -0.9140  0.0174
 8529TIP3    H147002   0.244   4.384   1.900  1.1921  0.0903 -1.8861
 8529TIP3    H247003   0.095   4.369   1.880  0.7941  1.2442  0.0430
 8530TIP3   OH247004   1.119   1.696  11.886  0.2264 -0.3542  0.1463
 8530TIP3    H147005   1.159   1.778  11.856  1.4735 -0.9479  0.1287
 8530TIP3    H247006   1.144   1.690  11.978 -1.1267  0.0124  0.5514
 8531TIP3   OH247007   4.549   2.753   0.438  0.1649 -0.0907 -0.6873
 8531TIP3    H147008   4.504   2.827   0.398  0.5593  0.4579 -0.1419
 8531TIP3    H247009   4.499   2.676   0.412 -2.5180  0.7170  1.9024
 8532TIP3   OH247010   1.826   5.099   5.528 -0.6701  0.3300  0.3263
 8532TIP3    H147011   1.856   5.075   5.615 -1.4152  1.2179  0.8417
 8532TIP3    H247012   1.732   5.113   5.538 -0.7751  0.3737 -0.6363
 8533TIP3   OH247013   4.916   0.380   5.596 -0.2712  0.4933 -0.7025
 8533TIP3    H147014   4.848   0.357   5.533  0.3467 -1.6288 -0.6236
 8533TIP3    H247015   4.996   0.338   5.563 -0.0092 -0.9243  1.6221
 8534TIP3   OH247016   1.717   2.001  16.148 -0.0317  0.1014 -0.2342
 8534TIP3    H147017   1.742   1.996  16.056 -1.0014  1.5572 -0.5898
 8534TIP3    H247018   1.627   2.033  16.147 -0.1627 -0.1719  1.2193
 8535TIP3   OH247019   2.401   3.469  12.479 -0.0835 -0.1036  0.0998
 8535TIP3    H147020   2.492   3.477  12.507  0.3885  3.2108 -2.1262
 8535TIP3    H247021   2.350   3.492  12.557  0.9718 -0.4794  0.9204
 8536TIP3   OH247022   1.637   3.836   6.170  0.4611  0.4713 -0.2601
 8536TIP3    H147023   1.645   3.748   6.133  0.0055 -0.4184  1.6498
 8536TIP3    H247024   1.726   3.871   6.167  0.3890  0.5057 -2.3386
 8537TIP3   OH247025   3.801   1.090   5.164  0.0439 -0.4687 -0.4761
 8537TIP3    H147026   3.860   1.139   5.223  0.0685  0.0629 -0.9386
 8537TIP3    H247027   3.731   1.059   5.221 -0.3245  0.6799 -0.2952
 8538TIP3   OH247028   4.118   4.045   2.911  0.0997  0.7129  0.2140
 8538TIP3    H147029   4.119   3.951   2.893 -0.5355  1.3641 -3.7778
 8538TIP3    H247030   4.025   4.067   2.917  0.2615  0.8481  2.9483
 8539TIP3   OH247031   2.208   6.185   4.842  0.4768  0.2717  0.4039
 8539TIP3    H147032   2.128   6.151   4.881  1.6395 -0.7081  2.0344
 8539TIP3    H247033   2.207   6.278   4.863  0.0470  0.1477  0.9554
 8540TIP3   OH247034   0.309   0.344   5.631  1.2964 -0.5561  0.2829
 8540TIP3    H147035   0.248   0.312   5.698  0.2352  0.3882 -0.2177
 8540TIP3    H247036   0.260   0.337   5.549  1.7183  0.5859 -0.0688
 8541TIP3   OH247037   4.508   0.138  11.982  0.0349  0.0470  0.0818
 8541TIP3    H147038   4.474   0.048  11.989  1.8569 -0.6616  0.0923
 8541TIP3    H247039   4.501   0.159  11.889 -1.7165  0.4493  0.2812
 8542TIP3   OH247040   6.538   1.042   2.430  0.4344  0.0941 -0.3654
 8542TIP3    H147041   6.514   1.121   2.382  2.5429 -0.1896 -1.9854
 8542TIP3    H247042   6.455   0.997   2.446 -0.9031  3.1430  1.5645
 8543TIP3   OH247043   4.500   0.104   5.908  0.1218 -0.6130 -0.2977
 8543TIP3    H147044   4.415   0.145   5.922 -0.1437 -0.4756 -2.1177
 8543TIP3    H247045   4.527   0.072   5.994 -0.2523  2.2614  0.9190
 8544TIP3   OH247046   3.629   6.153  16.961  0.5966 -0.4097  0.0855
 8544TIP3    H147047   3.552   6.206  16.939  0.5604 -0.6655 -0.4260
 8544TIP3    H247048   3.596   6.063  16.962  1.5532 -0.8710 -3.4437
 8545TIP3   OH247049   3.186   1.974  14.092  0.2108 -0.0440 -0.1102
 8545TIP3    H147050   3.265   1.938  14.133  0.9680  1.6739  0.0004
 8545TIP3    H247051   3.162   2.048  14.148  0.2388  1.2496 -1.7520
 8546TIP3   OH247052   1.375   3.858  13.173  0.2950 -0.1624 -0.1667
 8546TIP3    H147053   1.343   3.769  13.181 -0.4599  0.0754 -0.4745
 8546TIP3    H247054   1.449   3.852  13.113  0.5299 -0.6504  0.1783
 8547TIP3   OH247055   1.094   2.910  16.973  0.1694 -0.0763  0.4868
 8547TIP3    H147056   1.121   2.935  16.884  0.5152  0.1250  0.6452
 8547TIP3    H247057   1.004   2.942  16.980  1.1546  2.6816  1.2675
 8548TIP3   OH247058   0.486   4.320  14.305 -0.7144 -0.0124  0.3956
 8548TIP3    H147059   0.465   4.387  14.370 -0.6814 -2.8211  3.4210
 8548TIP3    H247060   0.576   4.340  14.278 -0.1981  0.3228  2.3157
 8549TIP3   OH247061   5.459   2.799  10.228  0.2103 -0.2634 -0.1746
 8549TIP3    H147062   5.431   2.845  10.149 -0.1870 -0.4959 -0.1673
 8549TIP3    H247063   5.507   2.865  10.278  1.8734 -0.5525 -1.3585
 8550TIP3   OH247064   3.557   2.583  10.928  0.2978 -0.2789  0.4621
 8550TIP3    H147065   3.603   2.648  10.875 -0.9233  0.2288  0.0064
 8550TIP3    H247066   3.553   2.621  11.016  1.7777 -0.8505  0.7976
 8551TIP3   OH247067   6.466   0.290  16.054 -0.2772 -0.1138  0.5074
 8551TIP3    H147068   6.408   0.215  16.044 -1.0836  0.2761  2.1030
 8551TIP3    H247069   6.547   0.254  16.091 -0.4187 -0.2839  0.6473
 8552TIP3   OH247070   2.115   1.174  17.176 -0.2023 -0.6195  0.0500
 8552TIP3    H147071   2.204   1.208  17.174 -0.4081  0.0378  1.4142
 8552TIP3    H247072   2.095   1.154  17.085  1.0733 -0.0754 -0.3606
 8553TIP3   OH247073   5.074   1.890   5.758  0.8857  0.3829  0.0854
 8553TIP3    H147074   5.131   1.888   5.834  1.0342 -0.0795 -0.0343
 8553TIP3    H247075   5.001   1.833   5.782 -1.2948  3.6629  1.6020
 8554TIP3   OH247076   0.063   2.031  12.159  0.4712 -0.1254 -0.3061
 8554TIP3    H147077   0.135   2.017  12.098 -0.3550 -1.7268 -0.9550
 8554TIP3    H247078   0.030   2.118  12.138  1.5287  0.1815 -0.7233
 8555TIP3   OH247079   6.729   1.556  16.641  0.1770 -0.0291  0.0720
 8555TIP3    H147080   6.770   1.545  16.727  1.3088  2.1104 -0.1719
 8555TIP3    H247081   6.636   1.569  16.661  0.3811  0.0997  0.9531
 8556TIP3   OH247082   3.329   2.175   0.952  0.4288 -0.4026 -0.8207
 8556TIP3    H147083   3.271   2.110   0.993 -2.0263 -0.6325 -4.4151
 8556TIP3    H247084   3.271   2.248   0.931  2.5395  1.6197  0.2076
 8557TIP3   OH247085   3.749   2.258  14.140  0.3073  0.0276  0.2182
 8557TIP3    H147086   3.664   2.296  14.164 -0.3198 -0.5094 -1.1201
 8557TIP3    H247087   3.744   2.247  14.045  1.6712 -0.5175  0.2085
 8558TIP3   OH247088   3.818   4.887   1.427 -0.3089  0.3535 -0.4741
 8558TIP3    H147089   3.783   4.827   1.493 -2.0788  0.7875 -0.9687
 8558TIP3    H247090   3.822   4.836   1.347 -1.2191  0.7038 -0.7513
 8559TIP3   OH247091   4.737   0.177  14.744 -0.1459 -0.2041 -0.1215
 8559TIP3    H147092   4.762   0.210  14.831  1.0436 -1.5853  0.0837
 8559TIP3    H247093   4.754   0.250  14.685 -1.2776  0.8638  0.8474
 8560TIP3   OH247094   4.005   2.350  16.053  0.8102 -0.2529 -0.4736
 8560TIP3    H147095   3.923   2.310  16.082  1.1133 -0.4122  0.1892
 8560TIP3    H247096   4.021   2.311  15.967  0.0213  0.0378 -0.7612
 8561TIP3   OH247097   2.868   3.085  17.108 -0.0345 -0.5672 -0.3299
 8561TIP3    H147098   2.888   3.019  17.041 -1.6585 -1.1446 -0.2795
 8561TIP3    H247099   2.937   3.074  17.173  1.1860 -0.4467 -1.5813
 8562TIP3   OH247100   5.159   3.617   1.146  0.0759 -0.7597  0.0820
 8562TIP3    H147101   5.175   3.560   1.222 -1.8277 -1.4209 -0.0044
 8562TIP3    H247102   5.106   3.689   1.181  1.8351  0.6270  0.0264
 8563TIP3   OH247103   4.928   0.540  15.780 -0.0011 -0.5496  0.1542
 8563TIP3    H147104   4.863   0.513  15.715  1.0490 -1.3390 -0.5801
 8563TIP3    H247105   4.976   0.460  15.800 -1.8204 -0.8483  3.6744
 8564TIP3   OH247106   2.324   4.233   2.635 -0.3118  0.4290  0.4160
 8564TIP3    H147107   2.385   4.289   2.587 -1.0055 -0.0344 -1.0214
 8564TIP3    H247108   2.344   4.250   2.728  0.9076  1.4657 -0.0227
 8565TIP3   OH247109   0.766   0.139  15.614  0.3727 -0.2370 -0.2236
 8565TIP3    H147110   0.740   0.221  15.655 -2.6019 -0.8108 -0.8472
 8565TIP3    H247111   0.698   0.077  15.639  2.6747 -2.6227  0.4118
 8566TIP3   OH247112   4.902   6.132   0.743 -0.6837  0.0615  0.4371
 8566TIP3    H147113   4.909   6.087   0.659 -1.3524  1.0026 -0.1355
 8566TIP3    H247114   4.991   6.133   0.777 -0.2803  0.2816 -0.5917
 8567TIP3   OH247115   4.804   4.726   0.000  0.4730  0.0097 -0.2286
 8567TIP3    H147116   4.784   4.819   0.008 -0.8731 -0.1665 -1.3088
 8567TIP3    H247117   4.754   4.697  -0.076  2.8107 -1.0707 -1.4232
 8568TIP3   OH247118   5.573   4.710   4.252  0.1525 -0.4283  0.7838
 8568TIP3    H147119   5.548   4.697   4.161  1.5868 -0.3516  0.3562
 8568TIP3    H247120   5.592   4.621   4.284 -0.2106 -0.4416  0.9571
 8569TIP3   OH247121   3.943   6.052  16.667 -0.6167 -0.1089  0.0436
 8569TIP3    H147122   3.930   6.011  16.582  0.7338  0.2637 -0.3580
 8569TIP3    H247123   3.963   6.144  16.647 -1.8316  0.3429  0.8400
 8570TIP3   OH247124   5.990   0.513  12.115  0.0270  0.0608 -0.1721
 8570TIP3    H147125   5.949   0.428  12.130 -0.5222  0.5788  1.3838
 8570TIP3    H247126   6.031   0.505  12.029 -0.1035 -1.7387 -0.0884
 8571TIP3   OH247127   4.899   0.965  15.105  0.1759  0.4556  0.0791
 8571TIP3    H147128   4.850   0.918  15.037 -1.5250  1.2958  0.6990
 8571TIP3    H247129   4.896   1.057  15.077 -0.2138  0.7548  1.1128
 8572TIP3   OH247130   0.735   1.463   2.985 -0.1980 -0.5243 -0.2455
 8572TIP3    H147131   0.655   1.411   2.980 -1.8325  1.7411  1.1332
 8572TIP3    H247132   0.730   1.523   2.910 -1.1847  1.4082  1.2979
 8573TIP3   OH247133   2.454   5.873  16.719 -0.4010  0.2206 -0.0766
 8573TIP3    H147134   2.486   5.873  16.809 -0.6539  0.2015  0.0151
 8573TIP3    H247135   2.531   5.894  16.666  0.2461 -2.0267 -0.0592
 8574TIP3   OH247136   0.934   1.523   1.503 -0.7744 -0.6471 -0.0924
 8574TIP3    H147137   0.863   1.526   1.439 -0.2272 -0.3790 -0.6976
 8574TIP3    H247138   0.912   1.591   1.567  0.3448  1.4096 -1.8098
 8575TIP3   OH247139   4.357   2.978   0.483 -0.3559  0.1430 -0.8296
 8575TIP3    H147140   4.382   2.932   0.562  1.8486  1.2999 -0.8084
 8575TIP3    H247141   4.263   2.996   0.494 -0.0474  0.4451  1.5929
 8576TIP3   OH247142   5.452   5.106  14.126 -0.2782 -0.3116  0.3764
 8576TIP3    H147143   5.521   5.146  14.075 -1.3959  0.3598 -0.6335
 8576TIP3    H247144   5.396   5.179  14.154  0.3978 -0.6346  2.7291
 8577TIP3   OH247145   1.482   4.030   5.333 -0.2796  0.1321  0.5108
 8577TIP3    H147146   1.452   3.962   5.271 -0.6441 -0.4075  1.2745
 8577TIP3    H247147   1.412   4.096   5.331  0.0696  0.4913 -0.2255
 8578TIP3   OH247148   3.772   3.038   4.829 -0.7376  0.0708  0.0074
 8578TIP3    H147149   3.805   3.082   4.751  0.9240 -0.6038  0.3042
 8578TIP3    H247150   3.824   2.958   4.836 -2.7836 -1.2797  0.2377
 8579TIP3   OH247151   0.331   4.707  12.310 -0.0514 -0.1319  0.0707
 8579TIP3    H147152   0.281   4.787  12.325  2.4297  1.7447 -1.4897
 8579TIP3    H247153   0.267   4.646  12.273 -1.8943  1.1944  0.9867
 8580TIP3   OH247154   6.491   2.020  16.180 -0.2611 -0.2430 -0.3789
 8580TIP3    H147155   6.544   2.003  16.102 -0.1108 -4.2034  0.4709
 8580TIP3    H247156   6.550   2.066  16.239  1.4372 -2.1926 -0.4877
 8581TIP3   OH247157   5.195   6.428  10.996 -0.1444  0.4468 -0.1710
 8581TIP3    H147158   5.237   6.456  10.915  2.3397 -1.2976  0.4546
 8581TIP3    H247159   5.158   6.342  10.975  1.3362 -0.4313  0.8087
 8582TIP3   OH247160   5.366   5.233  17.124 -0.7890  0.4689 -0.0495
 8582TIP3    H147161   5.390   5.152  17.080  1.8354  0.8281  0.6375
 8582TIP3    H247162   5.292   5.267  17.074 -0.4458 -1.1738 -1.7118
 8583TIP3   OH247163   6.613   4.237  13.431 -0.5176 -0.1656 -0.1121
 8583TIP3    H147164   6.595   4.302  13.499  0.1421  1.8074 -1.7529
 8583TIP3    H247165   6.573   4.274  13.352  1.0545 -1.0768 -1.3695
 8584TIP3   OH247166   3.570   2.358  13.255  0.0837  0.3396  0.1074
 8584TIP3    H147167   3.592   2.451  13.243 -0.4905  0.4055 -0.4657
 8584TIP3    H247168   3.596   2.316  13.174 -1.5191  0.3572 -0.4415
 8585TIP3   OH247169   2.584   4.012  15.637 -1.1470  0.4840 -0.0492
 8585TIP3    H147170   2.663   3.981  15.681 -0.4826  1.6540 -0.4056
 8585TIP3    H247171   2.527   4.042  15.708 -0.0459  2.4449  0.0411
 8586TIP3   OH247172   4.718   5.182  11.678  0.8353  0.0075 -0.0423
 8586TIP3    H147173   4.794   5.129  11.703  0.3627 -0.2877  0.7843
 8586TIP3    H247174   4.676   5.203  11.761  0.4814  0.8721 -0.4430
 8587TIP3   OH247175   6.193   2.799  13.885  0.3634  0.0323 -0.6578
 8587TIP3    H147176   6.103   2.830  13.894 -0.7520 -3.3589  0.8289
 8587TIP3    H247177   6.200   2.773  13.793  0.7535  2.8043 -1.4640
 8588TIP3   OH247178   5.537   5.765   3.458  0.3575 -0.5167 -0.2205
 8588TIP3    H147179   5.500   5.678   3.474  0.5285 -0.7433 -1.0296
 8588TIP3    H247180   5.490   5.822   3.518 -0.4683 -1.0072 -0.3880
 8589TIP3   OH247181   3.789   0.169  11.110  0.6818 -0.0636  0.0548
 8589TIP3    H147182   3.790   0.091  11.054  0.1749 -0.5150  0.6694
 8589TIP3    H247183   3.815   0.240  11.052  0.1241 -0.5167 -0.7653
 8590TIP3   OH247184   0.974   4.996   1.825  0.2104 -0.0783  0.0021
 8590TIP3    H147185   1.044   4.950   1.872  1.0105  0.7835 -0.3302
 8590TIP3    H247186   0.964   5.079   1.871 -0.9141 -0.3887  0.3177
 8591TIP3   OH247187   2.978   5.511  17.183 -0.1276  0.4520 -0.0224
 8591TIP3    H147188   3.061   5.549  17.153 -0.1565  0.1420 -0.5075
 8591TIP3    H247189   2.911   5.564  17.140 -0.1673 -0.9674 -1.7876
 8592TIP3   OH247190   2.409   4.843   5.775  0.3664 -0.3284 -0.2883
 8592TIP3    H147191   2.387   4.916   5.833 -0.0002  0.2097 -1.0997
 8592TIP3    H247192   2.405   4.880   5.687  1.7884 -0.9202 -0.6138
 8593TIP3   OH247193   3.735   0.958   4.159 -1.0179  0.5171  0.4918
 8593TIP3    H147194   3.780   0.930   4.079 -0.4565 -1.7555  1.5388
 8593TIP3    H247195   3.647   0.982   4.130 -1.4190 -2.0588 -0.5789
 8594TIP3   OH247196   1.485   4.968  14.484  0.1096 -0.7415 -0.0865
 8594TIP3    H147197   1.416   4.967  14.417 -0.2377 -0.8675  0.2731
 8594TIP3    H247198   1.536   4.889  14.467  0.3397 -0.5024 -0.5316
 8595TIP3   OH247199   4.971   0.007  13.473  0.2687  0.6582 -0.2474
 8595TIP3    H147200   5.037  -0.021  13.410 -0.3460  0.3966 -0.7808
 8595TIP3    H247201   4.934   0.087  13.435  1.2067  1.5633  0.7024
 8596TIP3   OH247202   4.921   2.944  15.240 -0.1181  0.3545 -0.0133
 8596TIP3    H147203   4.935   3.001  15.164 -0.6739 -0.3515 -0.6535
 8596TIP3    H247204   4.871   2.870  15.205 -2.1939  1.0289  1.4518
 8597TIP3   OH247205   0.069   2.044   2.159  0.0968  0.7034  0.2056
 8597TIP3    H147206   0.060   2.136   2.133 -0.3233  1.1762  1.9567
 8597TIP3    H247207   0.162   2.032   2.176 -0.1305  1.4461  2.1560
 8598TIP3   OH247208   5.653   4.203   1.269  0.0112  0.3537 -0.7083
 8598TIP3    H147209   5.728   4.174   1.322 -0.6172 -0.4045 -0.2203
 8598TIP3    H247210   5.649   4.138   1.198 -1.1494 -0.5315  0.1549
 8599TIP3   OH247211   6.286   3.099   3.954  0.1893  0.1310  0.4675
 8599TIP3    H147212   6.275   3.004   3.959 -1.5087  0.3710  1.9305
 8599TIP3    H247213   6.377   3.112   3.928  0.1588 -1.9011 -0.7206
 8600TIP3   OH247214   6.757   2.332   5.018 -1.1897  0.2859  0.1053
 8600TIP3    H147215   6.772   2.421   5.049 -0.5109 -0.1132  0.9401
 8600TIP3    H247216   6.811   2.277   5.075 -1.6130 -0.6613 -0.3935
 8601TIP3   OH247217   1.045   4.635   0.421  0.3183 -0.1327 -0.1775
 8601TIP3    H147218   1.090   4.718   0.407 -0.3697  0.5393  1.4867
 8601TIP3    H247219   0.954   4.652   0.395  0.0910 -0.2433  0.5270
 8602TIP3   OH247220   0.347   3.315  11.851  0.2710  0.1109 -0.2387
 8602TIP3    H147221   0.355   3.262  11.930 -0.4301  0.1818 -0.1194
 8602TIP3    H247222   0.408   3.274  11.789  1.8713  0.8801  0.7703
 8603TIP3   OH247223   6.486   0.272   1.139 -0.1285 -0.3639  0.7329
 8603TIP3    H147224   6.539   0.351   1.153  0.4603 -0.1900 -2.2177
 8603TIP3    H247225   6.401   0.306   1.109  1.3336 -0.8431 -4.3499
 8604TIP3   OH247226   0.932   3.066   2.267 -0.5114  0.2143 -0.5226
 8604TIP3    H147227   0.940   2.996   2.332 -2.5401 -0.3669 -0.8351
 8604TIP3    H247228   0.981   3.139   2.303  2.8214 -1.7838 -0.8017
 8605TIP3   OH247229   5.686   1.362   2.149 -0.3294  0.2047 -0.5457
 8605TIP3    H147230   5.685   1.308   2.228  1.9162 -0.7802 -1.1285
 8605TIP3    H247231   5.746   1.433   2.170  1.4944 -0.9012 -1.8463
 8606TIP3   OH247232   5.624   2.958   5.746 -0.4514 -0.0172  0.0024
 8606TIP3    H147233   5.692   2.901   5.712 -1.2221 -1.8256  1.4460
 8606TIP3    H247234   5.604   3.017   5.673  2.1070  0.0814 -0.6843
 8607TIP3   OH247235   6.063   1.927   2.782  0.0648  0.4200 -0.3169
 8607TIP3    H147236   5.972   1.909   2.762  0.4320 -1.3214 -0.5308
 8607TIP3    H247237   6.107   1.926   2.697  0.6261 -0.9938 -0.0381
 8608TIP3   OH247238   4.140   0.771   3.539 -0.0933 -0.0230  0.1938
 8608TIP3    H147239   4.133   0.768   3.635 -1.0209  1.1143  0.1817
 8608TIP3    H247240   4.080   0.841   3.514 -2.0493 -2.2385 -1.4613
 8609TIP3   OH247241   2.772   5.471   4.844  1.0110  0.2301 -0.4937
 8609TIP3    H147242   2.861   5.473   4.877  1.4830  1.3661 -1.8092
 8609TIP3    H247243   2.774   5.523   4.764 -0.7277 -0.1151 -0.7935
 8610TIP3   OH247244   0.130   5.827  11.265 -0.4488 -0.1296  0.6117
 8610TIP3    H147245   0.160   5.907  11.308  0.1733 -0.3382  0.5730
 8610TIP3    H247246   0.080   5.858  11.190 -1.6050  0.2387  1.5206
 8611TIP3   OH247247   1.212   0.638  15.051  0.0219 -0.0108  0.1009
 8611TIP3    H147248   1.143   0.697  15.019 -1.5559 -1.4367  0.7559
 8611TIP3    H247249   1.180   0.551  15.028  1.5736 -0.7053  0.5553
 8612TIP3   OH247250   1.428   5.516  16.643 -0.1014 -0.2081  0.2420
 8612TIP3    H147251   1.344   5.489  16.680 -0.9609  0.5876 -1.0883
 8612TIP3    H247252   1.416   5.510  16.548 -0.1465  4.1402 -0.1226
 8613TIP3   OH247253   1.260   5.811   0.588  0.6001  0.2935 -0.0539
 8613TIP3    H147254   1.178   5.857   0.603 -0.2699 -0.2777 -2.8236
 8613TIP3    H247255   1.311   5.826   0.668 -2.2922  0.4014  1.8360
 8614TIP3   OH247256   2.482   3.101   0.854 -0.0315 -0.5841 -0.8691
 8614TIP3    H147257   2.573   3.128   0.856 -0.4374  0.7900  0.1355
 8614TIP3    H247258   2.457   3.107   0.762  0.1179  1.8100 -0.8040
 8615TIP3   OH247259   5.407   3.817   2.092  0.1961 -0.0201 -0.0380
 8615TIP3    H147260   5.413   3.741   2.150 -2.9530 -1.1352 -1.0850
 8615TIP3    H247261   5.365   3.884   2.146  2.2471  0.7963  0.6271
 8616TIP3   OH247262   3.881   4.500  12.651 -1.0156 -0.1942 -0.1784
 8616TIP3    H147263   3.969   4.526  12.626 -1.5861 -0.0835 -2.1705
 8616TIP3    H247264   3.859   4.556  12.725  1.1736 -1.3499  1.3845
 8617TIP3   OH247265   2.003   3.590  12.493 -0.4956 -0.1024 -0.4255
 8617TIP3    H147266   1.987   3.640  12.414  0.7696 -1.9392 -1.8756
 8617TIP3    H247267   2.090   3.552  12.481 -0.5959 -1.0370  1.5159
 8618TIP3   OH247268   4.828   2.896  11.395  0.1504  0.2326  0.1297
 8618TIP3    H147269   4.867   2.955  11.330  0.5126 -1.9096 -1.6308
 8618TIP3    H247270   4.783   2.955  11.456 -1.8578  2.2685 -3.1359
 8619TIP3   OH247271   0.847   4.750   0.682 -0.0700  0.1391  0.0167
 8619TIP3    H147272   0.907   4.713   0.617 -0.0586  0.4707 -0.1630
 8619TIP3    H247273   0.783   4.681   0.698 -0.7078  0.4410 -1.1639
 8620TIP3   OH247274   0.811   0.553   1.394  0.3860 -0.6627 -0.1803
 8620TIP3    H147275   0.869   0.510   1.458  0.1004  1.2047  1.3957
 8620TIP3    H247276   0.870   0.610   1.344  0.4759 -1.5009 -1.0330
 8621TIP3   OH247277   2.497   0.583  14.276 -0.2783  0.6842  0.2054
 8621TIP3    H147278   2.416   0.574  14.326 -0.3807  0.6707  0.0368
 8621TIP3    H247279   2.489   0.666  14.230 -0.5686  0.2784 -0.4831
 8622TIP3   OH247280   2.823   3.053   3.837 -0.1361  0.0008 -0.1071
 8622TIP3    H147281   2.905   3.038   3.790 -0.5316 -0.1526 -0.7565
 8622TIP3    H247282   2.831   3.141   3.873  0.1733  0.1136 -0.4601
 8623TIP3   OH247283   0.702   6.026   1.166 -0.2964  0.1540 -0.6905
 8623TIP3    H147284   0.716   6.104   1.220  0.2327  0.0376 -0.6527
 8623TIP3    H247285   0.623   5.985   1.203  0.9717 -0.7965  1.0506
 8624TIP3   OH247286   4.344   5.443  11.818  1.2523 -0.3109  0.1255
 8624TIP3    H147287   4.372   5.427  11.728  1.3023  0.5740 -0.0287
 8624TIP3    H247288   4.400   5.514  11.849 -0.2777  0.9733  0.0581
 8625TIP3   OH247289   6.294   1.877   5.375  0.4297 -0.1423  0.1179
 8625TIP3    H147290   6.266   1.840   5.459 -0.3145 -1.3199 -0.6328
 8625TIP3    H247291   6.257   1.818   5.309 -0.1908  1.5644 -1.0930
 8626TIP3   OH247292   6.345   1.739   0.317 -0.2720  0.1757  0.2131
 8626TIP3    H147293   6.304   1.686   0.385 -0.1631 -0.3698 -0.1479
 8626TIP3    H247294   6.436   1.748   0.344 -0.4309  0.7060  0.5935
 8627TIP3   OH247295   6.220   6.493   2.227 -0.3056  0.2706 -0.4751
 8627TIP3    H147296   6.221   6.402   2.197 -0.4549  0.0120  0.2968
 8627TIP3    H247297   6.303   6.529   2.195  0.3253 -0.4923  0.2675
 8628TIP3   OH247298   2.990   5.087  16.226 -0.4158 -0.5310 -0.4333
 8628TIP3    H147299   2.899   5.089  16.258  0.1061 -2.0491  1.2215
 8628TIP3    H247300   3.030   5.166  16.260 -0.7234 -0.5851  0.0534
 8629TIP3   OH247301   2.756   2.551   1.830  0.3248  0.1106 -0.5405
 8629TIP3    H147302   2.779   2.588   1.744  1.3939 -1.4051 -0.9341
 8629TIP3    H247303   2.674   2.593   1.853  0.3139  0.9601 -2.0588
 8630TIP3   OH247304   1.380   3.327  15.382 -0.2217 -0.1785  0.0968
 8630TIP3    H147305   1.401   3.311  15.474  1.8507 -0.8092 -0.4608
 8630TIP3    H247306   1.437   3.267  15.334  1.5750  2.8732 -1.7386
 8631TIP3   OH247307   0.720   3.198  14.953 -0.3757  0.3477  0.8640
 8631TIP3    H147308   0.713   3.188  14.858  0.0498 -0.7330  0.9397
 8631TIP3    H247309   0.813   3.186  14.972 -0.5249  0.0715  1.4595
 8632TIP3   OH247310   2.714   3.432  16.812  0.2344  0.7437  0.3078
 8632TIP3    H147311   2.647   3.376  16.850  1.4805 -1.0237 -0.0268
 8632TIP3    H247312   2.784   3.434  16.877  0.7547  0.8183 -0.2426
 8633TIP3   OH247313   5.020   5.095   0.525 -0.0918 -0.1610  0.6711
 8633TIP3    H147314   4.930   5.122   0.506  0.3898  0.8917 -0.2140
 8633TIP3    H247315   5.030   5.011   0.481 -0.6718 -0.3152  0.8341
 8634TIP3   OH247316   2.154   4.055   4.138  0.1446 -0.2834 -0.3220
 8634TIP3    H147317   2.099   3.980   4.159 -0.1018 -0.3058 -1.0312
 8634TIP3    H247318   2.118   4.089   4.056 -0.3476  1.1985  0.4917
 8635TIP3   OH247319   3.604   0.764  13.398 -0.0609  0.2665 -0.7665
 8635TIP3    H147320   3.625   0.852  13.364  0.7785  0.4788  0.2917
 8635TIP3    H247321   3.671   0.747  13.464 -2.2537  0.2670  1.5261
 8636TIP3   OH247322   6.355   1.256  14.195  0.7156 -0.1860 -0.2861
 8636TIP3    H147323   6.343   1.300  14.111  0.3054 -0.0126 -0.1393
 8636TIP3    H247324   6.335   1.324  14.260  0.3692 -0.5045 -0.0580
 8637TIP3   OH247325   4.469   0.547   6.041  0.3335 -0.4187 -0.1497
 8637TIP3    H147326   4.381   0.567   6.007  0.8356 -0.6181 -1.5976
 8637TIP3    H247327   4.456   0.471   6.098 -0.4693 -0.3281 -0.2041
 8638TIP3   OH247328   6.268   3.290  16.190 -0.1902  0.3028  0.5264
 8638TIP3    H147329   6.262   3.386  16.187 -0.1824  0.3012  0.4526
 8638TIP3    H247330   6.186   3.259  16.152  0.0428  0.2823  0.0355
 8639TIP3   OH247331   1.196   5.957  11.311 -0.0293  0.2402 -0.1502
 8639TIP3    H147332   1.225   5.866  11.302  0.5771  0.3667  0.5019
 8639TIP3    H247333   1.162   5.980  11.225  2.1894  0.2162 -1.0489
 8640TIP3   OH247334   2.624   5.714  14.889 -0.1119  0.0297  0.0406
 8640TIP3    H147335   2.647   5.745  14.802  0.7298  1.7634  0.8436
 8640TIP3    H247336   2.623   5.619  14.882 -0.4529  0.1583 -1.9452
 8641TIP3   OH247337   1.467   4.337   0.166  0.4127  0.3771 -0.0633
 8641TIP3    H147338   1.374   4.320   0.180  0.6522 -0.1699  0.8580
 8641TIP3    H247339   1.483   4.308   0.076  0.0352 -0.9597  0.2922
 8642TIP3   OH247340   4.475   0.553  12.582 -0.0977  0.1719  0.0214
 8642TIP3    H147341   4.398   0.608  12.588 -0.2003  0.2612 -1.7444
 8642TIP3    H247342   4.548   0.614  12.570 -0.1017 -0.0115 -1.0257
 8643TIP3   OH247343   1.427   4.153  12.553 -0.4170 -0.3279  0.1211
 8643TIP3    H147344   1.518   4.140  12.577 -0.3540  1.1352  0.7039
 8643TIP3    H247345   1.407   4.079  12.494  1.1817 -0.5379 -0.1836
 8644TIP3   OH247346   2.631   1.403  15.244 -0.2997  0.1076 -0.8255
 8644TIP3    H147347   2.615   1.441  15.330 -0.0081  0.1874 -0.8064
 8644TIP3    H247348   2.665   1.475  15.191 -0.1478 -0.0249 -0.9094
 8645TIP3   OH247349   0.649   1.061  13.484  0.2858  0.2048  0.2161
 8645TIP3    H147350   0.707   1.084  13.412 -0.6096 -0.6542 -0.8136
 8645TIP3    H247351   0.680   1.113  13.558  0.5714  1.9016 -1.0601
 8646TIP3   OH247352   3.262   0.577   1.488 -0.3161 -0.4642 -0.9990
 8646TIP3    H147353   3.187   0.550   1.541  0.5302 -2.1224 -0.6154
 8646TIP3    H247354   3.272   0.670   1.508  0.4778 -1.2073  2.4639
 8647TIP3   OH247355   3.289   1.776  11.473  0.1299 -0.0977 -0.6148
 8647TIP3    H147356   3.233   1.839  11.427  1.4911  0.2955 -1.7405
 8647TIP3    H247357   3.299   1.703  11.412  0.2680 -0.4914 -0.1272
 8648TIP3   OH247358   2.756   1.611   0.458  0.5414  0.5396  0.0205
 8648TIP3    H147359   2.786   1.538   0.513 -0.2921 -0.4600 -0.8217
 8648TIP3    H247360   2.835   1.641   0.413  1.0725  0.8127  1.1296
 8649TIP3   OH247361   2.780   3.493  16.075 -0.0204 -0.5010  0.1328
 8649TIP3    H147362   2.860   3.485  16.023 -1.9766 -0.0633 -3.1195
 8649TIP3    H247363   2.722   3.547  16.020 -2.0707  0.3144  2.9966
 8650TIP3   OH247364   2.284   6.303  11.957  0.4555 -0.3725  0.5046
 8650TIP3    H147365   2.260   6.388  11.992 -0.8244 -0.5783  0.1607
 8650TIP3    H247366   2.371   6.315  11.921 -0.2226  1.1140 -0.6506
 8651TIP3   OH247367   4.806   2.155  14.028 -0.0229  0.2519  0.3233
 8651TIP3    H147368   4.863   2.109  13.966 -0.9418  1.0866 -1.1627
 8651TIP3    H247369   4.752   2.086  14.067  0.2339 -0.2185 -0.1511
 8652TIP3   OH247370   3.273   4.462  17.203 -0.0874  0.4090 -0.5686
 8652TIP3    H147371   3.181   4.488  17.194 -0.5302 -0.5117  0.9663
 8652TIP3    H247372   3.269   4.367  17.219  1.1137  0.3751 -0.4435
 8653TIP3   OH247373   5.746   1.969  14.160 -0.3668  0.4156  0.0961
 8653TIP3    H147374   5.724   1.995  14.070 -0.6328  1.0156  0.3310
 8653TIP3    H247375   5.717   1.879  14.167 -1.9736  0.9266  0.1432
 8654TIP3   OH247376   2.266   3.074  12.958 -0.2438 -0.0671 -0.0991
 8654TIP3    H147377   2.282   3.005  12.893  0.7910 -1.2460  1.3732
 8654TIP3    H247378   2.325   3.145  12.933  1.3996 -1.1861  0.5063
 8655TIP3   OH247379   1.114   1.796   1.403  0.3905 -0.2707  0.3039
 8655TIP3    H147380   1.104   1.872   1.346  1.3478 -1.0053 -0.8618
 8655TIP3    H247381   1.091   1.722   1.348 -0.1105 -0.8764  1.3127
 8656TIP3   OH247382   1.723   4.830  11.840  0.1925  0.1011 -0.2415
 8656TIP3    H147383   1.640   4.827  11.888 -0.5671  2.3190 -1.3334
 8656TIP3    H247384   1.768   4.907  11.876  3.0563 -2.6804  2.3168
 8657TIP3   OH247385   1.987   6.295  12.066  0.6414 -0.0020 -0.0548
 8657TIP3    H147386   2.005   6.206  12.095 -1.0592 -0.2731  0.2005
 8657TIP3    H247387   2.074   6.334  12.054  1.4036 -1.7182 -0.2980
 8658TIP3   OH247388   6.389   2.536  16.845  0.1422 -0.7115 -0.0622
 8658TIP3    H147389   6.318   2.473  16.835  0.7184 -1.4452  0.3879
 8658TIP3    H247390   6.363   2.589  16.921 -0.2804 -0.4958 -0.3600
 8659TIP3   OH247391   2.178   4.010  12.149 -0.5352 -0.1308 -0.1917
 8659TIP3    H147392   2.239   4.035  12.219 -0.5893 -0.7876  0.0962
 8659TIP3    H247393   2.143   4.093  12.117 -0.1179  0.2055  0.2087
 8660TIP3   OH247394   0.465   2.086  15.540 -0.1185 -0.4584 -0.0046
 8660TIP3    H147395   0.372   2.064  15.537  0.0254 -1.2757  1.0462
 8660TIP3    H247396   0.483   2.125  15.454 -1.2616 -0.9648 -0.4957
 8661TIP3   OH247397   1.009   0.567  15.356 -0.0580 -0.1625  0.0794
 8661TIP3    H147398   1.019   0.480  15.393 -1.6496 -0.6727 -0.6360
 8661TIP3    H247399   0.922   0.566  15.315  0.1770  1.5360 -0.5141
 8662TIP3   OH247400   3.588   1.475  11.710  0.0553  0.1999 -1.0794
 8662TIP3    H147401   3.649   1.506  11.643  0.1942  0.4086 -0.8566
 8662TIP3    H247402   3.544   1.400  11.670  0.9508 -0.3730 -0.9868
 8663TIP3   OH247403   3.090   4.666  15.699  0.3911 -0.2965 -0.0688
 8663TIP3    H147404   3.036   4.733  15.740  1.2604 -0.2850  1.0948
 8663TIP3    H247405   3.110   4.700  15.612 -1.4809 -0.3199 -0.5147
 8664TIP3   OH247406   0.261   0.364  12.262 -0.3315 -0.8394 -0.6175
 8664TIP3    H147407   0.182   0.315  12.243  0.1489 -1.8190 -0.1245
 8664TIP3    H247408   0.332   0.310  12.227  0.1454 -0.1164 -0.7899
 8665TIP3   OH247409   6.193   0.183  13.639 -0.0569 -0.1332 -0.0884
 8665TIP3    H147410   6.144   0.224  13.711  1.4289  0.0938  0.8123
 8665TIP3    H247411   6.249   0.252  13.605  1.0518 -0.8903  0.1711
 8666TIP3   OH247412   1.065   2.155   6.084 -0.6512  0.0705  0.0556
 8666TIP3    H147413   1.077   2.215   6.010  1.7232 -0.7134 -0.2381
 8666TIP3    H247414   1.006   2.202   6.144  0.3895  2.2876 -0.6124
 8667TIP3   OH247415   3.617   0.934  15.957 -0.1358 -0.2439 -0.6384
 8667TIP3    H147416   3.531   0.894  15.951 -0.5144  0.3155  0.8655
 8667TIP3    H247417   3.676   0.871  15.914 -0.8718 -1.9497  0.7825
 8668TIP3   OH247418   5.675   3.200   1.994  0.6039 -0.0394  0.1704
 8668TIP3    H147419   5.618   3.125   2.009 -0.1189  0.5657  0.4864
 8668TIP3    H247420   5.621   3.276   2.016  0.8409  0.6479 -1.5605
 8669TIP3   OH247421   0.909   1.664   2.474  0.2785 -0.3278  0.0407
 8669TIP3    H147422   0.926   1.572   2.452  0.4732 -0.6962  1.6879
 8669TIP3    H247423   0.975   1.712   2.424  0.7207 -1.1518 -0.1920
 8670TIP3   OH247424   2.271   4.627   0.764 -0.4119  0.0071 -0.4091
 8670TIP3    H147425   2.186   4.586   0.752 -1.3265  2.2504 -1.7974
 8670TIP3    H247426   2.327   4.586   0.697 -0.4360 -1.2533  0.3166
 8671TIP3   OH247427   4.287   2.260   1.629 -0.2555 -0.1168  0.6314
 8671TIP3    H147428   4.204   2.276   1.583 -0.4637 -0.4426  0.8844
 8671TIP3    H247429   4.287   2.165   1.643  0.0593 -0.0852  0.8266
 8672TIP3   OH247430   3.737   1.724  10.737 -0.7907  0.1137  0.1554
 8672TIP3    H147431   3.787   1.804  10.726  1.3100 -1.5172 -2.8650
 8672TIP3    H247432   3.666   1.731  10.673  0.0614 -0.9101 -0.9161
 8673TIP3   OH247433   3.481   1.162   2.057  0.0535  0.3830  0.3616
 8673TIP3    H147434   3.388   1.161   2.037 -0.3432 -0.2337  2.1504
 8673TIP3    H247435   3.523   1.186   1.974 -1.6831  0.7470 -0.4376
 8674TIP3   OH247436   1.629   0.062  16.605 -0.4208  0.1136 -0.3905
 8674TIP3    H147437   1.585  -0.013  16.564  1.2158 -1.2085  0.2428
 8674TIP3    H247438   1.578   0.079  16.684  1.0054 -2.3788  1.1384
 8675TIP3   OH247439   5.209   6.377  13.831 -0.0000  0.2465 -0.2239
 8675TIP3    H147440   5.223   6.351  13.741 -0.2909  0.2295 -0.2645
 8675TIP3    H247441   5.296   6.372  13.872 -0.1871 -1.6238 -0.0084
 8676TIP3   OH247442   3.252   5.567  16.601 -0.1643  0.1060  0.4567
 8676TIP3    H147443   3.319   5.512  16.560 -0.0284 -0.5814  1.5685
 8676TIP3    H247444   3.295   5.651  16.615  0.0956  0.0352  0.0789
 8677TIP3   OH247445   6.614   1.067   4.506  0.6574  0.1408 -0.0594
 8677TIP3    H147446   6.539   1.057   4.564  1.2519 -1.4875  0.4664
 8677TIP3    H247447   6.590   1.138   4.447 -1.5055 -0.6958 -0.2258
 8678TIP3   OH247448   3.944   6.166  11.714  0.0452  0.0750  0.2615
 8678TIP3    H147449   3.896   6.147  11.794 -0.6294  1.2513  0.1493
 8678TIP3    H247450   4.022   6.110  11.719  1.0767  1.6251  2.7597
 8679TIP3   OH247451   1.075   1.002  14.291  0.5986 -0.2031 -0.7088
 8679TIP3    H147452   0.981   1.018  14.284  0.4137 -0.2341  1.4037
 8679TIP3    H247453   1.082   0.908  14.308  0.8794  0.1010  0.9797
 8680TIP3   OH247454   5.686   2.743   3.945  0.0215  0.1510  0.5201
 8680TIP3    H147455   5.639   2.662   3.962 -0.9121  0.3914 -0.8589
 8680TIP3    H247456   5.732   2.762   4.027 -3.1143  0.4881  2.2826
 8681TIP3   OH247457   4.064   1.492   4.861 -0.7005 -0.0150  0.3850
 8681TIP3    H147458   4.048   1.546   4.784  1.1969 -1.3987 -1.0455
 8681TIP3    H247459   4.116   1.548   4.919  0.1732  0.1437 -0.5364
 8682TIP3   OH247460   6.349   3.260  14.549  0.0012 -0.3366  0.1424
 8682TIP3    H147461   6.439   3.236  14.529 -0.4705 -0.7095 -1.6077
 8682TIP3    H247462   6.309   3.179  14.581 -0.2348 -0.6635 -0.9655
 8683TIP3   OH247463   6.048   4.248   4.580 -0.0464 -0.1969 -0.2944
 8683TIP3    H147464   5.997   4.168   4.591  0.3704 -0.3067  1.0508
 8683TIP3    H247465   6.000   4.314   4.629 -1.0410  0.6835 -2.4440
 8684TIP3   OH247466   3.433   1.787   2.760 -0.0269 -0.0532  0.1159
 8684TIP3    H147467   3.506   1.848   2.750 -0.1731  0.2653  1.0251
 8684TIP3    H247468   3.476   1.702   2.773  0.1739 -0.1347 -0.9561
 8685TIP3   OH247469   0.344   0.100   5.236  0.0469 -0.2699  0.9390
 8685TIP3    H147470   0.414   0.085   5.173 -0.0424  1.8219  0.2915
 8685TIP3    H247471   0.341   0.195   5.247 -1.9781 -0.3914  1.7647
 8686TIP3   OH247472   2.725   4.754   5.598  0.0896  0.0970  0.1564
 8686TIP3    H147473   2.785   4.682   5.618 -0.4719 -0.7304 -1.1192
 8686TIP3    H247474   2.639   4.723   5.626 -0.3605 -0.2451 -1.5442
 8687TIP3   OH247475   4.424   3.547   5.646 -0.1179  0.3718  0.1999
 8687TIP3    H147476   4.430   3.639   5.671 -1.1046  0.4734  0.0885
 8687TIP3    H247477   4.468   3.542   5.561  1.6347  0.3664  1.0695
 8688TIP3   OH247478   3.785   3.113   2.078  0.1252 -0.6926 -0.0585
 8688TIP3    H147479   3.791   3.133   1.985  0.5515  0.1050  0.1379
 8688TIP3    H247480   3.772   3.018   2.082 -0.7170 -0.6177 -0.9518
 8689TIP3   OH247481   2.184   1.681  16.327 -0.0393 -0.1351 -0.2388
 8689TIP3    H147482   2.149   1.667  16.415  0.5696  2.3976  0.4423
 8689TIP3    H247483   2.264   1.628  16.325 -0.4060 -0.7322  0.4925
 8690TIP3   OH247484   0.492   4.017  15.077 -0.4032  0.5342 -0.4009
 8690TIP3    H147485   0.486   4.079  15.150  2.8580  0.9203 -0.3901
 8690TIP3    H247486   0.547   3.946  15.110  1.3628  0.8520 -2.5245
 8691TIP3   OH247487   5.075   3.605  13.211  0.6989 -0.1822 -0.4217
 8691TIP3    H147488   5.108   3.559  13.288  1.2124  0.7161 -0.0935
 8691TIP3    H247489   5.153   3.641  13.169  0.3319  0.1324 -0.8445
 8692TIP3   OH247490   4.991   0.137   5.905 -1.1553 -0.3549 -0.1484
 8692TIP3    H147491   5.085   0.125   5.890 -0.7284  2.1878  0.2469
 8692TIP3    H247492   4.951   0.061   5.864  1.0234 -1.0521 -1.0963
 8693TIP3   OH247493   3.929   3.287   3.472 -0.7804 -0.2734 -0.0332
 8693TIP3    H147494   3.836   3.267   3.459 -0.6092 -0.5865 -0.8008
 8693TIP3    H247495   3.969   3.272   3.386 -0.1601  0.6518  0.0872
 8694TIP3   OH247496   3.613   0.265   6.201 -0.2450  0.0987  0.1878
 8694TIP3    H147497   3.694   0.238   6.158  0.7394 -1.2651  2.7729
 8694TIP3    H247498   3.580   0.337   6.147  1.2244 -1.1109 -2.4488
 8695TIP3   OH247499   4.111   6.675   5.884  0.2147  0.4026 -0.4815
 8695TIP3    H147500   4.032   6.624   5.899  0.7143 -0.0739  0.5639
 8695TIP3    H247501   4.088   6.763   5.913 -0.1543  0.4253 -0.8396
 8696TIP3   OH247502   6.768   3.163  11.707 -0.1122 -0.5073  0.1738
 8696TIP3    H147503   6.862   3.146  11.703 -0.4334 -2.1397 -0.7700
 8696TIP3    H247504   6.728   3.089  11.661 -1.9099 -0.2618  1.2895
 8697TIP3   OH247505   1.342   3.909  14.324 -0.2613  0.4219  0.2608
 8697TIP3    H147506   1.433   3.905  14.295 -0.0097  1.0752  0.9394
 8697TIP3    H247507   1.305   3.984  14.277 -0.0094  1.1275  1.1608
 8698TIP3   OH247508   5.392   2.391   0.580 -0.4981  0.0134  0.3640
 8698TIP3    H147509   5.412   2.485   0.577 -1.0568  0.1583  0.9957
 8698TIP3    H247510   5.342   2.380   0.661 -0.8601 -0.7506  0.0392
 8699TIP3   OH247511   3.987   0.396  12.075  0.1032 -0.0730 -0.4270
 8699TIP3    H147512   3.935   0.404  12.155  1.1586  2.1193  0.0801
 8699TIP3    H247513   4.075   0.372  12.106  0.9987  2.6560 -0.7354
 8700TIP3   OH247514   6.552   1.758  13.868 -0.3072  0.4427 -0.1776
 8700TIP3    H147515   6.561   1.686  13.930 -1.2371  0.5132  0.0362
 8700TIP3    H247516   6.484   1.814  13.905 -0.2125  0.9729 -0.7921
 8701TIP3   OH247517   2.902   0.624  13.076 -0.0512  0.1281 -0.0061
 8701TIP3    H147518   2.923   0.715  13.099  0.9149 -0.8240  3.0934
 8701TIP3    H247519   2.808   0.624  13.061 -0.2934  1.3520  1.4329
 8702TIP3   OH247520   2.718   0.736  15.347  0.4431  0.0690 -0.4368
 8702TIP3    H147521   2.774   0.814  15.346 -1.9696  1.8398 -1.9594
 8702TIP3    H247522   2.692   0.727  15.439  3.0597 -0.7136  0.2720
 8703TIP3   OH247523   1.040   1.892  16.057 -0.1161  0.5959 -0.6374
 8703TIP3    H147524   0.954   1.871  16.019 -0.5835  2.4249 -0.6189
 8703TIP3    H247525   1.080   1.806  16.072 -1.2781 -0.2505 -2.1488
 8704TIP3   OH247526   4.574   5.952   3.356  0.3626 -0.5570 -0.1208
 8704TIP3    H147527   4.563   5.907   3.273 -0.0861  0.0854 -0.4160
 8704TIP3    H247528   4.507   5.914   3.413 -0.0096 -0.2660 -0.3661
 8705TIP3   OH247529   3.601   0.929  13.106 -0.2468  0.4250  0.2995
 8705TIP3    H147530   3.542   0.986  13.154  0.4731  0.6168  0.9570
 8705TIP3    H247531   3.625   0.979  13.028 -1.1819  0.2279 -0.1246
 8706TIP3   OH247532   2.628   0.926   4.523 -0.9218 -0.2771  0.4286
 8706TIP3    H147533   2.715   0.960   4.504 -1.2975  0.6869  0.4058
 8706TIP3    H247534   2.636   0.884   4.609 -0.4578 -0.1232  0.4582
 8707TIP3   OH247535   4.963   2.337   5.142  0.5452 -0.0121  0.2559
 8707TIP3    H147536   4.993   2.267   5.200  0.5155 -0.1259  0.1335
 8707TIP3    H247537   5.026   2.408   5.155  0.6163 -0.0889  0.3257
 8708TIP3   OH247538   0.123   0.518  15.600  0.2404 -0.0945 -0.3086
 8708TIP3    H147539   0.080   0.524  15.685  0.4170  0.2136 -0.2421
 8708TIP3    H247540   0.213   0.490  15.620  0.1870 -0.3535 -0.4203
 8709TIP3   OH247541   6.132   4.346   5.474 -0.0175 -0.3406  0.3986
 8709TIP3    H147542   6.086   4.295   5.541  1.5865 -0.6537  1.2718
 8709TIP3    H247543   6.225   4.332   5.492  0.4916  3.2886  0.9624
 8710TIP3   OH247544   3.998   1.238  16.157  0.0968  0.1210 -0.4883
 8710TIP3    H147545   3.977   1.192  16.076 -0.2319 -1.4105  0.4576
 8710TIP3    H247546   3.915   1.245  16.203  0.0281  2.1935 -0.8716
 8711TIP3   OH247547   4.819   1.004   0.515  0.4485 -0.4658  0.1368
 8711TIP3    H147548   4.851   1.038   0.599 -0.5542 -1.1207  0.7910
 8711TIP3    H247549   4.781   0.919   0.536 -1.1139  0.0016 -0.7356
 8712TIP3   OH247550   6.583   1.707  15.823  0.0494  0.0894  0.0648
 8712TIP3    H147551   6.501   1.690  15.869  0.0396 -1.3029 -0.4771
 8712TIP3    H247552   6.625   1.776  15.876 -0.3350 -0.9165  1.7162
 8713TIP3   OH247553   1.618   3.546   5.413 -0.1700 -0.0264 -0.5012
 8713TIP3    H147554   1.703   3.589   5.409 -0.7736  1.4541  1.5792
 8713TIP3    H247555   1.620   3.495   5.493 -1.4093  0.4521 -0.1493
 8714TIP3   OH247556   2.081   5.603  12.021  0.0368  0.4385 -0.1448
 8714TIP3    H147557   2.113   5.693  12.011  0.3738  0.3844  0.4300
 8714TIP3    H247558   2.119   5.573  12.103 -0.4061 -0.0966 -0.1329
 8715TIP3   OH247559   3.536   6.421  14.576  0.3314  0.0888 -0.4770
 8715TIP3    H147560   3.487   6.477  14.636 -0.4629  0.8408 -1.8179
 8715TIP3    H247561   3.611   6.391  14.628  0.1855  1.5079  0.5996
 8716TIP3   OH247562   2.125   2.284   5.106  0.4115 -0.2028 -0.1736
 8716TIP3    H147563   2.039   2.286   5.064  0.4378  1.4071 -0.1856
 8716TIP3    H247564   2.186   2.269   5.034  0.2572  0.1201 -0.3726
 8717TIP3   OH247565   4.537   2.796   4.610  0.5465 -0.1630  0.4011
 8717TIP3    H147566   4.557   2.800   4.517 -0.9996 -1.1169  0.0192
 8717TIP3    H247567   4.620   2.819   4.653  1.3047  0.1531 -1.1871
 8718TIP3   OH247568   6.680   6.724   1.949 -0.5882  0.4680 -0.7037
 8718TIP3    H147569   6.725   6.655   1.901  0.1335  0.7647 -0.4577
 8718TIP3    H247570   6.669   6.689   2.037 -1.7514 -0.0032 -1.0220
 8719TIP3   OH247571   5.909   5.033  11.229  0.0504  0.7405 -0.4579
 8719TIP3    H147572   5.936   5.000  11.315  0.9484  3.1772  0.2514
 8719TIP3    H247573   5.978   5.096  11.205 -0.4198  0.4220 -2.7716
 8720TIP3   OH247574   5.099   3.763  15.173 -0.3564 -0.4345  0.2266
 8720TIP3    H147575   5.054   3.816  15.238 -0.5337  2.7215 -2.3648
 8720TIP3    H247576   5.032   3.742  15.108  0.6033 -0.5377 -0.7438
 8721TIP3   OH247577   3.650   3.967   6.086 -0.0405 -0.7576 -0.3172
 8721TIP3    H147578   3.715   4.009   6.143 -0.3877 -0.8696  0.1691
 8721TIP3    H247579   3.577   4.029   6.084  0.7441  0.1495 -2.2271
 8722TIP3   OH247580   1.970   0.824   3.427 -0.6007 -0.4431  0.0475
 8722TIP3    H147581   1.939   0.759   3.363 -1.3981  0.2429 -0.2805
 8722TIP3    H247582   2.052   0.856   3.391  0.0952 -1.6839  0.5026
 8723TIP3   OH247583   0.860   0.406  15.199  0.9025 -0.1004 -0.1176
 8723TIP3    H147584   0.774   0.423  15.236  0.2737 -1.8871 -0.7036
 8723TIP3    H247585   0.896   0.337  15.256  1.6158  0.0783 -0.3507
 8724TIP3   OH247586   5.133   5.175   4.078  0.0070 -0.0707 -0.4282
 8724TIP3    H147587   5.114   5.082   4.063 -2.4715  0.7282 -2.7527
 8724TIP3    H247588   5.050   5.211   4.110  0.5621  1.5844 -0.8352
 8725TIP3   OH247589   6.513   0.360  15.324 -0.2116 -0.0791 -0.0690
 8725TIP3    H147590   6.483   0.404  15.245 -0.9326  0.3977  0.4719
 8725TIP3    H247591   6.576   0.420  15.363  0.9996 -0.8000 -0.8640
 8726TIP3   OH247592   1.322   5.657   3.045 -0.3784  0.1541  0.5957
 8726TIP3    H147593   1.331   5.568   3.010  1.2464  0.5211  0.0410
 8726TIP3    H247594   1.396   5.667   3.106 -0.3148  1.2640  0.3472
 8727TIP3   OH247595   6.159   4.318  14.617  0.3088  0.6092  0.0827
 8727TIP3    H147596   6.102   4.263  14.563  1.7458 -0.4093 -0.4286
 8727TIP3    H247597   6.114   4.403  14.620 -1.8344 -0.4874  0.6843
 8728TIP3   OH247598   6.307   0.259   2.411  0.8788 -0.3456  0.1120
 8728TIP3    H147599   6.286   0.180   2.361  2.8979 -0.6755 -0.2520
 8728TIP3    H247600   6.315   0.229   2.501 -1.5984  0.0501  0.5195
 8729TIP3   OH247601   4.593   4.827   2.262 -0.8518 -0.1659  0.4701
 8729TIP3    H147602   4.677   4.798   2.297 -1.2924 -1.3890  0.5424
 8729TIP3    H247603   4.593   4.922   2.273  0.1761 -0.2510  1.2166
 8730TIP3   OH247604   2.958   4.141  13.754 -0.0197  0.3415 -0.0192
 8730TIP3    H147605   3.008   4.206  13.804 -2.4912  1.0179  1.6956
 8730TIP3    H247606   3.002   4.058  13.771  0.0957  0.7996  2.0555
 8731TIP3   OH247607   3.633   1.534  16.854  0.0382 -0.0668  0.0928
 8731TIP3    H147608   3.667   1.510  16.940 -0.0200  1.0308  0.4328
 8731TIP3    H247609   3.700   1.592  16.817 -0.1966 -0.0863 -0.3698
 8732TIP3   OH247610   2.979   2.268  16.238  0.6037 -0.3414  0.3362
 8732TIP3    H147611   2.891   2.266  16.277  0.0981 -0.0349 -0.7800
 8732TIP3    H247612   2.992   2.360  16.214  1.9316 -0.0491  2.0460
 8733TIP3   OH247613   2.148   1.173   2.502  0.0692  0.0482  0.3926
 8733TIP3    H147614   2.220   1.136   2.552 -0.0941  0.8194  1.2125
 8733TIP3    H247615   2.110   1.240   2.560 -0.5874  0.4322 -0.4661
 8734TIP3   OH247616   6.197   5.241   1.444 -0.2717  0.3873 -0.5859
 8734TIP3    H147617   6.269   5.187   1.477 -1.5992 -0.5477  0.8831
 8734TIP3    H247618   6.178   5.206   1.357  0.0368 -0.3565 -0.3567
 8735TIP3   OH247619   2.357   6.570   5.348  0.0419 -0.1010  0.2305
 8735TIP3    H147620   2.289   6.544   5.287 -0.9324  2.2899  0.2564
 8735TIP3    H247621   2.439   6.555   5.301 -0.4782 -2.6474  0.0770
 8736TIP3   OH247622   6.067   4.014   3.650 -0.3990  0.0023 -0.1072
 8736TIP3    H147623   6.141   3.968   3.691 -0.1387 -0.0544 -0.6346
 8736TIP3    H247624   5.990   3.964   3.678 -0.3607  0.7910  1.4573
 8737TIP3   OH247625   0.524   3.498   2.491  0.4924 -0.4773  0.1803
 8737TIP3    H147626   0.484   3.568   2.438  1.0916  1.2164  1.9103
 8737TIP3    H247627   0.577   3.545   2.556  2.3075 -2.6030  0.2835
 8738TIP3   OH247628   6.767   4.538  12.520 -0.2978 -0.5553  0.0613
 8738TIP3    H147629   6.782   4.565  12.430  0.0747 -0.7309  0.0691
 8738TIP3    H247630   6.791   4.446  12.522  3.8005  0.4180  1.2772
 8739TIP3   OH247631   4.934   5.958  10.930 -0.7729  0.1683 -0.8957
 8739TIP3    H147632   5.001   5.889  10.939 -0.2537  0.7412 -0.3148
 8739TIP3    H247633   4.934   5.979  10.837 -0.3861 -0.0776 -0.9567
 8740TIP3   OH247634   6.522   3.945   5.038  0.4190 -0.2872 -0.4263
 8740TIP3    H147635   6.511   3.901   4.954 -0.5087  0.1123 -0.5156
 8740TIP3    H247636   6.466   3.897   5.099 -1.6357  1.5339 -0.8175
 8741TIP3   OH247637   0.408   3.338  14.765 -0.2899  0.1813  0.1632
 8741TIP3    H147638   0.345   3.348  14.837  0.7467 -1.1702  1.3097
 8741TIP3    H247639   0.488   3.378  14.798 -0.0478  0.2982 -0.5731
 8742TIP3   OH247640   0.233   3.912  16.877 -0.1435  0.2746  0.0163
 8742TIP3    H147641   0.194   3.962  16.806  1.5852  1.4058 -0.1703
 8742TIP3    H247642   0.321   3.949  16.887  0.5749 -1.6005  0.9913
 8743TIP3   OH247643   5.057   0.313  16.340 -0.0451  0.3951 -0.0949
 8743TIP3    H147644   5.029   0.404  16.334 -1.0131  0.1543  0.7503
 8743TIP3    H247645   5.150   0.316  16.317  0.0811  1.6767  0.5192
 8744TIP3   OH247646   3.168   2.652   3.159  0.7202 -0.1124  0.4590
 8744TIP3    H147647   3.211   2.732   3.187  0.3229  0.5852 -0.8871
 8744TIP3    H247648   3.235   2.584   3.168  1.2173  0.4489  1.0817
 8745TIP3   OH247649   5.521   2.879   6.276  0.1665 -0.3376 -0.9437
 8745TIP3    H147650   5.452   2.925   6.324 -0.5956 -3.6856  1.3471
 8745TIP3    H247651   5.568   2.948   6.230 -1.2435  2.6886  1.9194
 8746TIP3   OH247652   3.812   2.730  13.756 -0.0823 -0.5205  0.1969
 8746TIP3    H147653   3.778   2.642  13.738  3.1100 -2.0062  0.9284
 8746TIP3    H247654   3.754   2.764  13.824 -1.5523 -1.9208 -0.3042
 8747TIP3   OH247655   3.179   2.867  10.546 -0.1507  0.5350 -0.3201
 8747TIP3    H147656   3.222   2.860  10.631 -1.6672 -1.8233  0.2841
 8747TIP3    H247657   3.094   2.826  10.558  0.3169 -1.5688 -3.4232
 8748TIP3   OH247658   6.121   3.301  16.675  0.5327  0.1275 -0.3079
 8748TIP3    H147659   6.207   3.274  16.644  1.1112  2.5228 -0.8307
 8748TIP3    H247660   6.119   3.275  16.767  1.6782 -0.2310 -0.3800
 8749TIP3   OH247661   2.633   5.070  13.194  0.3776  0.3106 -0.1870
 8749TIP3    H147662   2.668   5.093  13.108  1.1928 -2.6812 -0.7249
 8749TIP3    H247663   2.709   5.069  13.252  0.2824 -0.4559 -0.0666
 8750TIP3   OH247664   2.144   4.130  15.346  0.2804 -0.1582  0.1252
 8750TIP3    H147665   2.068   4.131  15.288  1.1568 -1.4732 -1.0932
 8750TIP3    H247666   2.114   4.171  15.427 -1.5575 -0.1822 -0.5261
 8751TIP3   OH247667   4.177   6.149   4.421 -0.1516 -0.0605  0.1866
 8751TIP3    H147668   4.116   6.158   4.347 -1.1670  1.1680  1.1332
 8751TIP3    H247669   4.176   6.056   4.442 -2.3110  0.0414  0.6615
 8752TIP3   OH247670   5.403   0.999  12.884 -0.4663 -0.1413  0.1381
 8752TIP3    H147671   5.394   1.036  12.972 -0.7388  0.0451  0.0308
 8752TIP3    H247672   5.492   0.965  12.882 -0.9853 -1.6206  1.0589
 8753TIP3   OH247673   5.630   1.890   4.526 -0.0508  0.3414 -0.1358
 8753TIP3    H147674   5.619   1.809   4.576  3.2453 -0.0030  0.1283
 8753TIP3    H247675   5.583   1.873   4.444 -0.0070 -1.5869  0.2117
 8754TIP3   OH247676   1.956   1.986  11.937  0.5028  1.0390  0.6100
 8754TIP3    H147677   1.953   2.060  11.998 -0.0234  1.5276 -0.0024
 8754TIP3    H247678   2.046   1.955  11.941  0.3633  0.7807  1.9788
 8755TIP3   OH247679   6.547   0.576   2.544  0.0433  0.1420  0.1806
 8755TIP3    H147680   6.488   0.563   2.469 -2.2938  2.7338  1.4418
 8755TIP3    H247681   6.559   0.671   2.548  1.9747 -0.1459  1.7152
 8756TIP3   OH247682   5.862   1.689   3.026  0.5351 -0.3248 -0.4086
 8756TIP3    H147683   5.857   1.735   2.942  1.2606  1.2210  0.3806
 8756TIP3    H247684   5.841   1.755   3.091  1.9167 -1.0167  0.7685
 8757TIP3   OH247685   4.971   0.781   1.819  0.4129 -0.3659  0.0915
 8757TIP3    H147686   5.047   0.746   1.772 -0.4816 -0.5010 -1.2777
 8757TIP3    H247687   4.923   0.703   1.848 -1.9490 -0.3842 -3.5554
 8758TIP3   OH247688   2.490   2.600  13.982 -0.1517  0.0179  0.9489
 8758TIP3    H147689   2.515   2.517  13.942  0.6589 -0.0726  1.6471
 8758TIP3    H247690   2.563   2.659  13.964 -2.8910  2.2081 -4.2155
 8759TIP3   OH247691   6.001   1.100  12.329 -0.1351  0.0590  0.5704
 8759TIP3    H147692   6.060   1.041  12.376  1.3265  0.6111 -0.5299
 8759TIP3    H247693   5.928   1.045  12.302  1.0740 -1.1853 -0.2003
 8760TIP3   OH247694   5.747   4.949   4.302  0.3586  0.3248 -0.4901
 8760TIP3    H147695   5.712   5.038   4.307  1.5232  0.7362  0.7762
 8760TIP3    H247696   5.670   4.894   4.284 -0.4476  1.5260 -0.7908
 8761TIP3   OH247697   3.411   2.172  16.792 -0.0511 -0.1708 -0.0526
 8761TIP3    H147698   3.498   2.162  16.753  0.4680 -0.3812  1.1426
 8761TIP3    H247699   3.351   2.162  16.718  0.8787 -1.6682 -0.6270
 8762TIP3   OH247700   0.865   6.448  11.947 -0.1363  0.5408  0.1135
 8762TIP3    H147701   0.885   6.497  11.867  1.3475  0.4942  0.4534
 8762TIP3    H247702   0.855   6.514  12.015  0.5575  0.4611  0.2962
 8763TIP3   OH247703   4.903   5.128   3.002 -0.3633  0.2871 -0.1382
 8763TIP3    H147704   4.885   5.104   2.911 -1.4372  0.9788 -0.1164
 8763TIP3    H247705   4.821   5.110   3.048  0.0423  0.3427  0.6159
 8764TIP3   OH247706   4.791   3.533   4.366 -0.1266  0.2289 -0.2215
 8764TIP3    H147707   4.785   3.452   4.316  0.1375  1.1146 -1.7452
 8764TIP3    H247708   4.878   3.532   4.404  0.1636  0.1395 -0.8801
 8765TIP3   OH247709   3.314   5.147   4.858 -0.1386 -0.1801  0.3516
 8765TIP3    H147710   3.279   5.108   4.938 -0.7087 -0.0027  0.1962
 8765TIP3    H247711   3.259   5.113   4.788  0.3770 -0.3570  0.0303
 8766TIP3   OH247712   1.110   0.819   3.407 -0.1229 -0.7477 -0.8146
 8766TIP3    H147713   1.187   0.830   3.461 -0.4974 -0.3538 -0.3543
 8766TIP3    H247714   1.058   0.898   3.423 -0.9174 -1.3043 -0.6274
 8767TIP3   OH247715   6.707   4.122   2.980 -0.0444  0.2391  0.0848
 8767TIP3    H147716   6.653   4.181   3.032  2.0256  0.3405  2.2224
 8767TIP3    H247717   6.750   4.179   2.916 -0.8646  0.4608 -0.2774
 8768TIP3   OH247718   2.236   1.865   1.175 -0.5349 -0.0332  0.4054
 8768TIP3    H147719   2.279   1.800   1.230 -1.3023 -0.9655 -0.0775
 8768TIP3    H247720   2.292   1.942   1.180  1.1072 -1.1677 -0.0884
 8769TIP3   OH247721   4.391   1.775  12.382  0.5106  0.0477 -0.2917
 8769TIP3    H147722   4.304   1.737  12.380  0.7162 -0.3840 -2.0803
 8769TIP3    H247723   4.388   1.844  12.315  1.6140 -0.1477 -0.5455
 8770TIP3   OH247724   5.169   6.073  11.861 -0.3857 -0.0887 -0.0054
 8770TIP3    H147725   5.192   6.166  11.852  0.2766 -0.2663 -0.2181
 8770TIP3    H247726   5.087   6.064  11.812  0.0271  0.1989 -0.7631
 8771TIP3   OH247727   6.622   0.378   1.467  0.6359 -0.2413  0.4969
 8771TIP3    H147728   6.535   0.394   1.503  0.9006 -2.0308  2.0095
 8771TIP3    H247729   6.648   0.461   1.427 -1.7936  0.2768 -0.0683
 8772TIP3   OH247730   5.818   3.786  11.458  0.3869 -0.1067  0.7292
 8772TIP3    H147731   5.730   3.761  11.428  0.1786 -0.2343  1.4209
 8772TIP3    H247732   5.830   3.875  11.425  0.0107 -0.1031  0.5959
 8773TIP3   OH247733   3.046   0.205   6.258  0.2507  0.5262 -0.1803
 8773TIP3    H147734   3.114   0.273   6.269 -0.6642  1.1656  1.7600
 8773TIP3    H247735   2.974   0.235   6.314 -0.9653 -1.0229 -0.9091
 8774TIP3   OH247736   4.117   2.768   0.339 -0.3659  0.5394  0.2331
 8774TIP3    H147737   4.162   2.694   0.379 -0.6965 -0.6108 -1.4607
 8774TIP3    H247738   4.095   2.826   0.412 -0.7186 -1.3681  1.6734
 8775TIP3   OH247739   4.469   5.710   5.289 -0.5467 -0.3720  0.0996
 8775TIP3    H147740   4.518   5.653   5.348 -0.6906  0.5200  1.0992
 8775TIP3    H247741   4.495   5.798   5.314 -3.9061  0.2363  1.8623
 8776TIP3   OH247742   6.175   4.677   4.556  0.0115 -0.2543 -0.4686
 8776TIP3    H147743   6.083   4.691   4.533  0.0475  1.7931  0.4879
 8776TIP3    H247744   6.182   4.583   4.573 -1.2470 -0.9121 -3.3276
 8777TIP3   OH247745   2.353   3.792   4.713 -0.1672  0.1319 -0.5741
 8777TIP3    H147746   2.436   3.743   4.707  0.4207  1.0622 -0.1634
 8777TIP3    H247747   2.318   3.789   4.624  0.6336  0.2778 -0.9036
 8778TIP3   OH247748   0.508   0.249  15.441  0.5381 -0.5841 -0.0046
 8778TIP3    H147749   0.449   0.229  15.368 -2.5134  1.2609  1.8359
 8778TIP3    H247750   0.548   0.332  15.417 -1.2898  0.5737  0.8486
 8779TIP3   OH247751   1.745   2.745   2.455  0.1437 -0.6632 -0.7877
 8779TIP3    H147752   1.688   2.767   2.382 -1.4855 -2.4759 -0.1033
 8779TIP3    H247753   1.732   2.817   2.518 -0.3873 -0.3955 -1.2022
 8780TIP3   OH247754   0.962   0.362   5.857 -0.2095  0.3363 -0.4792
 8780TIP3    H147755   0.943   0.281   5.904 -0.1357  0.3489 -0.4280
 8780TIP3    H247756   0.947   0.341   5.765 -0.3762  0.3177 -0.4484
 8781TIP3   OH247757   6.547   3.708  15.136 -0.3513 -0.0413 -0.1303
 8781TIP3    H147758   6.564   3.797  15.105  0.6154 -0.9367 -2.2913
 8781TIP3    H247759   6.494   3.720  15.215 -0.5919  2.4228 -0.6092
 8782TIP3   OH247760   0.742   0.369  13.207 -0.5717 -0.4532 -0.1490
 8782TIP3    H147761   0.712   0.397  13.120  1.3092  1.1161 -0.3316
 8782TIP3    H247762   0.771   0.279  13.195 -0.8674 -0.4343 -1.0155
 8783TIP3   OH247763   5.767   2.941   4.958 -0.6494 -0.3205  1.0309
 8783TIP3    H147764   5.861   2.919   4.961 -0.5702  0.0707  1.4885
 8783TIP3    H247765   5.740   2.942   5.049 -0.7691  0.9715  0.9908
 8784TIP3   OH247766   2.506   1.065   4.042  0.0454  0.3864 -0.1386
 8784TIP3    H147767   2.513   1.159   4.058 -0.0640  0.1500  1.4120
 8784TIP3    H247768   2.412   1.047   4.040  0.0575  0.4175 -1.1338
 8785TIP3   OH247769   0.774   6.504  16.851  0.0488 -0.7035 -1.0395
 8785TIP3    H147770   0.789   6.525  16.943  0.2626 -0.5965 -1.0965
 8785TIP3    H247771   0.685   6.533  16.834  0.4586  0.5109 -1.2133
 8786TIP3   OH247772   1.001   3.893  11.903  0.0486  0.5772  0.1464
 8786TIP3    H147773   1.049   3.945  11.967  0.4526  0.7371 -0.2859
 8786TIP3    H247774   1.024   3.802  11.922  1.2816  0.7067 -0.6643
 8787TIP3   OH247775   5.387   0.926  16.915  0.3214 -0.5502  0.3625
 8787TIP3    H147776   5.317   0.928  16.849 -0.3493 -1.1762  1.0385
 8787TIP3    H247777   5.431   1.010  16.905  1.3461 -1.3067 -2.0494
 8788TIP3   OH247778   2.785   6.051  15.041 -0.2905  0.1192 -0.0894
 8788TIP3    H147779   2.811   6.020  14.954  1.7232 -0.0553  0.5499
 8788TIP3    H247780   2.802   5.977  15.099 -1.2099  0.3850  0.5424
 8789TIP3   OH247781   5.757   4.453  16.627 -0.1444  0.2472 -0.1275
 8789TIP3    H147782   5.755   4.402  16.547 -1.0657 -1.1273  0.7560
 8789TIP3    H247783   5.819   4.407  16.684  2.0991  2.3463 -0.7576
 8790TIP3   OH247784   0.856   3.374   3.125 -0.7257 -0.0019 -0.2330
 8790TIP3    H147785   0.929   3.314   3.109 -0.8736 -0.4355  0.6792
 8790TIP3    H247786   0.867   3.443   3.059  0.3069 -0.2509 -0.3328
 8791TIP3   OH247787   6.010   1.127  17.142  0.9460  0.6878  0.0781
 8791TIP3    H147788   5.926   1.168  17.162  0.7107 -0.2815  1.1627
 8791TIP3    H247789   6.053   1.188  17.081 -0.5733  1.1318 -0.5675
 8792TIP3   OH247790   0.890   1.667   0.838 -0.2535  0.1685 -0.3692
 8792TIP3    H147791   0.796   1.652   0.846  0.2594 -2.2178  1.8001
 8792TIP3    H247792   0.926   1.584   0.807  1.3355  0.4910  0.5500
 8793TIP3   OH247793   1.123   4.955   3.030 -0.2667  0.3209  0.0037
 8793TIP3    H147794   1.075   4.874   3.046  0.3970 -0.3708 -1.3893
 8793TIP3    H247795   1.170   4.971   3.112  1.5139 -2.0508 -0.5019
 8794TIP3   OH247796   4.208   5.274  15.914  0.2377  0.7289 -0.3454
 8794TIP3    H147797   4.231   5.272  15.821 -0.2265 -0.2155 -0.4399
 8794TIP3    H247798   4.223   5.184  15.944 -3.1731  0.1205 -0.3586
 8795TIP3   OH247799   6.297   5.388   3.730  0.3018  0.3641 -0.4583
 8795TIP3    H147800   6.289   5.470   3.779 -3.6906  0.6462 -1.4404
 8795TIP3    H247801   6.271   5.321   3.793  0.8358  0.1244 -0.4928
 8796TIP3   OH247802   0.277   0.795  17.038  0.2978  0.1781 -0.2662
 8796TIP3    H147803   0.288   0.776  17.131  1.2176 -0.6791 -0.5492
 8796TIP3    H247804   0.265   0.890  17.035 -1.5706  0.0090  0.8948
 8797TIP3   OH247805   1.289   6.771   1.394  0.0155 -0.1989 -0.2463
 8797TIP3    H147806   1.346   6.845   1.373  0.4076 -0.0583  1.2180
 8797TIP3    H247807   1.222   6.808   1.452 -0.1394 -0.8559  0.0025
 8798TIP3   OH247808   0.701   5.663  12.379 -0.5443 -0.6771  0.1162
 8798TIP3    H147809   0.770   5.615  12.427  0.8548  0.8371 -0.3425
 8798TIP3    H247810   0.740   5.681  12.294 -2.2467 -1.4915 -0.8517
 8799TIP3   OH247811   4.115   6.484   5.414 -0.6828  0.7949  0.3260
 8799TIP3    H147812   4.117   6.528   5.499  0.5366 -0.3336  0.9015
 8799TIP3    H247813   4.067   6.404   5.430 -0.3693  0.5349 -0.0274
 8800TIP3   OH247814   0.965   2.106   2.560  0.0430  0.0534  0.0305
 8800TIP3    H147815   1.014   2.187   2.550  0.8418 -0.6265 -1.6494
 8800TIP3    H247816   1.031   2.041   2.584 -0.5201 -0.2055  0.8946
 8801TIP3   OH247817   0.045   3.964   1.957  0.1331 -0.6392  0.0754
 8801TIP3    H147818   0.133   3.927   1.963  0.0018 -0.8748  0.5171
 8801TIP3    H247819   0.047   4.015   1.875  0.5256 -1.0466 -0.1717
 8802TIP3   OH247820   0.266   4.403  11.818  0.6650 -0.2975 -0.3832
 8802TIP3    H147821   0.219   4.482  11.846  0.3494 -1.0465  1.2590
 8802TIP3    H247822   0.355   4.416  11.849  0.2062 -1.3354  1.4176
 8803TIP3   OH247823   5.060   2.370   2.246 -0.2772 -0.4250 -0.0092
 8803TIP3    H147824   5.121   2.406   2.182  0.6488  0.3751  1.3159
 8803TIP3    H247825   4.973   2.393   2.212  0.2416  1.1210 -0.3242
 8804TIP3   OH247826   0.448   0.552  12.169  0.8086 -0.5476  1.0133
 8804TIP3    H147827   0.455   0.501  12.088 -0.6191  2.0476 -0.7991
 8804TIP3    H247828   0.375   0.513  12.216 -0.6673  0.1673 -0.6422
 8805TIP3   OH247829   3.187   5.212  11.338 -0.3950 -0.9653  0.2743
 8805TIP3    H147830   3.277   5.209  11.371 -1.1422  0.8342  2.6040
 8805TIP3    H247831   3.169   5.123  11.307  2.5006 -1.0970 -1.1450
 8806TIP3   OH247832   4.319   1.781   3.342 -0.0026  0.2247  0.2631
 8806TIP3    H147833   4.274   1.859   3.309 -0.8487 -0.0083  0.8402
 8806TIP3    H247834   4.281   1.709   3.292  2.4772  0.3878 -1.9857
 8807TIP3   OH247835   5.930   1.813  11.855 -0.1378  0.1607  0.3553
 8807TIP3    H147836   5.914   1.723  11.883 -1.0851 -0.4640 -2.1102
 8807TIP3    H247837   5.877   1.866  11.915 -1.0858 -1.0352  0.5991
 8808TIP3   OH247838   5.616   4.849  11.145 -0.2850  0.7605 -0.3777
 8808TIP3    H147839   5.689   4.878  11.091 -0.3463  1.2082 -0.2257
 8808TIP3    H247840   5.654   4.789  11.208 -0.4378 -0.8325 -1.7861
 8809TIP3   OH247841   4.243   5.422   2.263 -0.2271 -0.4834 -0.1485
 8809TIP3    H147842   4.172   5.474   2.226 -1.0444  0.4761  2.6426
 8809TIP3    H247843   4.306   5.487   2.294 -0.3569 -1.2024  1.6406
 8810TIP3   OH247844   3.046   3.032   4.077 -0.0949 -0.2552  0.0344
 8810TIP3    H147845   3.001   3.114   4.054  1.4939  0.6689  0.1414
 8810TIP3    H247846   3.117   3.060   4.136 -0.1782 -1.8354  0.9043
 8811TIP3   OH247847   5.395   4.584   2.703 -0.5740 -0.5191  0.1805
 8811TIP3    H147848   5.301   4.567   2.699 -0.9451  0.8843  2.0509
 8811TIP3    H247849   5.403   4.657   2.764  1.7530 -0.7534  0.1889
 8812TIP3   OH247850   5.477   6.271  11.495 -0.5702 -0.5776 -0.0983
 8812TIP3    H147851   5.414   6.336  11.524 -0.1714 -0.1518 -0.1689
 8812TIP3    H247852   5.457   6.192  11.546 -2.0766 -0.8938 -1.1571
 8813TIP3   OH247853   4.939   6.469   1.151  0.4108  0.3843 -0.5193
 8813TIP3    H147854   4.989   6.396   1.187 -0.7044 -1.2801 -2.2455
 8813TIP3    H247855   4.965   6.545   1.204  2.0635 -1.1263  0.8868
 8814TIP3   OH247856   6.516   6.087  16.715 -0.1200  0.3774 -0.4156
 8814TIP3    H147857   6.442   6.076  16.656 -0.1221 -2.5292  0.0386
 8814TIP3    H247858   6.589   6.046  16.670 -0.0151 -1.4651  1.3397
 8815TIP3   OH247859   2.150   3.316   6.474  0.2728  0.3124  0.1123
 8815TIP3    H147860   2.073   3.364   6.503  1.4315  2.1300  0.2185
 8815TIP3    H247861   2.223   3.376   6.487  1.5358 -0.8465 -1.3609
 8816TIP3   OH247862   6.543   0.941   2.847 -0.2142  0.5601 -0.3228
 8816TIP3    H147863   6.620   0.956   2.793 -0.2160  0.5496 -0.3280
 8816TIP3    H247864   6.572   0.957   2.936  0.7950 -3.0028  0.0854
 8817TIP3   OH247865   4.063   2.986   1.912  0.1669  0.4908 -0.0920
 8817TIP3    H147866   4.157   2.983   1.929  0.3540  3.7315 -0.1554
 8817TIP3    H247867   4.055   2.983   1.816  0.1605 -0.4555 -0.0628
 8818TIP3   OH247868   1.011   0.118  12.808 -0.5981 -0.1756 -0.5581
 8818TIP3    H147869   0.966   0.202  12.821  0.6598  0.2867  1.0122
 8818TIP3    H247870   0.986   0.066  12.884  0.1334 -0.5357 -0.5672
 8819TIP3   OH247871   1.564   5.175   1.191 -0.2443 -0.0670  0.2568
 8819TIP3    H147872   1.658   5.170   1.208  0.0255  0.2036 -1.0967
 8819TIP3    H247873   1.528   5.220   1.268  0.9212  1.1039  0.1310
 8820TIP3   OH247874   4.868   5.261   1.332 -0.1698  0.1110 -0.0645
 8820TIP3    H147875   4.872   5.219   1.418 -0.6826 -0.5546 -0.3590
 8820TIP3    H247876   4.774   5.260   1.310 -0.0980  0.7420 -0.4014
 8821TIP3   OH247877   1.453   0.331  13.107 -0.2390  0.2793 -0.5325
 8821TIP3    H147878   1.499   0.281  13.176 -2.7814 -0.6294  0.5480
 8821TIP3    H247879   1.523   0.356  13.046  2.5066  3.0145  3.4658
 8822TIP3   OH247880   3.219   0.972  12.591  0.6543  0.0174  0.1507
 8822TIP3    H147881   3.224   0.934  12.679 -0.6917 -0.3414  0.0738
 8822TIP3    H247882   3.158   0.916  12.544  0.7864  0.6616 -0.7979
 8823TIP3   OH247883   0.013   4.018  15.069  0.2158 -0.2754  0.1756
 8823TIP3    H147884  -0.017   3.981  14.986 -3.5246  0.7570  0.9478
 8823TIP3    H247885   0.020   4.112  15.052  3.0548 -0.4720  0.0702
 8824TIP3   OH247886   4.485   4.903   2.947 -0.1865  0.1512 -0.3895
 8824TIP3    H147887   4.429   4.826   2.953  0.7668 -0.4602  0.9923
 8824TIP3    H247888   4.574   4.868   2.948  0.2716  1.2901  0.8675
 8825TIP3   OH247889   4.302   4.864   3.754  0.4391  0.7035  0.9325
 8825TIP3    H147890   4.230   4.842   3.695  2.0671  0.1986 -0.9128
 8825TIP3    H247891   4.333   4.949   3.723  0.7197  0.8613  1.6480
 8826TIP3   OH247892   1.636   6.206   0.613  0.4927 -0.1020 -0.0440
 8826TIP3    H147893   1.607   6.124   0.652  2.1163 -0.2322  0.9780
 8826TIP3    H247894   1.636   6.268   0.686 -0.2622  0.6813 -0.7046
 8827TIP3   OH247895   1.307   0.366   4.327 -0.5756  0.0385  0.4793
 8827TIP3    H147896   1.265   0.450   4.308  0.4283  0.4324 -0.0679
 8827TIP3    H247897   1.250   0.301   4.286 -0.3056  0.6205 -0.8399
 8828TIP3   OH247898   4.900   3.088  16.367  0.4753  0.5432  0.2944
 8828TIP3    H147899   4.882   3.038  16.446  1.8829  0.2859  0.4770
 8828TIP3    H247900   4.947   3.026  16.310  0.2472  0.9825 -0.3768
 8829TIP3   OH247901   0.471   4.227   2.236  0.1304 -0.2718 -0.1947
 8829TIP3    H147902   0.496   4.187   2.152 -0.0007  2.1702 -1.4282
 8829TIP3    H247903   0.398   4.173   2.266 -0.5321 -0.5497 -2.2085
 8830TIP3   OH247904   6.633   4.083  13.866 -0.2745 -0.1234 -0.3863
 8830TIP3    H147905   6.665   4.026  13.795 -0.5000 -0.3996 -0.2640
 8830TIP3    H247906   6.538   4.080  13.858 -0.3443 -1.0763  0.6500
 8831TIP3   OH247907   0.287   1.075   1.633 -0.0728 -0.2059 -0.0290
 8831TIP3    H147908   0.212   1.092   1.689 -0.1697 -1.4303  0.2238
 8831TIP3    H247909   0.347   1.024   1.687 -0.5483 -2.1485 -1.2764
 8832TIP3   OH247910   6.665   6.394  13.728 -0.4017 -0.0393  0.4900
 8832TIP3    H147911   6.758   6.375  13.722 -0.6006 -1.3359  1.2278
 8832TIP3    H247912   6.622   6.312  13.701 -1.3342  0.8648 -0.8413
 8833TIP3   OH247913   1.965   3.811   2.701  0.0985  0.1529  0.3150
 8833TIP3    H147914   1.958   3.894   2.653  1.1196 -0.6516 -1.2761
 8833TIP3    H247915   1.875   3.778   2.705  0.0679 -0.0756 -1.6749
 8834TIP3   OH247916   0.261   2.283   5.379  0.4840  0.2111  0.3402
 8834TIP3    H147917   0.245   2.214   5.314 -2.0679 -1.0679  2.2483
 8834TIP3    H247918   0.343   2.257   5.422  0.1572 -1.0097  0.2442
 8835TIP3   OH247919   1.364   2.015   1.442  0.2934 -0.3735 -0.1539
 8835TIP3    H147920   1.359   1.971   1.357 -2.7672 -2.1357  0.8608
 8835TIP3    H247921   1.299   2.085   1.437  0.0852 -0.4971  0.7358
 8836TIP3   OH247922   3.991   1.055   0.118  0.7084  0.5252  0.0444
 8836TIP3    H147923   4.009   1.049   0.212 -0.1964  0.2996  0.2090
 8836TIP3    H247924   3.988   1.149   0.100 -1.3800  0.6012  0.6952
 8837TIP3   OH247925   4.846   4.314  14.019  0.0471 -0.7169 -0.3712
 8837TIP3    H147926   4.879   4.387  13.967  0.1691  0.3670  1.1786
 8837TIP3    H247927   4.922   4.256  14.030  0.0807 -0.8247 -1.1771
 8838TIP3   OH247928   2.267   0.924  13.300 -0.2695  0.0093 -0.6274
 8838TIP3    H147929   2.313   0.882  13.228  3.2401  0.7412  1.0952
 8838TIP3    H247930   2.287   1.017  13.291 -2.7435  0.5764 -0.7216
 8839TIP3   OH247931   0.723   2.918  12.240  0.7160  0.3253 -0.5120
 8839TIP3    H147932   0.691   2.900  12.151 -0.1655  1.1299 -0.3632
 8839TIP3    H247933   0.668   2.864  12.297  1.2842 -0.1924 -0.4422
 8840TIP3   OH247934   6.100   4.224   2.958  0.1036 -0.0705 -0.9459
 8840TIP3    H147935   6.114   4.139   2.917  0.4431 -0.0204 -0.9372
 8840TIP3    H247936   6.032   4.266   2.905 -0.9885 -0.8536 -0.1997
 8841TIP3   OH247937   2.310   4.653  13.178 -0.1076  0.1805 -0.5845
 8841TIP3    H147938   2.317   4.586  13.110 -1.5011  0.6545 -1.2035
 8841TIP3    H247939   2.363   4.726  13.145  0.7651 -0.3020 -0.2732
 8842TIP3   OH247940   1.039   2.502  11.557  0.4506  0.8499 -0.4336
 8842TIP3    H147941   1.054   2.580  11.504  0.9856  1.4145  0.5348
 8842TIP3    H247942   1.119   2.450  11.547 -0.6005 -0.4439 -2.5013
 8843TIP3   OH247943   2.262   2.766  12.427  0.7576  0.0725 -0.2654
 8843TIP3    H147944   2.331   2.702  12.412  1.3827  0.6202  0.2421
 8843TIP3    H247945   2.186   2.731  12.381  1.2339 -0.7832 -0.4025
 8844TIP3   OH247946   6.303   2.569   3.202 -0.0001  0.0202  0.1357
 8844TIP3    H147947   6.211   2.593   3.203  0.2343  0.8922  1.8423
 8844TIP3    H247948   6.307   2.494   3.142 -2.2059 -1.5757  1.8942
 8845TIP3   OH247949   2.113   4.855   0.745 -0.5178  0.1703  0.4331
 8845TIP3    H147950   2.176   4.783   0.750 -0.1681  0.6014  2.5216
 8845TIP3    H247951   2.166   4.930   0.717 -0.9126 -0.3657 -1.9099
 8846TIP3   OH247952   4.031   4.126  14.193 -0.2094 -0.3043 -0.0106
 8846TIP3    H147953   4.065   4.037  14.196 -0.2471 -0.3466 -0.7141
 8846TIP3    H247954   3.938   4.118  14.216 -0.0140 -0.3303  0.7978
 8847TIP3   OH247955   4.208   5.239   0.497  0.5430 -0.2928  0.1797
 8847TIP3    H147956   4.151   5.171   0.532 -0.8275  1.0010  0.5285
 8847TIP3    H247957   4.219   5.300   0.570  0.5347  0.6286 -0.5898
 8848TIP3   OH247958   2.222   2.983   2.924  0.0315 -0.2112  0.6517
 8848TIP3    H147959   2.267   2.997   2.841  2.0052 -0.7988  1.6122
 8848TIP3    H247960   2.144   2.932   2.900 -0.0340  0.6360 -0.9868
 8849TIP3   OH247961   5.211   3.547   6.622  0.1419 -0.4713  0.6951
 8849TIP3    H147962   5.169   3.468   6.588  0.5550 -0.5488  0.3546
 8849TIP3    H247963   5.293   3.515   6.661  0.2055 -0.2415  0.7489
 8850TIP3   OH247964   0.393   3.840   1.364  0.3221 -0.4171  0.0077
 8850TIP3    H147965   0.405   3.782   1.439 -1.2719  1.6109  1.8949
 8850TIP3    H247966   0.471   3.895   1.364 -0.3100  0.4982  1.0447
 8851TIP3   OH247967   2.960   0.237  11.384  0.0723  0.3113  0.4216
 8851TIP3    H147968   3.024   0.239  11.456  0.7359  1.1342 -0.1818
 8851TIP3    H247969   2.959   0.326  11.351 -1.6229  0.3708  0.6022
 8852TIP3   OH247970   0.854   6.154  11.233 -0.0257 -0.3642  0.8386
 8852TIP3    H147971   0.939   6.114  11.214 -0.8581 -1.8791  0.1813
 8852TIP3    H247972   0.838   6.213  11.160  0.0173 -0.8184  0.4613
 8853TIP3   OH247973   2.848   1.225   5.926 -0.0161  0.4201 -0.4222
 8853TIP3    H147974   2.903   1.295   5.890  0.2031  0.0082 -0.8851
 8853TIP3    H247975   2.880   1.213   6.015  0.4061  0.4313 -0.5717
 8854TIP3   OH247976   1.868   6.551  13.954  0.0380 -0.2766  0.0741
 8854TIP3    H147977   1.881   6.644  13.937  1.2745 -0.1463  1.6363
 8854TIP3    H247978   1.866   6.510  13.867  0.6538  1.0578 -0.5720
 8855TIP3   OH247979   3.612   5.822  12.469  0.2646  0.5923  0.1195
 8855TIP3    H147980   3.542   5.757  12.473  0.7869  0.0322  0.2728
 8855TIP3    H247981   3.568   5.907  12.477 -0.3549  0.2235  0.6007
 8856TIP3   OH247982   4.082   3.445   1.823  0.3844 -0.6079 -0.1347
 8856TIP3    H147983   4.045   3.402   1.746  1.4577 -2.5943  0.4196
 8856TIP3    H247984   4.177   3.441   1.811  0.5980 -1.7701  1.6900
 8857TIP3   OH247985   1.393   2.604   2.111  0.0037 -0.3875  0.6727
 8857TIP3    H147986   1.336   2.552   2.168 -0.1292 -1.2787 -0.2670
 8857TIP3    H247987   1.337   2.673   2.077 -0.4116 -1.0026  0.0970
 8858TIP3   OH247988   5.278   4.324  15.717 -0.2558  0.1149 -0.8004
 8858TIP3    H147989   5.300   4.412  15.749  0.6287  0.1812 -1.5633
 8858TIP3    H247990   5.195   4.336  15.670 -0.7723  0.3032  0.1582
 8859TIP3   OH247991   0.740   1.090  13.169  0.6382 -0.2728  0.0100
 8859TIP3    H147992   0.825   1.069  13.131  0.5449 -1.5739  0.4885
 8859TIP3    H247993   0.715   1.010  13.216 -0.4992  0.3631  0.4914
 8860TIP3   OH247994   3.926   6.270  15.879  0.2795 -0.9542  0.1161
 8860TIP3    H147995   3.957   6.183  15.906  0.2180 -0.7960  0.7227
 8860TIP3    H247996   3.991   6.301  15.817  0.8772 -0.9792  0.7280
 8861TIP3   OH247997   1.731   2.855   4.595  0.0941 -0.6443 -0.2594
 8861TIP3    H147998   1.805   2.877   4.651  1.9842 -1.5673 -2.3409
 8861TIP3    H247999   1.654   2.867   4.652  1.6743  1.9388  1.4443
 8862TIP3   OH248000   6.237   4.734   5.227  0.0745 -0.3674 -0.2676
 8862TIP3    H148001   6.201   4.783   5.301  1.5621  1.8436 -0.9757
 8862TIP3    H248002   6.160   4.700   5.181 -1.0595  2.0149 -0.2191
 8863TIP3   OH248003   5.453   2.493  13.820  0.3253  0.7811  0.2607
 8863TIP3    H148004   5.458   2.562  13.753  0.6308  1.2018  0.7151
 8863TIP3    H248005   5.367   2.505  13.860  0.1019  0.4672 -0.1140
 8864TIP3   OH248006   3.211   2.968  12.090 -0.3279 -0.3480  0.0861
 8864TIP3    H148007   3.295   2.943  12.051 -0.1578  0.8820 -0.3427
 8864TIP3    H248008   3.181   3.043  12.039 -2.3956 -1.6484 -0.6651
 8865TIP3   OH248009   1.685   2.693  12.439 -0.0252 -0.5172  0.3819
 8865TIP3    H148010   1.728   2.742  12.508 -0.6209  0.5223  0.0182
 8865TIP3    H248011   1.620   2.753  12.403 -0.0043 -1.1899 -0.8101
 8866TIP3   OH248012   5.042   0.273   4.049  0.1277 -0.2129 -0.1225
 8866TIP3    H148013   5.018   0.278   4.142  1.5818 -0.1073  0.2651
 8866TIP3    H248014   5.093   0.192   4.042 -0.0421 -0.2589 -0.8475
 8867TIP3   OH248015   1.221   5.185  15.919  0.2529 -0.0572  0.0950
 8867TIP3    H148016   1.126   5.196  15.916  0.5059  3.0304  1.0484
 8867TIP3    H248017   1.235   5.106  15.970 -1.8042  0.4494  1.5113
 8868TIP3   OH248018   4.780   5.335  14.364  0.0265 -0.1941  0.3025
 8868TIP3    H148019   4.823   5.254  14.391  0.4820 -0.2168 -0.4809
 8868TIP3    H248020   4.702   5.340  14.419 -0.2584 -1.4151  0.0259
 8869TIP3   OH248021   2.011   4.349  15.529  0.1607 -0.4423  0.0610
 8869TIP3    H148022   1.979   4.259  15.526 -0.8439 -0.1783  1.8688
 8869TIP3    H248023   1.933   4.402  15.510  0.5784  0.0817 -0.2020
 8870TIP3   OH248024   2.821   4.097   1.696  0.0896 -0.1089  0.1790
 8870TIP3    H148025   2.774   4.179   1.714 -1.0075 -0.9822  1.3750
 8870TIP3    H248026   2.899   4.102   1.751  0.6480  0.6559 -0.6555
 8871TIP3   OH248027   0.345   4.530   3.340 -0.4059 -0.4768  0.8218
 8871TIP3    H148028   0.358   4.521   3.245  1.2508  1.4836  0.8390
 8871TIP3    H248029   0.351   4.441   3.374  3.7240 -0.7242 -0.3559
 8872TIP3   OH248030   6.641   3.780   4.399  0.0915 -0.2882 -0.3731
 8872TIP3    H148031   6.670   3.701   4.444 -3.3372 -2.6372 -2.0207
 8872TIP3    H248032   6.555   3.798   4.436  0.6412  2.4844 -0.3349
 8873TIP3   OH248033   3.597   4.040  12.883  0.6764  0.0006 -0.1637
 8873TIP3    H148034   3.634   4.106  12.943 -0.0536 -0.3927  0.7374
 8873TIP3    H248035   3.673   3.997  12.844  1.1585  1.0381 -0.3779
 8874TIP3   OH248036   3.227   3.646   0.739 -0.9440 -0.1149 -0.4437
 8874TIP3    H148037   3.202   3.738   0.739 -0.1896  0.1154  1.3594
 8874TIP3    H248038   3.246   3.626   0.648  1.7539  2.3235 -0.4736
 8875TIP3   OH248039   5.989   1.790   5.094  0.2553 -0.1812 -0.2283
 8875TIP3    H148040   6.065   1.732   5.106 -0.3672 -0.4659  2.6498
 8875TIP3    H248041   5.970   1.784   5.000  2.6535 -1.5328 -0.6932
 8876TIP3   OH248042   5.409   2.171  12.116  0.0880  0.0306 -0.0467
 8876TIP3    H148043   5.444   2.086  12.090 -0.6639 -0.1450 -0.5151
 8876TIP3    H248044   5.420   2.175  12.211 -0.2078 -0.7470  0.0227
 8877TIP3   OH248045   0.245   4.915  11.786 -0.2850  0.2583 -0.0820
 8877TIP3    H148046   0.339   4.911  11.803 -0.2936  2.6818  0.6871
 8877TIP3    H248047   0.235   4.885  11.696  1.2125 -0.0459 -0.1544
 8878TIP3   OH248048   1.937   6.100   4.975  0.1583  0.3901 -0.3975
 8878TIP3    H148049   1.846   6.128   4.987  0.2189  0.6613 -0.5672
 8878TIP3    H248050   1.932   6.006   4.956 -0.0907  0.4267 -0.5060
 8879TIP3   OH248051   1.352   6.635  13.980  0.7671  0.5057 -0.4022
 8879TIP3    H148052   1.346   6.575  13.907  0.6623  2.1583 -1.7924
 8879TIP3    H248053   1.275   6.616  14.034 -0.9198  1.3922 -2.4140
 8880TIP3   OH248054   0.178   1.752   4.918 -0.9913 -0.1912 -0.3615
 8880TIP3    H148055   0.178   1.756   4.822 -0.2984 -1.0722 -0.4056
 8880TIP3    H248056   0.264   1.784   4.944 -1.2213  0.1533 -0.0261
 8881TIP3   OH248057   2.238   2.440  16.829  0.5343  0.3716  0.6852
 8881TIP3    H148058   2.244   2.507  16.761  0.9694 -1.9107 -1.5943
 8881TIP3    H248059   2.158   2.462  16.878 -0.4481  1.3655 -1.3215
 8882TIP3   OH248060   3.883   2.312   5.527 -0.3276  0.4148  0.7078
 8882TIP3    H148061   3.901   2.218   5.527 -1.9483  0.0844  2.2119
 8882TIP3    H248062   3.926   2.345   5.606  0.3129  0.9695  0.1385
 8883TIP3   OH248063   5.958   3.999  13.214  0.1785 -0.5342  0.4446
 8883TIP3    H148064   5.986   4.054  13.287 -2.5782  0.0478  1.1435
 8883TIP3    H248065   6.039   3.964  13.177  1.9583  3.3967  0.4381
 8884TIP3   OH248066   6.082   2.656  11.837 -0.2168 -0.3624  0.4352
 8884TIP3    H148067   6.025   2.720  11.796 -1.1931 -1.5248 -0.0678
 8884TIP3    H248068   6.074   2.673  11.931 -0.4667  0.2386  0.3033
 8885TIP3   OH248069   6.690   5.466  13.127  0.1862 -0.1858 -0.0097
 8885TIP3    H148070   6.771   5.466  13.179 -0.0561 -1.7075  0.3935
 8885TIP3    H248071   6.625   5.507  13.184  0.9342  2.2147 -0.8094
 8886TIP3   OH248072   0.262   1.200  11.053 -0.1327  0.3693  0.4266
 8886TIP3    H148073   0.263   1.169  10.963 -0.6637 -0.1332  0.5905
 8886TIP3    H248074   0.271   1.295  11.046  1.3681  0.2053 -0.0787
 8887TIP3   OH248075   5.321   3.333  15.813 -0.2165 -0.0246 -0.1959
 8887TIP3    H148076   5.312   3.285  15.731  0.1588  0.6462 -0.6355
 8887TIP3    H248077   5.265   3.410  15.802 -0.0598  0.1358  0.1224
 8888TIP3   OH248078   5.698   1.998  12.827 -0.5838 -0.1877  0.0339
 8888TIP3    H148079   5.661   2.085  12.837  3.3589  2.0415 -3.4482
 8888TIP3    H248080   5.755   1.987  12.904 -1.3476  0.1021  0.6525
 8889TIP3   OH248081   4.086   6.406   4.160 -0.2335 -0.3944  0.0145
 8889TIP3    H148082   4.080   6.317   4.195 -0.9065  0.3763  1.9661
 8889TIP3    H248083   4.002   6.420   4.115 -0.2542 -0.6467 -0.0222
 8890TIP3   OH248084   6.177   5.587  16.823 -0.3186  0.4127 -0.3286
 8890TIP3    H148085   6.165   5.672  16.866  0.7173  0.0232  0.7572
 8890TIP3    H248086   6.170   5.523  16.894 -1.1606 -0.4249 -1.1508
 8891TIP3   OH248087   5.265   3.334  15.138  0.1814 -0.0576 -0.2618
 8891TIP3    H148088   5.354   3.320  15.169  0.8590  0.6241 -1.8449
 8891TIP3    H248089   5.261   3.287  15.054 -1.1025 -0.5110  0.0400
 8892TIP3   OH248090   1.895   6.685  16.176  0.8027 -0.9953 -0.0108
 8892TIP3    H148091   1.958   6.614  16.167 -0.2932 -2.2446  1.9201
 8892TIP3    H248092   1.922   6.733  16.254  1.4936  0.7126 -1.2561
 8893TIP3   OH248093   1.419   4.562  15.093 -0.1540 -0.6792  0.0043
 8893TIP3    H148094   1.459   4.647  15.073  0.5066 -0.7459  0.9997
 8893TIP3    H248095   1.377   4.535  15.011  0.0825  0.3631 -0.4658
 8894TIP3   OH248096   3.632   5.424   4.053 -0.0454 -0.0254  0.2212
 8894TIP3    H148097   3.662   5.490   4.117 -0.4458  1.5860 -1.2150
 8894TIP3    H248098   3.549   5.393   4.088  0.3466 -0.0764  1.1235
 8895TIP3   OH248099   2.238   0.265   5.663  0.1026 -0.4608 -0.0885
 8895TIP3    H148100   2.264   0.202   5.595 -1.1078  1.8086 -2.7666
 8895TIP3    H248101   2.147   0.243   5.683  0.0948 -0.4011 -0.0589
 8896TIP3   OH248102   5.420   3.454   1.125  0.3972  0.0547 -0.0984
 8896TIP3    H148103   5.359   3.454   1.198  2.3449 -2.3450  1.6145
 8896TIP3    H248104   5.372   3.412   1.053 -0.5080 -0.3380  0.7230
 8897TIP3   OH248105   2.548   3.048  12.621  0.9205  0.4615 -0.5631
 8897TIP3    H148106   2.478   3.073  12.560 -0.6450  2.0009  1.8106
 8897TIP3    H248107   2.538   2.953  12.629 -0.7573  0.6323 -0.4252
 8898TIP3   OH248108   0.990   4.296  15.649  0.1231  0.4191  0.4049
 8898TIP3    H148109   0.904   4.283  15.608  0.5031 -0.9304  0.0369
 8898TIP3    H248110   0.969   4.317  15.740 -0.7177  3.2664 -0.3853
 8899TIP3   OH248111   6.748   3.884  14.059  0.4274 -0.0172 -0.1283
 8899TIP3    H148112   6.694   3.811  14.028  0.2980  0.1140 -0.2093
 8899TIP3    H248113   6.696   3.962  14.042  0.4307  0.0706  0.2621
 8900TIP3   OH248114   0.182   6.001   5.772  0.6639  0.1171 -0.0116
 8900TIP3    H148115   0.228   6.033   5.850  0.4342  0.2165  0.0823
 8900TIP3    H248116   0.116   5.941   5.806 -0.2927  1.1513 -0.0351
 8901TIP3   OH248117   3.765   3.803  14.729  0.3492  0.4972 -0.3001
 8901TIP3    H148118   3.836   3.770  14.783  0.3382  0.6995 -0.1623
 8901TIP3    H248119   3.806   3.868  14.672  0.6169 -0.6583 -1.4471
 8902TIP3   OH248120   6.099   4.153   0.740  0.1636  0.0789 -0.6034
 8902TIP3    H148121   6.170   4.153   0.804 -0.8088 -3.7852  0.5897
 8902TIP3    H248122   6.036   4.089   0.774 -2.5830  1.3401 -3.0733
 8903TIP3   OH248123   4.400   5.667  12.847  0.1545 -0.0519 -0.0287
 8903TIP3    H148124   4.317   5.625  12.828  0.1857  0.2664 -0.8665
 8903TIP3    H248125   4.461   5.595  12.862 -0.5167 -0.2822  1.6969
 8904TIP3   OH248126   4.811   2.286   5.907 -0.0415 -0.3347  0.5080
 8904TIP3    H148127   4.788   2.194   5.921 -0.5333 -0.1180  1.1392
 8904TIP3    H248128   4.731   2.335   5.926  0.3436  0.2604  0.6517
 8905TIP3   OH248129   3.267   6.161   4.151  0.1682 -0.1030 -0.3717
 8905TIP3    H148130   3.311   6.240   4.120  0.9298 -0.9620 -1.5270
 8905TIP3    H248131   3.174   6.182   4.150  0.4626  1.3898  1.1027
 8906TIP3   OH248132   0.751   0.859   2.055 -0.6177 -0.5534 -0.1050
 8906TIP3    H148133   0.754   0.955   2.061 -2.7398 -0.4637  0.0493
 8906TIP3    H248134   0.841   0.831   2.071  0.1720  1.4446 -0.8345
 8907TIP3   OH248135   1.018   3.815  15.452 -0.6261 -0.0150 -0.3492
 8907TIP3    H148136   0.969   3.743  15.491 -0.3630 -0.3009 -0.5425
 8907TIP3    H248137   1.063   3.776  15.377 -0.8420  0.4498 -0.7251
 8908TIP3   OH248138   3.387   5.485  17.229 -0.3474  0.3124 -0.5262
 8908TIP3    H148139   3.327   5.541  17.180 -1.4046  1.0862  1.6032
 8908TIP3    H248140   3.474   5.513  17.201 -0.9092  1.3598 -1.2678
 8909TIP3   OH248141   6.344   3.434  12.345  0.2716  0.1588  0.1734
 8909TIP3    H148142   6.421   3.433  12.288 -0.5581 -0.6588 -0.9633
 8909TIP3    H248143   6.273   3.400  12.290 -0.5685 -0.5816  1.6809
 8910TIP3   OH248144   4.205   1.951  15.992  0.4740  0.4050 -0.4860
 8910TIP3    H148145   4.282   1.981  16.040  1.8044  0.3567 -2.5200
 8910TIP3    H248146   4.231   1.957  15.900 -2.2150  1.0601 -1.2375
 8911TIP3   OH248147   4.156   3.088   0.957 -0.0854  0.2709  0.2557
 8911TIP3    H148148   4.174   3.172   0.914  0.5857  0.0572  0.1169
 8911TIP3    H248149   4.069   3.100   0.996 -2.8583 -1.1284 -5.0900
 8912TIP3   OH248150   5.084   5.882  14.252 -0.3973 -0.2611  0.0555
 8912TIP3    H148151   5.006   5.932  14.276  0.3090  0.2433  1.3947
 8912TIP3    H248152   5.050   5.801  14.214 -1.5560  0.7851 -1.1595
 8913TIP3   OH248153   1.821   1.932  13.824  0.2027  0.3995  0.1658
 8913TIP3    H148154   1.881   1.982  13.768 -0.5745  1.3936  0.2236
 8913TIP3    H248155   1.738   1.977  13.817 -0.5689 -1.0004  0.0629
 8914TIP3   OH248156   1.916   3.898   4.189  0.3513  0.2014 -0.1872
 8914TIP3    H148157   1.842   3.955   4.209  0.1002 -0.3558  0.4806
 8914TIP3    H248158   1.936   3.855   4.272 -0.4582 -1.8688 -1.0433
 8915TIP3   OH248159   5.014   4.898  15.815 -0.0045  0.1169  0.0343
 8915TIP3    H148160   5.104   4.891  15.846 -0.1964  0.4721  0.6724
 8915TIP3    H248161   5.019   4.876  15.721  0.5571 -1.0278  0.3198
 8916TIP3   OH248162   2.165   2.278  14.853 -0.1246 -0.5625 -0.2557
 8916TIP3    H148163   2.128   2.349  14.801 -1.0015 -1.1078 -0.3741
 8916TIP3    H248164   2.258   2.299  14.858 -0.4674  0.8849  0.1704
 8917TIP3   OH248165   6.341   3.049   0.568  0.6199 -0.1060 -0.0174
 8917TIP3    H148166   6.433   3.023   0.567  1.0772  1.3546  1.5778
 8917TIP3    H248167   6.318   3.050   0.661 -0.3890  1.5896 -0.2710
 8918TIP3   OH248168   5.179   6.256   0.821  0.2694 -0.1863  0.3658
 8918TIP3    H148169   5.201   6.348   0.833  0.3837 -0.1939  0.2038
 8918TIP3    H248170   5.162   6.224   0.910 -1.1292  0.3295  0.3045
 8919TIP3   OH248171   4.065   5.038   5.135  0.4620 -0.5106  0.5672
 8919TIP3    H148172   4.147   5.007   5.173  0.8435 -0.2794 -0.0535
 8919TIP3    H248173   3.997   4.984   5.176  1.1028 -2.0700 -0.3635
 8920TIP3   OH248174   5.756   1.033   5.934  0.3752 -0.1814 -0.0920
 8920TIP3    H148175   5.669   1.049   5.898  0.0875 -1.3658  0.0369
 8920TIP3    H248176   5.752   1.065   6.024  0.1467 -0.0052 -0.1644
 8921TIP3   OH248177   2.847   4.721   0.940  0.0999  0.4207 -0.2167
 8921TIP3    H148178   2.810   4.645   0.895 -1.6899  0.6990  0.7533
 8921TIP3    H248179   2.815   4.796   0.891 -0.4983  0.6603  0.5335
 8922TIP3   OH248180   1.969   2.185   2.791 -0.4656  0.2835  0.3469
 8922TIP3    H148181   2.064   2.169   2.792 -0.0854  2.2422 -0.6311
 8922TIP3    H248182   1.931   2.109   2.834  1.3858 -1.7790 -1.5322
 8923TIP3   OH248183   5.459   6.636  16.457 -0.1984 -0.1215 -0.1345
 8923TIP3    H148184   5.426   6.548  16.445 -0.7723  0.0984 -0.2022
 8923TIP3    H248185   5.382   6.688  16.480  0.3977  0.0209  1.6491
 8924TIP3   OH248186   0.427   3.048  11.796 -0.3797 -0.3955  0.4175
 8924TIP3    H148187   0.358   3.065  11.732  1.3057  1.4504 -0.9662
 8924TIP3    H248188   0.484   2.983  11.754  0.9418  1.1046 -0.1493
 8925TIP3   OH248189   0.999   1.054   5.859  0.0581 -0.0541  0.4835
 8925TIP3    H148190   0.987   1.086   5.770  0.3474  1.2655  0.9134
 8925TIP3    H248191   0.927   1.093   5.908 -0.1969 -0.9161  0.7938
 8926TIP3   OH248192   2.112   4.316   1.380  0.0833 -0.4174  0.0118
 8926TIP3    H148193   2.051   4.249   1.349  0.4636  1.4296 -5.2578
 8926TIP3    H248194   2.178   4.322   1.311  2.8237  1.9471  2.7015
 8927TIP3   OH248195   2.987   2.351   5.317 -0.2567  0.1738 -0.3847
 8927TIP3    H148196   3.018   2.426   5.368 -0.7599 -0.3522  0.7005
 8927TIP3    H248197   2.957   2.288   5.382  0.4719 -1.1183 -1.2698
 8928TIP3   OH248198   5.985   1.345  12.509 -0.0354 -0.3265 -0.1963
 8928TIP3    H148199   5.973   1.281  12.439  0.8109 -0.3057 -0.3698
 8928TIP3    H248200   6.069   1.386  12.489  0.3175 -0.4847  0.9614
 8929TIP3   OH248201   2.288   6.780   0.336  0.2704 -0.1987  0.5766
 8929TIP3    H148202   2.229   6.731   0.279 -0.8827  0.4373  1.1949
 8929TIP3    H248203   2.368   6.728   0.339 -0.1398 -0.8957 -0.5592
 8930TIP3   OH248204   3.851   0.886   2.072 -0.2506 -0.2556 -0.3911
 8930TIP3    H148205   3.815   0.966   2.110  1.1647 -0.0870  0.6357
 8930TIP3    H248206   3.846   0.822   2.143  2.7690  0.1650  0.2522
 8931TIP3   OH248207   0.419   6.357   0.444  0.1410  0.5527 -0.4061
 8931TIP3    H148208   0.510   6.327   0.456  0.0001  0.4697  0.4667
 8931TIP3    H248209   0.428   6.447   0.413  0.5510 -0.0534 -2.1353
 8932TIP3   OH248210   4.587   3.781   5.283 -0.0157  0.6688  0.3357
 8932TIP3    H148211   4.570   3.854   5.343 -0.3614  0.0030  1.0463
 8932TIP3    H248212   4.513   3.722   5.295  0.2283  0.2350 -0.2939
 8933TIP3   OH248213   6.726   1.773   1.090 -0.3654 -0.7069  0.0413
 8933TIP3    H148214   6.655   1.785   1.154  0.7427 -1.3950  1.4187
 8933TIP3    H248215   6.747   1.680   1.095  2.5011 -0.0402  1.6764
 8934TIP3   OH248216   3.644   1.715   0.656 -0.1529 -0.0212  0.2304
 8934TIP3    H148217   3.656   1.697   0.749  0.5554  1.6957  0.4970
 8934TIP3    H248218   3.717   1.772   0.633 -0.6250  0.0096 -1.2544
 8935TIP3   OH248219   2.952   0.726   4.035 -0.4195 -0.0704 -0.3125
 8935TIP3    H148220   2.961   0.631   4.038  0.5873  0.0102 -0.5516
 8935TIP3    H248221   2.986   0.751   3.949  2.6274  0.8185  1.0799
 8936TIP3   OH248222   1.196   0.915  12.724  0.4058 -0.6287  0.0078
 8936TIP3    H148223   1.118   0.904  12.669  0.4491 -0.5647 -0.0666
 8936TIP3    H248224   1.180   0.997  12.771  1.2064  0.2963 -1.2986
 8937TIP3   OH248225   3.496   2.554   5.934  0.1098 -0.2667  0.3831
 8937TIP3    H148226   3.538   2.564   6.019  1.1985  0.3701 -0.2264
 8937TIP3    H248227   3.567   2.532   5.874 -0.6216 -0.5424 -0.3936
 8938TIP3   OH248228   2.585   0.600   5.534  0.1779 -0.2259 -0.3086
 8938TIP3    H148229   2.583   0.650   5.616  0.3145 -1.7960  0.6758
 8938TIP3    H248230   2.538   0.654   5.472 -0.7189  0.5990  1.0529
 8939TIP3   OH248231   4.059   6.746  10.690  0.1318  0.5472 -0.0057
 8939TIP3    H148232   4.100   6.666  10.658  0.0254  0.5561 -0.1659
 8939TIP3    H248233   4.123   6.782  10.752  0.2667  0.4436 -0.0829
 8940TIP3   OH248234   3.419   0.852  14.499  0.2870  0.2936 -0.1586
 8940TIP3    H148235   3.442   0.813  14.414 -1.1089 -2.8720  0.8230
 8940TIP3    H248236   3.490   0.825  14.557  0.7945  1.7289 -0.0890
 8941TIP3   OH248237   5.791   0.050   1.124  0.1288  0.4329 -0.1254
 8941TIP3    H148238   5.788   0.138   1.088  1.2397  0.8582  0.7679
 8941TIP3    H248239   5.857   0.055   1.194  0.0534 -1.0468  0.0743
 8942TIP3   OH248240   1.770   2.477  12.694 -0.0025  0.3492 -0.1275
 8942TIP3    H148241   1.849   2.423  12.705  1.6569  2.5629 -0.9019
 8942TIP3    H248242   1.704   2.416  12.660  1.4072 -1.5134  0.4073
 8943TIP3   OH248243   6.012   2.850   0.430  0.0378  0.1877  0.4020
 8943TIP3    H148244   6.081   2.794   0.467  2.1717  2.3868 -0.1454
 8943TIP3    H248245   5.983   2.904   0.504  0.8079  1.1441  0.0032
 8944TIP3   OH248246   2.038   3.624   3.236  0.3505  0.0773 -0.6695
 8944TIP3    H148247   1.991   3.665   3.164 -0.5495  0.4335  0.1161
 8944TIP3    H248248   2.028   3.530   3.221  0.4984  0.1493 -1.2201
 8945TIP3   OH248249   6.635   2.329  13.157 -0.6646  0.0797 -0.2062
 8945TIP3    H148250   6.590   2.322  13.241  1.7211  2.1828  1.3536
 8945TIP3    H248251   6.675   2.243  13.144 -2.3252 -0.7441  0.0098
 8946TIP3   OH248252   0.096   3.797  12.029 -0.0375 -0.4044 -0.2380
 8946TIP3    H148253   0.172   3.849  12.004  0.9543 -1.8093 -0.2087
 8946TIP3    H248254   0.101   3.719  11.973 -1.4829 -0.4923 -0.2712
 8947TIP3   OH248255   6.229   6.628  12.120  0.2242  0.0593 -0.0654
 8947TIP3    H148256   6.259   6.710  12.082  0.8315 -0.5168 -0.8375
 8947TIP3    H248257   6.134   6.640  12.130 -0.0612 -0.0261 -2.4023
 8948TIP3   OH248258   0.138   5.679   1.270  0.3916 -0.3628  0.6265
 8948TIP3    H148259   0.059   5.640   1.234  0.3954  0.2663 -0.0834
 8948TIP3    H248260   0.153   5.633   1.353 -0.5159 -0.7170  0.5926
 8949TIP3   OH248261   5.505   3.002  12.679  0.0970 -0.3377 -0.6840
 8949TIP3    H148262   5.579   3.030  12.627 -1.1583  0.9656 -1.7952
 8949TIP3    H248263   5.436   2.982  12.615 -0.1673 -2.6483  0.2523
 8950TIP3   OH248264   2.187   4.253  16.538 -0.2050 -0.1132  0.4212
 8950TIP3    H148265   2.190   4.164  16.574 -2.2956  0.7657  2.9282
 8950TIP3    H248266   2.241   4.305  16.598 -0.5493  0.6796  0.0534
 8951TIP3   OH248267   2.790   5.896  10.476  0.3179 -0.5563  0.1060
 8951TIP3    H148268   2.806   5.990  10.484 -1.7505 -0.0438 -1.4243
 8951TIP3    H248269   2.777   5.881  10.383 -0.0379 -2.2532  0.4115
 8952TIP3   OH248270   3.846   4.658   5.386  0.0701 -0.0400 -0.1764
 8952TIP3    H148271   3.790   4.659   5.464 -1.2472 -1.9471 -1.0597
 8952TIP3    H248272   3.894   4.576   5.392 -0.1372 -0.2599 -1.4376
 8953TIP3   OH248273   0.793   1.873  14.010 -0.5595 -0.0315  0.3040
 8953TIP3    H148274   0.811   1.923  14.090  1.5078 -1.3297  0.6768
 8953TIP3    H248275   0.814   1.934  13.939 -2.3780  1.1182  0.6866
 8954TIP3   OH248276   2.518   2.809   2.980  0.0191  0.0319 -0.2432
 8954TIP3    H148277   2.488   2.789   2.891  0.9439  1.6179 -0.9447
 8954TIP3    H248278   2.452   2.771   3.037 -0.6976 -0.8385 -1.6220
 8955TIP3   OH248279   1.435   5.840  15.234 -0.2812  0.5345 -0.0514
 8955TIP3    H148280   1.440   5.746  15.246  0.4680  0.6073  0.2097
 8955TIP3    H248281   1.356   5.853  15.182 -0.5708 -0.2069  0.2000
 8956TIP3   OH248282   3.040   0.197  12.327  1.2010 -0.0032 -0.3653
 8956TIP3    H148283   2.945   0.190  12.325  1.2990 -1.1915 -2.5687
 8956TIP3    H248284   3.062   0.249  12.250  2.3949 -0.7756 -0.5642
 8957TIP3   OH248285   1.443   5.724  12.460 -0.2975 -0.0878 -0.4140
 8957TIP3    H148286   1.462   5.785  12.531  1.0878 -1.5137  0.4918
 8957TIP3    H248287   1.530   5.697  12.429 -0.8981 -0.3108 -1.9171
 8958TIP3   OH248288   4.099   0.322   0.979  0.3748 -0.1847  0.2684
 8958TIP3    H148289   4.014   0.347   0.943  0.0285 -1.1258  0.4076
 8958TIP3    H248290   4.159   0.328   0.905 -0.0913 -0.8826 -0.1801
 8959TIP3   OH248291   6.020   2.952   0.744  0.0285 -0.1710 -0.2403
 8959TIP3    H148292   5.964   3.020   0.709 -1.3033 -1.2053 -0.1572
 8959TIP3    H248293   6.045   2.983   0.831 -0.3259  0.3255 -0.3162
 8960TIP3   OH248294   3.536   2.371  11.813 -0.3843 -0.8314 -0.1929
 8960TIP3    H148295   3.624   2.361  11.776  0.9586  1.7006  2.1885
 8960TIP3    H248296   3.511   2.282  11.839  1.0334 -1.7296 -1.8019
 8961TIP3   OH248297   3.515   6.096  14.718 -0.4429 -0.5413  0.0266
 8961TIP3    H148298   3.466   6.083  14.636 -0.1653 -0.1307 -0.2089
 8961TIP3    H248299   3.594   6.043  14.708 -0.4986 -0.6386  0.1062
 8962TIP3   OH248300   3.860   1.159  12.142 -0.1304  0.0650 -0.2225
 8962TIP3    H148301   3.782   1.125  12.099 -0.2487  0.2985 -0.1940
 8962TIP3    H248302   3.827   1.201  12.222  0.2766 -2.0803  1.1128
 8963TIP3   OH248303   2.091   6.502  16.163  0.3616  0.4632 -0.1592
 8963TIP3    H148304   2.054   6.417  16.139 -0.0771  0.3895  0.7569
 8963TIP3    H248305   2.151   6.482  16.235  0.9928  0.8035 -0.5831
 8964TIP3   OH248306   2.639   5.633   0.864 -0.3121 -0.1436  0.4110
 8964TIP3    H148307   2.581   5.704   0.838  0.3841  0.0400 -0.7076
 8964TIP3    H248308   2.595   5.553   0.833  0.8042  0.1136 -2.0185
 8965TIP3   OH248309   1.981   3.082  13.957  0.4995 -0.5834  0.0422
 8965TIP3    H148310   1.987   3.139  14.034  2.5824  1.5535 -1.5985
 8965TIP3    H248311   1.888   3.082  13.935  0.3880  1.8897  0.3524
 8966TIP3   OH248312   0.090   2.235  15.480  0.4915  0.5406 -0.1126
 8966TIP3    H148313   0.140   2.203  15.555  0.2820 -1.1522 -0.6621
 8966TIP3    H248314  -0.002   2.224  15.505  0.4217  0.1842 -0.5007
 8967TIP3   OH248315   3.649   4.917  12.640  0.3227 -0.1847  0.3711
 8967TIP3    H148316   3.728   4.886  12.596  1.2958 -0.5583  2.3551
 8967TIP3    H248317   3.650   5.012  12.628  0.1320 -0.3472 -1.0996
 8968TIP3   OH248318   2.325   3.504   5.127  0.1357 -0.4273  0.8276
 8968TIP3    H148319   2.319   3.579   5.068  1.5930 -1.0079 -0.0911
 8968TIP3    H248320   2.265   3.525   5.199  1.0136  1.8915  0.9177
 8969TIP3   OH248321   0.561   5.217   6.787 -0.7518  0.4911  0.3694
 8969TIP3    H148322   0.486   5.188   6.839 -0.3068  1.2166  1.4491
 8969TIP3    H248323   0.634   5.162   6.817  0.3105  3.2273  3.1019
 8970TIP3   OH248324   3.760   4.956  15.981 -0.0456  0.5572 -0.1537
 8970TIP3    H148325   3.831   4.920  16.035  0.8588 -1.4256 -2.5348
 8970TIP3    H248326   3.805   5.001  15.909 -1.2244  1.9704 -0.0247
 8971TIP3   OH248327   4.928   4.174  12.951  0.4355  0.4247 -0.0964
 8971TIP3    H148328   4.908   4.082  12.935  0.0502  0.5214 -0.1728
 8971TIP3    H248329   5.007   4.190  12.898 -0.5282  0.6005 -1.5117
 8972TIP3   OH248330   0.621   3.994   1.342  0.0549 -0.2966  0.2127
 8972TIP3    H148331   0.597   4.050   1.416 -0.4157 -1.9135  1.3104
 8972TIP3    H248332   0.716   3.986   1.348 -0.0563 -1.0895  1.1621
 8973TIP3   OH248333   2.636   2.215   0.547 -0.1944  0.0663  0.4086
 8973TIP3    H148334   2.608   2.154   0.615  4.0338 -1.1058  1.1875
 8973TIP3    H248335   2.683   2.283   0.594 -0.5107  1.2866 -0.9970
 8974TIP3   OH248336   2.007   6.634   5.580 -0.5311  0.3620  0.1409
 8974TIP3    H148337   1.960   6.718   5.576 -1.9903 -0.4651 -0.4480
 8974TIP3    H248338   1.942   6.569   5.554  0.8925 -0.8416 -0.4842
 8975TIP3   OH248339   2.109   1.170   2.055  0.5965  0.7245  0.3186
 8975TIP3    H148340   2.082   1.214   2.136  1.9087 -0.8823  1.6856
 8975TIP3    H248341   2.028   1.132   2.020  0.3714 -0.6273  2.2100
 8976TIP3   OH248342   4.078   3.443  12.362  0.2481  0.5493 -0.0352
 8976TIP3    H148343   4.131   3.456  12.284 -0.4435 -3.6524 -1.3333
 8976TIP3    H248344   4.135   3.396  12.423 -0.3514  0.6302  0.6051
 8977TIP3   OH248345   5.887   6.235  11.272  0.1001 -0.4027  0.2811
 8977TIP3    H148346   5.887   6.169  11.202 -0.8933 -0.4634  0.3358
 8977TIP3    H248347   5.887   6.184  11.353 -0.1575 -0.3365  0.3242
 8978TIP3   OH248348   1.961   1.413  11.592  0.2429  0.2737  0.0198
 8978TIP3    H148349   1.941   1.502  11.562  0.0527  1.0948  2.4529
 8978TIP3    H248350   2.049   1.419  11.629 -0.4451 -0.1035  1.7824
 8979TIP3   OH248351   6.573   0.072  12.429 -0.0043  0.0052 -0.2772
 8979TIP3    H148352   6.586   0.092  12.522  0.6332 -0.8210 -0.1769
 8979TIP3    H248353   6.633  -0.001  12.412 -2.2428 -1.8105 -0.6064
 8980TIP3   OH248354   1.317   1.650   1.882  0.0313 -0.4306 -0.1149
 8980TIP3    H148355   1.326   1.732   1.833 -0.5978 -0.8993 -1.0168
 8980TIP3    H248356   1.395   1.647   1.938 -0.4753  1.3047  0.7094
 8981TIP3   OH248357   4.348   3.858   5.078 -0.2639 -0.0351 -0.2170
 8981TIP3    H148358   4.389   3.921   5.138  0.8428 -1.9324  1.0469
 8981TIP3    H248359   4.279   3.817   5.129 -1.8399  1.0337 -1.4455
 8982TIP3   OH248360   5.346   1.145  15.009  0.2558  0.2785 -0.0403
 8982TIP3    H148361   5.349   1.241  15.002  0.4339  0.2667 -0.1205
 8982TIP3    H248362   5.272   1.119  14.955  0.3660  0.3512 -0.2253
 8983TIP3   OH248363   5.834   3.146  11.157 -0.4559 -0.2067  0.0694
 8983TIP3    H148364   5.880   3.114  11.235 -1.4567 -0.4932  0.5395
 8983TIP3    H248365   5.904   3.163  11.094  0.3441 -0.1911  0.9502
 8984TIP3   OH248366   0.004   1.721   5.778  0.1106  0.1995 -0.1616
 8984TIP3    H148367  -0.027   1.796   5.727  0.0773 -1.4707 -2.6921
 8984TIP3    H248368  -0.019   1.645   5.725  1.5058 -1.5212  1.6394
 8985TIP3   OH248369   5.465   4.438  12.937  0.2872 -0.2567  0.0262
 8985TIP3    H148370   5.392   4.419  12.878 -0.3227 -2.6391  1.4912
 8985TIP3    H248371   5.500   4.352  12.962  2.4051  0.7793  0.8441
 8986TIP3   OH248372   1.254   5.270   2.005  0.3629 -0.0555 -0.3354
 8986TIP3    H148373   1.317   5.307   2.067  0.1660  0.5946 -0.5213
 8986TIP3    H248374   1.292   5.185   1.980 -0.4882 -1.2487  2.1754
 8987TIP3   OH248375   3.740   4.714   4.102  0.0731 -0.3231  0.5459
 8987TIP3    H148376   3.666   4.677   4.149  0.6945 -1.6997  0.4659
 8987TIP3    H248377   3.808   4.724   4.170  0.0614  0.2479  0.4757
 8988TIP3   OH248378   5.916   2.498  13.001 -0.1202  0.5069  0.0646
 8988TIP3    H148379   5.863   2.506  12.921 -1.0918 -1.1221  0.5281
 8988TIP3    H248380   5.901   2.409  13.031  2.5815  0.1482  0.4540
 8989TIP3   OH248381   5.662   5.016  12.866 -0.6792 -0.4211  0.4542
 8989TIP3    H148382   5.617   4.982  12.944 -0.9610  1.8528  1.3147
 8989TIP3    H248383   5.608   4.986  12.793 -1.2649 -1.2701  1.2136
 8990TIP3   OH248384   4.028   5.127   2.545 -0.1690 -0.3662  0.4666
 8990TIP3    H148385   3.977   5.075   2.483  0.4870 -0.4571  0.0001
 8990TIP3    H248386   3.968   5.194   2.575 -0.6681 -0.6809  0.1733
 8991TIP3   OH248387   6.405   5.073   1.572  0.6685  0.4636 -0.3934
 8991TIP3    H148388   6.480   5.094   1.628 -0.4801  0.8333  1.0152
 8991TIP3    H248389   6.439   5.006   1.512  1.9123  0.0681  0.7252
 8992TIP3   OH248390   1.184   2.093   1.751 -0.0138  1.2824  0.4489
 8992TIP3    H148391   1.222   2.164   1.700  0.4561  0.5392 -0.2521
 8992TIP3    H248392   1.114   2.135   1.802  0.3410  2.2618  0.1444
 8993TIP3   OH248393   6.305   0.912   5.612 -0.5311  0.0367 -0.8707
 8993TIP3    H148394   6.305   0.951   5.699 -3.7330  1.8407 -1.5980
 8993TIP3    H248395   6.255   0.831   5.622  0.5964 -0.6548 -0.7067
 8994TIP3   OH248396   3.487   2.419  11.325  0.3147  0.6550 -0.0783
 8994TIP3    H148397   3.429   2.348  11.299  0.0891  0.2992  1.3353
 8994TIP3    H248398   3.434   2.498  11.320 -0.0574  0.4386  0.3935
 8995TIP3   OH248399   1.366   2.060   5.445 -0.3082  0.7299  0.0814
 8995TIP3    H148400   1.305   2.085   5.375  1.1951 -0.6295 -1.7659
 8995TIP3    H248401   1.442   2.026   5.399 -0.3870 -2.8101  2.3815
 8996TIP3   OH248402   5.848   1.345   2.891  0.4195  0.5340 -0.0640
 8996TIP3    H148403   5.846   1.360   2.985  0.8778 -0.0043  0.0319
 8996TIP3    H248404   5.770   1.292   2.873  0.1123  0.9777 -0.0498
 8997TIP3   OH248405   2.224   5.224   1.883  0.1673 -0.0740 -0.2150
 8997TIP3    H148406   2.177   5.195   1.962 -0.6002  2.2376  0.2252
 8997TIP3    H248407   2.312   5.188   1.893 -0.0733 -0.2719  1.4322
 8998TIP3   OH248408   2.175   0.393   4.750 -0.4688 -0.5426  0.4831
 8998TIP3    H148409   2.157   0.482   4.720  1.3435  0.4212  2.1678
 8998TIP3    H248410   2.111   0.339   4.703  0.0182  1.3160 -2.4157
 8999TIP3   OH248411   6.047   2.585  13.683 -0.1302  0.0314  0.3482
 8999TIP3    H148412   5.956   2.610  13.699 -0.1766 -0.5392  0.9962
 8999TIP3    H248413   6.052   2.494  13.710  0.0050 -0.7465 -2.1354
 9000TIP3   OH248414   4.355   0.561   4.051  0.2730  0.3817  0.0890
 9000TIP3    H148415   4.282   0.500   4.035  0.9121  0.1386 -2.0317
 9000TIP3    H248416   4.384   0.540   4.139  0.2685 -2.2002 -0.4669
 9001TIP3   OH248417   6.573   0.517   1.188 -0.0658 -0.5732  0.1370
 9001TIP3    H148418   6.520   0.559   1.255 -0.2713 -0.4903 -0.0766
 9001TIP3    H248419   6.657   0.562   1.192 -0.9239  1.2250 -1.4426
 9002TIP3   OH248420   0.295   3.020  14.295  0.3149 -0.0783 -1.1340
 9002TIP3    H148421   0.338   3.047  14.214  1.9068  0.1745 -0.2180
 9002TIP3    H248422   0.351   3.054  14.365 -1.2983  0.1111  0.0805
 9003TIP3   OH248423   5.848   6.679  11.364  0.8177 -0.2652  0.4922
 9003TIP3    H148424   5.843   6.744  11.434 -1.3569 -0.8693  0.9321
 9003TIP3    H248425   5.790   6.713  11.295  0.7084 -1.0654  0.1813
 9004TIP3   OH248426   4.533   0.139  11.232  0.6716 -0.3459  0.1882
 9004TIP3    H148427   4.497   0.167  11.148 -1.2661 -1.0003  0.7791
 9004TIP3    H248428   4.620   0.181  11.236  0.8460 -0.4110 -2.1749
 9005TIP3   OH248429   0.998   4.736  14.699 -0.1869 -0.6783  0.0967
 9005TIP3    H148430   0.940   4.807  14.727  0.5052  1.1876 -3.0082
 9005TIP3    H248431   1.086   4.765  14.723  0.2839  0.3764 -2.6761
 9006TIP3   OH248432   4.468   3.289  14.197  0.2567 -0.2072  0.1163
 9006TIP3    H148433   4.459   3.200  14.233 -0.9047 -0.4006 -0.6397
 9006TIP3    H248434   4.472   3.345  14.275 -2.9745 -0.5486  0.6156
 9007TIP3   OH248435   5.235   5.231  14.795  0.1774  0.7408 -0.0618
 9007TIP3    H148436   5.292   5.193  14.728  1.0708  1.3604  0.3324
 9007TIP3    H248437   5.147   5.216  14.763  0.5057 -1.5354 -0.0023
 9008TIP3   OH248438   0.084   0.024  13.497 -0.2410  0.2473 -0.1811
 9008TIP3    H148439   0.055  -0.061  13.533  3.0080 -0.1150  1.8260
 9008TIP3    H248440   0.077   0.084  13.571  1.6639  0.6659 -0.3009
 9009TIP3   OH248441   6.430   0.634   1.394 -0.2878 -0.0105  0.2400
 9009TIP3    H148442   6.435   0.565   1.460  1.8161  1.5645  1.8415
 9009TIP3    H248443   6.337   0.650   1.382 -0.7338 -1.6046  1.4773
 9010TIP3   OH248444   4.149   6.640   1.548  0.5847 -0.5979 -0.5074
 9010TIP3    H148445   4.107   6.666   1.465 -0.0667  1.4034  0.4246
 9010TIP3    H248446   4.082   6.588   1.592 -0.0513  0.5449 -0.0991
 9011TIP3   OH248447   5.423   3.649  15.515  0.1284  0.0757 -0.3106
 9011TIP3    H148448   5.454   3.563  15.486 -0.6696 -0.4179  0.2842
 9011TIP3    H248449   5.450   3.655  15.606 -0.2120  0.2653 -0.2199
 9012TIP3   OH248450   0.375   5.334  15.177 -0.0772  0.0366  0.2954
 9012TIP3    H148451   0.298   5.353  15.230 -0.1186 -2.5675  1.2086
 9012TIP3    H248452   0.360   5.247  15.141  2.4187 -0.5041  0.4685
 9013TIP3   OH248453   2.888   6.464   3.932  0.2072  0.5966  0.2256
 9013TIP3    H148454   2.825   6.411   3.883 -0.0182  0.2486  0.8873
 9013TIP3    H248455   2.844   6.482   4.015  0.7562  0.8377  0.4632
 9014TIP3   OH248456   6.702   1.152  10.428 -0.2864 -0.0230 -0.1835
 9014TIP3    H148457   6.659   1.148  10.513  0.8225  1.6974  0.4815
 9014TIP3    H248458   6.687   1.065  10.390  0.4359 -1.3449  2.3765
 9015TIP3   OH248459   1.028   4.989  17.171 -0.1126  0.2451  0.2299
 9015TIP3    H148460   0.975   5.044  17.113  0.5726  0.9046  0.2216
 9015TIP3    H248461   1.117   4.996  17.136  0.0596 -0.4901  0.5158
 9016TIP3   OH248462   2.303   1.998  15.692 -0.4365 -0.0051  0.4123
 9016TIP3    H148463   2.370   2.007  15.759 -0.9377  1.8478  0.6811
 9016TIP3    H248464   2.243   1.931  15.726  0.9892 -1.3334  0.3752
 9017TIP3   OH248465   4.846   0.621  17.228  0.4293 -0.4063 -0.4568
 9017TIP3    H148466   4.763   0.581  17.256  0.5570  0.1780  0.8102
 9017TIP3    H248467   4.912   0.581  17.284  0.9012 -0.2849 -0.9249
 9018TIP3   OH248468   6.010   1.994   6.060  0.0593  0.2955 -0.3775
 9018TIP3    H148469   5.949   2.053   6.104 -0.3058  0.8065 -1.5655
 9018TIP3    H248470   6.092   2.044   6.055  0.2372  0.0572  0.1489
 9019TIP3   OH248471   0.474   5.434   0.277  0.3031 -0.0837 -0.5306
 9019TIP3    H148472   0.427   5.481   0.207  0.1301 -0.0142 -0.3696
 9019TIP3    H248473   0.456   5.485   0.356  1.3787  0.4302 -0.6195
 9020TIP3   OH248474   0.941   5.852   5.083 -0.9537 -0.6198 -0.1671
 9020TIP3    H148475   0.861   5.900   5.061 -1.0959 -0.8698 -0.1885
 9020TIP3    H248476   0.915   5.795   5.156 -0.5086  0.1445  0.6023
 9021TIP3   OH248477   1.373   6.455   5.666  0.0186 -0.0291 -0.5860
 9021TIP3    H148478   1.424   6.419   5.738  0.0755  1.6030  0.2259
 9021TIP3    H248479   1.285   6.467   5.703 -0.1905 -0.0699 -1.0719
 9022TIP3   OH248480   3.289   4.127  15.148  0.1449 -0.3414  0.3955
 9022TIP3    H148481   3.264   4.185  15.077  1.4993 -2.8438 -2.2047
 9022TIP3    H248482   3.209   4.118  15.201 -1.2420  0.5312 -1.5060
 9023TIP3   OH248483   4.636   2.450   0.401 -0.4552 -0.2307 -0.1027
 9023TIP3    H148484   4.714   2.458   0.457  0.1693 -2.1439 -0.6448
 9023TIP3    H248485   4.671   2.452   0.312 -1.3761  2.1132 -0.4232
 9024TIP3   OH248486   5.351   0.162  17.060 -0.2584  0.1309 -0.4016
 9024TIP3    H148487   5.399   0.230  17.014 -0.4175 -0.4085 -1.3695
 9024TIP3    H248488   5.380   0.080  17.020 -2.3278 -0.1750 -1.3326
 9025TIP3   OH248489   5.271   4.796  16.017  0.5839 -0.7420  0.1107
 9025TIP3    H148490   5.198   4.846  16.052 -0.0151 -2.7939  1.9373
 9025TIP3    H248491   5.347   4.828  16.065  0.3906 -0.7364  0.4134
 9026TIP3   OH248492   4.967   4.588  11.720 -0.6255 -0.3543  0.0469
 9026TIP3    H148493   4.904   4.572  11.650  0.4444 -2.2330 -0.5294
 9026TIP3    H248494   4.914   4.616  11.795 -1.8335  1.0145 -1.3064
 9027TIP3   OH248495   6.022   1.657   5.845  0.2874  0.2607  0.3929
 9027TIP3    H148496   6.041   1.751   5.840 -0.5513  0.4078 -0.2385
 9027TIP3    H248497   6.092   1.615   5.795  0.7223  0.5461  0.7674
 9028TIP3   OH248498   2.019   4.789  14.170 -0.4509  0.2720  0.4253
 9028TIP3    H148499   2.032   4.712  14.226 -1.0607 -0.4319 -0.3816
 9028TIP3    H248500   1.972   4.755  14.094  1.9052  0.8776 -1.3346
 9029TIP3   OH248501   2.962   1.753  11.510 -0.0438  0.3636 -0.1284
 9029TIP3    H148502   2.904   1.829  11.501 -0.5313  0.0955  0.6480
 9029TIP3    H248503   3.041   1.777  11.463 -0.3012  1.2450 -0.1213
 9030TIP3   OH248504   4.356   0.696   2.082  0.1125 -0.2094  0.1644
 9030TIP3    H148505   4.439   0.648   2.084  0.8339  0.9326 -1.2712
 9030TIP3    H248506   4.341   0.715   1.989 -1.0268  0.8589  0.5465
 9031TIP3   OH248507   4.221   2.463  12.362  0.3326 -0.1631  0.0054
 9031TIP3    H148508   4.261   2.546  12.388  2.3726 -0.9313 -0.6081
 9031TIP3    H248509   4.127   2.481  12.364  0.7373  2.2903 -0.5574
 9032TIP3   OH248510   4.999   2.871  13.714 -0.1254 -0.1603 -0.4165
 9032TIP3    H148511   4.948   2.807  13.763  0.2032 -1.3018 -1.5335
 9032TIP3    H248512   4.961   2.869  13.626  0.5689  0.4364 -0.7350
 9033TIP3   OH248513   1.350   3.902   4.326 -0.1465 -0.2417  0.2681
 9033TIP3    H148514   1.375   3.860   4.243  0.5074 -2.2634  1.4679
 9033TIP3    H248515   1.261   3.870   4.342 -0.8985  1.4330 -0.4503
 9034TIP3   OH248516   6.085   5.142  13.805 -0.2566  0.4242 -0.0820
 9034TIP3    H148517   6.178   5.119  13.803  0.3882  2.9786 -0.8122
 9034TIP3    H248518   6.072   5.181  13.891 -0.7603 -0.2860  0.1706
 9035TIP3   OH248519   6.125   0.237   5.579 -0.3506 -0.4351 -0.3923
 9035TIP3    H148520   6.053   0.206   5.524  0.1870 -1.4727 -0.5240
 9035TIP3    H248521   6.099   0.213   5.668 -0.2834 -0.5991 -0.4161
 9036TIP3   OH248522   1.235   3.077  16.117  0.1779  0.8439 -0.0220
 9036TIP3    H148523   1.281   3.000  16.150 -0.3144  0.7866  0.5442
 9036TIP3    H248524   1.261   3.083  16.025 -1.1113 -0.9952 -0.5404
 9037TIP3   OH248525   3.454   5.815  12.046 -0.7715 -0.4556  0.3581
 9037TIP3    H148526   3.493   5.841  12.130 -0.5573 -1.5492  0.5933
 9037TIP3    H248527   3.498   5.871  11.982  0.8695 -1.3487  0.6755
 9038TIP3   OH248528   1.215   6.570  10.947 -0.0786 -0.2932 -0.0342
 9038TIP3    H148529   1.182   6.481  10.942 -1.0326 -0.1461  2.8752
 9038TIP3    H248530   1.141   6.624  10.920  0.9152 -0.3549 -3.1825
 9039TIP3   OH248531   1.003   4.571   4.817 -0.2455  0.2585  0.1275
 9039TIP3    H148532   1.078   4.599   4.764 -0.1426  1.3709  0.8457
 9039TIP3    H248533   0.952   4.516   4.758  1.3917 -0.9411 -0.2232
 9040TIP3   OH248534   5.104   3.329  14.609  0.3860 -0.3538  0.2107
 9040TIP3    H148535   5.067   3.364  14.528  1.2146  2.7642  1.1125
 9040TIP3    H248536   5.192   3.366  14.613 -0.1499  0.7216  3.2093
 9041TIP3   OH248537   3.983   3.927   5.100  0.4895  0.1199  0.9005
 9041TIP3    H148538   3.995   3.850   5.044  1.3610  0.3288  0.7937
 9041TIP3    H248539   3.889   3.930   5.118  0.2046  0.0871 -0.5918
 9042TIP3   OH248540   4.113   0.826   3.817 -0.0284  0.1062  0.1211
 9042TIP3    H148541   4.023   0.819   3.849 -0.0091  1.3631  0.4759
 9042TIP3    H248542   4.166   0.792   3.889 -0.1477  0.4580  0.3775
 9043TIP3   OH248543   2.079   0.951  14.362  0.3517  0.0572 -0.1256
 9043TIP3    H148544   2.162   0.997  14.376  0.1354 -0.0576  1.6501
 9043TIP3    H248545   2.066   0.899  14.441 -1.3604 -0.0257 -0.4278
 9044TIP3   OH248546   3.263   2.351   2.802 -0.9965 -0.0772  0.1920
 9044TIP3    H148547   3.261   2.393   2.888  0.8195  0.4375  0.0276
 9044TIP3    H248548   3.331   2.400   2.754 -3.0778  0.6980 -2.0913
 9045TIP3   OH248549   1.570   0.094   5.648 -0.5462 -0.1483 -0.0099
 9045TIP3    H148550   1.554   0.081   5.742 -1.3092 -1.7670 -0.3346
 9045TIP3    H248551   1.484   0.079   5.608 -0.4758  1.6801 -0.8744
 9046TIP3   OH248552   4.597   4.101  12.168  0.1678 -0.0428 -0.6270
 9046TIP3    H148553   4.668   4.065  12.114 -0.6491 -1.4050 -0.8183
 9046TIP3    H248554   4.551   4.161  12.109  0.0903 -0.5089 -1.0436
 9047TIP3   OH248555   4.894   3.893  11.069 -0.3880  0.1264  0.5826
 9047TIP3    H148556   4.810   3.861  11.103 -0.0131 -1.3882  0.0855
 9047TIP3    H248557   4.951   3.895  11.146  0.3116 -2.8108  0.1771
 9048TIP3   OH248558   2.572   0.558   2.670 -0.1490  0.3363 -0.8137
 9048TIP3    H148559   2.484   0.520   2.669 -0.2138  0.4899 -0.9239
 9048TIP3    H248560   2.568   0.625   2.738 -0.2811  0.7343 -1.2103
 9049TIP3   OH248561   4.932   6.509   3.518 -0.3548 -0.1517 -0.5236
 9049TIP3    H148562   4.914   6.424   3.477 -2.0260  0.1481 -0.4464
 9049TIP3    H248563   4.890   6.572   3.460  0.9101  0.6411 -0.5992
 9050TIP3   OH248564   1.734   1.800   4.528  0.3455 -0.0581 -0.0762
 9050TIP3    H148565   1.651   1.844   4.508 -0.9579 -2.7356 -0.7463
 9050TIP3    H248566   1.743   1.734   4.459  1.5019 -1.8494  1.7485
 9051TIP3   OH248567   2.594   0.426   0.550  0.5182 -0.3425  0.2019
 9051TIP3    H148568   2.516   0.477   0.571 -1.2396 -1.8134 -2.3720
 9051TIP3    H248569   2.572   0.337   0.577  0.6962 -1.0304 -1.8173
 9052TIP3   OH248570   3.589   0.817   3.425 -0.5344  0.2404  0.2596
 9052TIP3    H148571   3.618   0.849   3.510 -0.2360 -2.0577  1.0674
 9052TIP3    H248572   3.633   0.733   3.414 -2.7695 -0.8378 -0.8744
 9053TIP3   OH248573   2.099   3.850  13.483 -0.3355 -0.4134 -0.5231
 9053TIP3    H148574   2.050   3.844  13.400 -1.4928 -0.6471  0.1667
 9053TIP3    H248575   2.079   3.937  13.516  1.3824  0.2720 -1.2462
 9054TIP3   OH248576   1.431   4.772   3.145  0.5572 -0.0119  0.5046
 9054TIP3    H148577   1.515   4.799   3.182  0.5579  0.7465 -0.0509
 9054TIP3    H248578   1.393   4.852   3.109 -0.0397 -0.5016  0.0215
 9055TIP3   OH248579   6.491   1.854  13.415 -0.0320  0.3283  0.0159
 9055TIP3    H148580   6.457   1.889  13.333 -2.2535 -2.3482 -0.2606
 9055TIP3    H248581   6.414   1.832  13.466  1.3187  0.1037  2.0459
 9056TIP3   OH248582   4.919   5.729   2.512 -0.3395 -0.1052  0.1651
 9056TIP3    H148583   4.969   5.807   2.537  2.5456 -2.1796  1.1443
 9056TIP3    H248584   4.891   5.690   2.594  0.8783 -1.7252 -0.1584
 9057TIP3   OH248585   0.821   6.765  13.022  0.3690 -1.1777 -0.8860
 9057TIP3    H148586   0.741   6.803  12.984  0.1334  0.3370  1.0243
 9057TIP3    H248587   0.793   6.732  13.108  2.0844  0.8485  0.5096
 9058TIP3   OH248588   5.797   5.759  14.501 -0.2078  0.2565 -0.2144
 9058TIP3    H148589   5.889   5.746  14.522 -0.5903 -0.0502  1.3049
 9058TIP3    H248590   5.796   5.772  14.406  1.5390  1.6258 -0.0752
 9059TIP3   OH248591   4.396   5.639  13.772 -0.1020 -0.2421  0.8008
 9059TIP3    H148592   4.310   5.602  13.754 -0.5027  1.9108 -2.1703
 9059TIP3    H248593   4.392   5.728  13.736  2.2622  1.1276  3.6391
 9060TIP3   OH248594   1.667   3.057  16.305  0.3553 -0.2828 -0.2299
 9060TIP3    H148595   1.704   3.114  16.372  0.2255 -1.0513  0.5122
 9060TIP3    H248596   1.577   3.043  16.333 -0.0964  0.4838 -1.3039
 9061TIP3   OH248597   2.348   2.782   0.420  0.2652 -0.0303  0.5285
 9061TIP3    H148598   2.282   2.775   0.351 -0.7847 -1.9543  1.6623
 9061TIP3    H248599   2.423   2.825   0.379 -1.9704  2.9201 -0.5838
 9062TIP3   OH248600   0.778   1.230  16.246 -0.2455  0.2379 -0.1427
 9062TIP3    H148601   0.811   1.241  16.157  0.3790  3.1861  0.4047
 9062TIP3    H248602   0.855   1.209  16.298 -0.3244  0.3958  0.0351
 9063TIP3   OH248603   2.299   2.391   1.902 -0.2945  0.3481  0.5979
 9063TIP3    H148604   2.269   2.456   1.838 -0.3777 -0.0554  0.2234
 9063TIP3    H248605   2.243   2.405   1.978  0.1799  1.2057  0.7972
 9064TIP3   OH248606   1.462   6.151   2.142 -0.0274 -0.1494  0.3483
 9064TIP3    H148607   1.467   6.111   2.055  0.1564  0.8581 -0.1116
 9064TIP3    H248608   1.411   6.231   2.128  1.7984  1.1133  0.7524
 9065TIP3   OH248609   6.737   0.220   5.376 -0.5491  0.0198 -0.6861
 9065TIP3    H148610   6.774   0.141   5.337  0.5647  0.4575 -0.5461
 9065TIP3    H248611   6.813   0.275   5.396 -1.1489  0.2673  1.0924
 9066TIP3   OH248612   2.923   4.758   0.560 -0.5896  0.5423 -0.2615
 9066TIP3    H148613   2.950   4.742   0.650 -2.7911  1.6363  0.6591
 9066TIP3    H248614   2.872   4.681   0.536 -1.7740  1.1532  0.2125
 9067TIP3   OH248615   1.393   2.151  12.498  0.1085  0.3406 -0.0041
 9067TIP3    H148616   1.450   2.095  12.550  1.6841  0.5470 -1.4617
 9067TIP3    H248617   1.323   2.092  12.467  0.2375 -0.2006  0.7261
 9068TIP3   OH248618   6.628   1.326  11.074 -0.2451  0.0540  0.1760
 9068TIP3    H148619   6.675   1.253  11.114  0.0596 -0.1915 -0.6126
 9068TIP3    H248620   6.697   1.387  11.047 -0.4601  0.3299  0.2406
 9069TIP3   OH248621   2.308   4.268  14.708 -0.3185  0.6579 -0.8496
 9069TIP3    H148622   2.249   4.324  14.657 -0.6291  0.3822 -0.7880
 9069TIP3    H248623   2.383   4.254  14.650 -1.3093 -0.8401 -1.7772
 9070TIP3   OH248624   2.999   3.842  15.977 -0.0855  0.6711  0.3865
 9070TIP3    H148625   3.046   3.827  15.895 -0.6959  0.1547  0.1228
 9070TIP3    H248626   3.066   3.837  16.045 -0.1484 -2.9115  0.2943
 9071TIP3   OH248627   2.046   4.959  16.329 -0.2489 -0.0539  0.3170
 9071TIP3    H148628   1.977   5.022  16.311 -0.6595 -0.2512  1.1378
 9071TIP3    H248629   2.094   4.951  16.247 -0.0584  1.4863  0.2721
 9072TIP3   OH248630   4.311   4.373  15.592  0.7937 -0.3216  0.7715
 9072TIP3    H148631   4.273   4.290  15.623  2.0714 -0.0082  3.2718
 9072TIP3    H248632   4.237   4.434  15.592 -0.0856 -1.3505 -0.7421
 9073TIP3   OH248633   6.332   2.388  12.737  0.1761  0.0264 -0.6772
 9073TIP3    H148634   6.382   2.359  12.813  1.1158 -0.1634 -1.3539
 9073TIP3    H248635   6.398   2.402  12.669 -0.5805  0.8628 -1.2535
 9074TIP3   OH248636   4.172   0.501  13.812 -0.5170  0.1344 -0.4855
 9074TIP3    H148637   4.201   0.415  13.843  0.2756 -0.0290 -1.6727
 9074TIP3    H248638   4.077   0.493  13.806 -0.8475  0.4852  2.8756
 9075TIP3   OH248639   3.879   5.265   4.517  0.0068  0.2180  0.4012
 9075TIP3    H148640   3.827   5.271   4.437 -0.5993 -0.8934  0.6965
 9075TIP3    H248641   3.960   5.222   4.489 -0.1916 -0.1407  0.3674
 9076TIP3   OH248642   5.250   0.781  14.966 -0.0069 -0.9124 -0.0867
 9076TIP3    H148643   5.201   0.828  14.898  3.0317  4.4774  1.1517
 9076TIP3    H248644   5.195   0.786  15.044 -1.3453 -2.8265 -0.8770
 9077TIP3   OH248645   0.377   1.626  14.702  0.0139 -0.1960  0.0118
 9077TIP3    H148646   0.425   1.672  14.771  1.9337 -2.1325  0.0150
 9077TIP3    H248647   0.309   1.577  14.749  0.5326 -0.5343  0.4157
 9078TIP3   OH248648   1.242   2.165   6.426  0.2222  0.3196 -0.2312
 9078TIP3    H148649   1.180   2.238   6.432 -1.9144 -1.6104  2.0378
 9078TIP3    H248650   1.282   2.160   6.513 -0.6479 -2.0539  0.0613
 9079TIP3   OH248651   5.023   0.030  15.894 -0.1290 -0.8929  0.0354
 9079TIP3    H148652   5.026   0.069  15.982  0.0196 -2.1033  0.5700
 9079TIP3    H248653   5.040   0.103  15.835  0.2365 -0.1608  1.0398
 9080TIP3   OH248654   4.164   6.322   0.660  0.3859 -0.2023  0.1303
 9080TIP3    H148655   4.112   6.241   0.668  0.1205  0.0910  1.5945
 9080TIP3    H248656   4.151   6.366   0.744  0.1950  1.5750 -0.8181
 9081TIP3   OH248657   0.226   5.119   4.760 -0.2262  0.2029  0.2984
 9081TIP3    H148658   0.270   5.118   4.675  0.7272 -0.5444  0.7857
 9081TIP3    H248659   0.297   5.131   4.823 -0.5432 -2.4384  1.1975
 9082TIP3   OH248660   0.910   6.468  13.943 -0.1158 -0.0714  0.3097
 9082TIP3    H148661   0.977   6.405  13.971 -0.4016 -0.9192 -0.8634
 9082TIP3    H248662   0.869   6.427  13.866  0.5330  2.1097 -1.2418
 9083TIP3   OH248663   5.108   4.383   6.224  0.0510  0.3352  0.3997
 9083TIP3    H148664   5.058   4.363   6.144  1.3147  1.7069 -0.7614
 9083TIP3    H248665   5.194   4.342   6.209  1.7197  4.0608 -0.7956
 9084TIP3   OH248666   0.557   4.458   4.436 -0.4103 -0.4659 -0.3688
 9084TIP3    H148667   0.584   4.373   4.403 -2.0705 -0.9555 -0.5222
 9084TIP3    H248668   0.497   4.439   4.508 -1.7446  0.5323 -1.1730
 9085TIP3   OH248669   3.272   3.187  15.442  0.4127  0.2774  0.8974
 9085TIP3    H148670   3.231   3.232  15.368  2.2499 -0.8972 -0.8711
 9085TIP3    H248671   3.317   3.257  15.490 -0.0124  0.9160  0.3736
 9086TIP3   OH248672   6.559   4.955  12.626 -0.2390 -0.9190  0.0747
 9086TIP3    H148673   6.520   4.939  12.540 -0.4203 -0.4558  0.0702
 9086TIP3    H248674   6.635   4.897  12.629  1.9856  1.7561 -1.9144
 9087TIP3   OH248675   4.750   1.005   1.471 -0.1886  0.1345 -0.5295
 9087TIP3    H148676   4.666   1.032   1.507 -0.0564 -0.7061  0.3974
 9087TIP3    H248677   4.731   0.925   1.423  0.4730 -1.2972  1.5388
 9088TIP3   OH248678   5.610   5.368   5.722 -0.1386 -0.3303  0.1022
 9088TIP3    H148679   5.675   5.391   5.656  0.1855  0.3696  0.6693
 9088TIP3    H248680   5.628   5.425   5.796 -1.6191  0.1396  0.1307
 9089TIP3   OH248681   5.509   4.334  16.275 -0.2965 -0.2210 -0.6672
 9089TIP3    H148682   5.585   4.321  16.331 -0.0642 -2.0341 -1.3589
 9089TIP3    H248683   5.526   4.416  16.229  0.7283 -0.0688 -0.0244
 9090TIP3   OH248684   4.905   5.424   4.005  0.0713 -0.2905 -0.0089
 9090TIP3    H148685   4.874   5.510   4.033 -0.5699 -0.2565 -0.8262
 9090TIP3    H248686   4.897   5.369   4.083  2.0938  0.7994  1.0008
 9091TIP3   OH248687   6.673   4.132   4.065  0.5231  0.1363 -0.1450
 9091TIP3    H148688   6.625   4.067   4.115  0.1081 -0.5127 -1.3726
 9091TIP3    H248689   6.765   4.107   4.076  0.3617 -0.7294 -0.6974
 9092TIP3   OH248690   2.943   1.083   4.958  0.1877  0.8140 -0.0504
 9092TIP3    H148691   2.974   0.999   4.926 -0.2155  0.2900  0.9063
 9092TIP3    H248692   3.008   1.108   5.025 -0.3234  0.6950  0.4964
 9093TIP3   OH248693   2.279   3.497  13.153 -0.4182 -0.0720  0.0989
 9093TIP3    H148694   2.350   3.444  13.188 -1.7530 -0.9036  1.6043
 9093TIP3    H248695   2.273   3.571  13.213 -1.2527 -0.3516  0.3624
 9094TIP3   OH248696   0.220   5.355  16.350  0.4833 -0.4369  0.1340
 9094TIP3    H148697   0.211   5.449  16.367  2.0645 -0.3917  0.7751
 9094TIP3    H248698   0.139   5.317  16.384 -0.6165  0.8016 -1.0529
 9095TIP3   OH248699   1.290   6.189  13.574  0.3041 -0.1755  0.4963
 9095TIP3    H148700   1.326   6.264  13.620 -3.2539  1.0973  1.4111
 9095TIP3    H248701   1.268   6.222  13.487  2.6325 -1.3294 -0.5738
 9096TIP3   OH248702   2.749   4.900  11.066  0.0258 -0.7776 -0.2713
 9096TIP3    H148703   2.782   4.925  11.152 -0.6504  0.3735 -0.3378
 9096TIP3    H248704   2.725   4.982  11.024  1.2657 -1.2470 -1.9570
 9097TIP3   OH248705   2.172   1.042   1.218 -0.6345 -0.2401 -0.3130
 9097TIP3    H148706   2.099   1.032   1.278  0.3488  0.0243  0.9559
 9097TIP3    H248707   2.171   0.962   1.165 -1.5611 -0.4375 -0.0015
 9098TIP3   OH248708   2.128   0.328  13.026 -0.2402  0.0148 -0.0485
 9098TIP3    H148709   2.174   0.250  12.994 -0.3960 -0.2446  0.3656
 9098TIP3    H248710   2.112   0.311  13.118  0.1917  0.7687  0.1684
 9099TIP3   OH248711   3.517   5.854  11.757 -0.0902 -0.0615 -0.5716
 9099TIP3    H148712   3.444   5.898  11.714  0.8441  0.2021 -1.9486
 9099TIP3    H248713   3.586   5.852  11.690  1.4296  0.3886  0.9452
 9100TIP3   OH248714   5.567   3.382   2.187 -0.2287 -0.2118 -0.4982
 9100TIP3    H148715   5.654   3.419   2.177 -0.2746 -0.1698 -0.7481
 9100TIP3    H248716   5.514   3.453   2.223 -0.6618  0.4245 -2.3451
 9101TIP3   OH248717   3.277   2.896  15.258 -0.3577 -0.5622 -0.4878
 9101TIP3    H148718   3.222   2.941  15.322 -0.3307  0.6338 -1.3076
 9101TIP3    H248719   3.230   2.903  15.175 -0.3206 -1.9895 -0.6564
 9102TIP3   OH248720   1.450   4.514  13.282  0.3734 -0.4180 -0.9007
 9102TIP3    H148721   1.418   4.457  13.212 -0.5604 -0.4967 -0.4183
 9102TIP3    H248722   1.371   4.557  13.316  0.7303 -0.9091  0.5764
 9103TIP3   OH248723   2.527   4.710   1.761 -0.2113 -0.2563 -0.0699
 9103TIP3    H148724   2.525   4.635   1.820  2.1905 -1.2133 -1.1438
 9103TIP3    H248725   2.619   4.737   1.760 -1.1658  3.3238  1.0373
 9104TIP3   OH248726   3.524   4.767   5.413 -0.1358 -0.4036  0.3755
 9104TIP3    H148727   3.528   4.718   5.496  1.9546  0.8752  1.0731
 9104TIP3    H248728   3.521   4.859   5.440 -0.7736 -0.0185 -0.9702
 9105TIP3   OH248729   5.230   4.714   4.239  0.3976  0.0993 -0.7423
 9105TIP3    H148730   5.291   4.712   4.312  0.9532 -0.0600 -1.2089
 9105TIP3    H248731   5.273   4.664   4.170 -0.3856 -0.2703 -0.9762
 9106TIP3   OH248732   6.512   2.233  17.136  0.7022  0.4856 -0.5540
 9106TIP3    H148733   6.569   2.233  17.059  0.8044 -0.8278 -0.4972
 9106TIP3    H248734   6.468   2.148  17.133  1.1990  0.1422  1.1830
 9107TIP3   OH248735   0.892   0.719  12.119 -0.1333  0.4904  0.0908
 9107TIP3    H148736   0.939   0.711  12.036 -0.6200 -1.6879 -0.0031
 9107TIP3    H248737   0.832   0.645  12.120 -0.3063  0.6204  2.2903
 9108TIP3   OH248738   3.270   5.103   3.568 -0.4913  0.7259 -0.1281
 9108TIP3    H148739   3.243   5.193   3.554  0.3313  0.6876 -2.0460
 9108TIP3    H248740   3.212   5.051   3.513 -1.1177  0.0348  1.1459
 9109TIP3   OH248741   2.115   2.872   4.582 -0.3873 -0.0987  0.3041
 9109TIP3    H148742   2.050   2.891   4.650  1.4297  0.5805  1.8723
 9109TIP3    H248743   2.152   2.787   4.607  0.4573  0.2652  0.3092
 9110TIP3   OH248744   5.471   1.574  15.118  0.1598  0.1374 -0.3605
 9110TIP3    H148745   5.445   1.633  15.190 -0.9115 -0.2947 -0.3835
 9110TIP3    H248746   5.555   1.538  15.146  0.5422  1.2149 -0.0732
 9111TIP3   OH248747   1.421   3.781   4.594  0.1471 -0.4740 -0.4223
 9111TIP3    H148748   1.350   3.728   4.558 -2.3392  2.6930 -0.4078
 9111TIP3    H248749   1.420   3.761   4.688 -1.2307  0.1037 -0.3067
 9112TIP3   OH248750   2.844   3.502  11.342  0.1763  0.3535 -0.3585
 9112TIP3    H148751   2.902   3.559  11.392 -1.0252  1.4148 -0.1637
 9112TIP3    H248752   2.799   3.560  11.281 -1.9925 -0.1370  0.7051
 9113TIP3   OH248753   2.778   2.634  14.796 -0.0106  0.0846 -0.5787
 9113TIP3    H148754   2.755   2.583  14.875  2.7838 -0.6920 -0.2357
 9113TIP3    H248755   2.871   2.619  14.784  0.1219  2.2854 -2.5853
 9114TIP3   OH248756   3.750   6.618   1.139  0.8370 -0.0504  0.1059
 9114TIP3    H148757   3.751   6.600   1.045  0.2789  0.5288 -0.0102
 9114TIP3    H248758   3.661   6.595   1.167  0.2139  2.2028  0.0181
 9115TIP3   OH248759   5.652   5.112  16.193  0.6584 -0.2275 -0.3274
 9115TIP3    H148760   5.663   5.207  16.194 -2.4072  0.1616  1.2164
 9115TIP3    H248761   5.676   5.085  16.282 -1.8795 -0.4201  0.3312
 9116TIP3   OH248762   6.503   4.541  12.643  0.0333 -0.3272 -0.3470
 9116TIP3    H148763   6.444   4.471  12.672  0.1675 -0.3825 -0.2114
 9116TIP3    H248764   6.583   4.496  12.618 -0.6547 -0.4737 -2.4321
 9117TIP3   OH248765   3.252   3.595   3.702 -0.0692 -0.5547 -0.2721
 9117TIP3    H148766   3.214   3.674   3.663 -1.3059 -1.2844 -0.5728
 9117TIP3    H248767   3.207   3.523   3.659  1.1186 -1.4341 -0.0583
 9118TIP3   OH248768   2.739   6.263  12.620  0.3576  0.1434  0.2036
 9118TIP3    H148769   2.787   6.263  12.703 -1.0915  0.8418  1.0557
 9118TIP3    H248770   2.648   6.252  12.645 -0.1553  0.9850 -1.2671
 9119TIP3   OH248771   4.732   6.504  12.393 -0.1981  0.7734  0.1435
 9119TIP3    H148772   4.722   6.578  12.333 -0.3514 -0.5169 -1.4597
 9119TIP3    H248773   4.816   6.466  12.370 -1.4536 -1.3341 -1.0991
 9120TIP3   OH248774   5.190   0.552   2.562  0.5664  0.6196  0.9027
 9120TIP3    H148775   5.275   0.583   2.594  1.4711 -1.5840  0.7392
 9120TIP3    H248776   5.172   0.475   2.615 -1.7066  1.4769  1.4135
 9121TIP3   OH248777   2.747   2.762  13.509  0.4326 -0.0606  0.2154
 9121TIP3    H148778   2.840   2.741  13.510  0.4546 -0.0747 -0.9983
 9121TIP3    H248779   2.724   2.764  13.416 -0.8730 -0.4565  0.5185
 9122TIP3   OH248780   5.658   4.453   4.358  0.4523 -0.1646 -0.0550
 9122TIP3    H148781   5.684   4.370   4.318  0.5571  0.2558 -0.8670
 9122TIP3    H248782   5.741   4.494   4.384  0.4724  0.2269 -0.7389
 9123TIP3   OH248783   0.835   4.236  14.131 -0.3426  0.1486  0.3613
 9123TIP3    H148784   0.868   4.170  14.193 -0.6929 -1.1763 -0.8439
 9123TIP3    H248785   0.814   4.186  14.052 -0.4779  1.7411 -0.6186
 9124TIP3   OH248786   4.827   5.334   2.760  0.2947 -0.2843 -0.0141
 9124TIP3    H148787   4.824   5.371   2.672  1.8567  0.0060  0.0412
 9124TIP3    H248788   4.808   5.241   2.748  2.9001 -0.7333 -0.9818
 9125TIP3   OH248789   5.042   0.779  15.825 -0.2661 -0.1683 -0.5289
 9125TIP3    H148790   5.004   0.696  15.798 -0.2747 -0.3523  0.0435
 9125TIP3    H248791   5.052   0.772  15.920  2.5506 -0.7063 -0.8135
 9126TIP3   OH248792   6.405   0.531  10.914 -0.5909  0.4558 -0.2670
 9126TIP3    H148793   6.408   0.568  10.826 -0.5860  1.5583  0.1756
 9126TIP3    H248794   6.447   0.446  10.907 -0.5921  0.5447 -1.3306
 9127TIP3   OH248795   6.475   6.677  16.322 -0.6508 -0.0273 -0.5597
 9127TIP3    H148796   6.426   6.759  16.329  0.9116  0.8561  0.1514
 9127TIP3    H248797   6.485   6.647  16.413  0.7876  0.1879 -0.6410
 9128TIP3   OH248798   6.582   4.002   3.546  0.1177  0.1972 -0.4079
 9128TIP3    H148799   6.512   4.063   3.521 -0.3011 -0.2756 -0.3969
 9128TIP3    H248800   6.599   4.021   3.638  0.3272  0.6320 -0.5362
 9129TIP3   OH248801   2.075   0.319  16.499  0.2508 -0.1022  0.0190
 9129TIP3    H148802   2.007   0.378  16.531  0.9366  0.4064  0.5565
 9129TIP3    H248803   2.047   0.232  16.528 -1.1873 -0.1682 -1.4877
 9130TIP3   OH248804   3.174   0.878   3.559  0.3757  0.0472  0.1390
 9130TIP3    H148805   3.178   0.893   3.465  1.6837 -0.6434  0.0783
 9130TIP3    H248806   3.260   0.905   3.592  0.2322 -0.5173  1.0029
 9131TIP3   OH248807   2.717   3.930   0.280  0.2885  0.3824 -0.5189
 9131TIP3    H148808   2.693   3.839   0.262 -0.2167  0.7625 -1.8074
 9131TIP3    H248809   2.712   3.974   0.195  1.6934  1.3610 -0.1174
 9132TIP3   OH248810   2.847   5.965   0.076  0.1353  0.9261  0.1393
 9132TIP3    H148811   2.759   5.993   0.053  0.5810  1.6581 -0.7041
 9132TIP3    H248812   2.900   6.044   0.072  1.2852  0.1000 -1.6922
 9133TIP3   OH248813   5.914   4.825   2.181  0.1995 -0.0332  0.3391
 9133TIP3    H148814   5.855   4.771   2.233  0.6663 -0.4801  0.4085
 9133TIP3    H248815   5.856   4.879   2.127 -0.2648 -1.6613 -0.8314
 9134TIP3   OH248816   4.669   4.696  15.512 -0.0642  0.6074 -0.0147
 9134TIP3    H148817   4.648   4.650  15.431 -0.2015  1.5412 -0.5280
 9134TIP3    H248818   4.601   4.669  15.573 -0.1167  0.1052 -0.2919
 9135TIP3   OH248819   5.609   6.082   4.593 -0.1375  0.0519  0.0607
 9135TIP3    H148820   5.574   6.107   4.678 -0.4490  0.2368 -0.1193
 9135TIP3    H248821   5.533   6.053   4.543  0.1622 -0.8273  0.1167
 9136TIP3   OH248822   2.455   2.214   2.370  0.2747  0.4312 -0.1257
 9136TIP3    H148823   2.402   2.249   2.299  1.4975  0.1677 -1.1820
 9136TIP3    H248824   2.451   2.119   2.359  1.2960  0.4179 -0.4746
 9137TIP3   OH248825   0.471   4.761  14.978 -0.1375 -0.0009  0.0922
 9137TIP3    H148826   0.413   4.765  15.054 -2.3866 -0.1617 -1.5577
 9137TIP3    H248827   0.538   4.828  14.995 -1.6474  1.2153  1.3761
 9138TIP3   OH248828   2.901   5.007  12.528 -0.2624 -0.8850 -0.0019
 9138TIP3    H148829   2.898   5.016  12.623 -0.1042 -0.7207 -0.0107
 9138TIP3    H248830   2.827   5.059  12.497  0.8915  0.7911 -0.0767
 9139TIP3   OH248831   2.196   3.438   1.608 -0.0012 -0.0963 -0.3319
 9139TIP3    H148832   2.220   3.455   1.517 -1.3054  0.9744 -0.5042
 9139TIP3    H248833   2.160   3.349   1.608  2.0250 -0.9289 -0.4341
 9140TIP3   OH248834   2.073   5.999   4.092 -0.2738 -0.1825  0.4400
 9140TIP3    H148835   2.075   6.070   4.156  0.4470 -0.7115  1.0084
 9140TIP3    H248836   2.014   5.933   4.130 -2.3775  0.8477 -0.8987
 9141TIP3   OH248837   4.382   1.566   0.690  0.3028 -0.1054  0.2550
 9141TIP3    H148838   4.295   1.589   0.724  0.7623  0.7461  0.8694
 9141TIP3    H248839   4.370   1.561   0.596 -0.5090 -0.3954  0.3632
 9142TIP3   OH248840   0.454   2.993  15.560 -0.3398 -0.4445 -0.6505
 9142TIP3    H148841   0.365   3.022  15.541 -0.1438  0.8878  0.3841
 9142TIP3    H248842   0.469   3.020  15.651  1.3208 -0.1497 -1.0007
 9143TIP3   OH248843   1.158   0.259   4.132  0.2048 -0.2468 -0.1214
 9143TIP3    H148844   1.141   0.165   4.141  1.1700 -0.5623 -1.4041
 9143TIP3    H248845   1.190   0.269   4.042 -0.9504  1.4714 -0.3627
 9144TIP3   OH248846   1.657   6.332   4.027  0.3383  0.0004 -0.3413
 9144TIP3    H148847   1.613   6.385   4.094  2.9650  1.5282  0.2340
 9144TIP3    H248848   1.679   6.251   4.073 -0.5668 -0.1830 -0.2210
 9145TIP3   OH248849   4.385   4.532   4.393 -0.0545  0.2210 -0.0876
 9145TIP3    H148850   4.352   4.485   4.317  0.9328  1.2387 -1.1650
 9145TIP3    H248851   4.394   4.623   4.363 -1.0904  0.9306  1.6829
 9146TIP3   OH248852   0.658   1.405   5.559 -0.0054 -0.2795  0.2350
 9146TIP3    H148853   0.692   1.326   5.603 -1.6887 -0.7933  0.6576
 9146TIP3    H248854   0.571   1.379   5.527 -0.5083  1.3560  0.2322
 9147TIP3   OH248855   5.112   2.788   3.526  1.2757 -0.3329 -0.2548
 9147TIP3    H148856   5.118   2.708   3.473 -0.3517 -1.4356  1.1627
 9147TIP3    H248857   5.166   2.852   3.479  0.4605 -1.4718 -2.8617
 9148TIP3   OH248858   2.173   6.029   5.138  0.5471  0.7089  0.2129
 9148TIP3    H148859   2.092   6.066   5.103  0.8873  3.1474  1.8615
 9148TIP3    H248860   2.157   6.018   5.231  1.5108 -0.4665  0.2491
 9149TIP3   OH248861   5.223   0.473   3.977  0.5713 -0.3531  0.1037
 9149TIP3    H148862   5.160   0.411   4.013  1.4101 -2.0035 -1.2227
 9149TIP3    H248863   5.195   0.558   4.013 -1.6644 -1.2073  0.4986
 9150TIP3   OH248864   3.192   5.855   2.420 -0.2297  0.1582 -0.0963
 9150TIP3    H148865   3.154   5.921   2.362  2.7072  0.9262 -1.2291
 9150TIP3    H248866   3.187   5.773   2.371 -2.3889 -0.1988  0.6601
 9151TIP3   OH248867   0.970   0.050   2.843 -0.1651  0.0111 -0.0437
 9151TIP3    H148868   0.999  -0.033   2.881 -1.7200 -0.7509 -0.5147
 9151TIP3    H248869   0.902   0.081   2.902 -0.0919  0.6056 -0.2679
 9152TIP3   OH248870   0.538   3.543   6.827  0.1601  0.5374  0.3619
 9152TIP3    H148871   0.585   3.585   6.756  0.1926 -0.6573 -0.3463
 9152TIP3    H248872   0.545   3.604   6.901 -0.3650  2.0442 -0.8189
 9153TIP3   OH248873   6.410   5.143   0.929 -0.4386  0.2478  0.1357
 9153TIP3    H148874   6.428   5.049   0.934 -2.0392 -0.1271 -0.7503
 9153TIP3    H248875   6.405   5.172   1.020 -0.7418 -0.6943  0.4256
 9154TIP3   OH248876   1.872   6.710   2.928 -0.3337 -0.3897 -0.0002
 9154TIP3    H148877   1.904   6.669   2.848 -1.3974 -0.2638 -0.5021
 9154TIP3    H248878   1.951   6.725   2.981  0.2825 -1.2263 -0.6630
 9155TIP3   OH248879   2.546   6.681   6.477  0.4273 -0.3325 -0.0874
 9155TIP3    H148880   2.602   6.619   6.524 -0.8424 -0.4084  1.3428
 9155TIP3    H248881   2.594   6.764   6.481  0.3515 -0.3496  1.2965
 9156TIP3   OH248882   4.144   1.518  11.310  0.4329 -0.8526  0.1734
 9156TIP3    H148883   4.149   1.604  11.268  0.0590 -0.1726  1.4990
 9156TIP3    H248884   4.064   1.478  11.274 -0.3412  0.0612  0.8525
 9157TIP3   OH248885   2.806   6.630   5.942  0.2861 -0.5211 -0.3664
 9157TIP3    H148886   2.856   6.649   5.863 -0.8837 -0.7771 -1.1867
 9157TIP3    H248887   2.845   6.685   6.009 -0.7676  2.1082 -1.8629
 9158TIP3   OH248888   1.241   0.920   0.125 -0.0186  0.0455 -0.2454
 9158TIP3    H148889   1.190   0.921   0.044 -0.4435 -0.3660  0.0138
 9158TIP3    H248890   1.175   0.912   0.194  0.3675  0.0276  0.1218
 9159TIP3   OH248891   3.799   0.352   2.778 -0.9199  0.2587  0.3178
 9159TIP3    H148892   3.716   0.379   2.818 -0.8478  0.0109  0.6453
 9159TIP3    H248893   3.774   0.283   2.716 -0.8544 -0.4994  1.1258
 9160TIP3   OH248894   2.266   5.382  11.686 -0.4632  0.1762  0.1062
 9160TIP3    H148895   2.188   5.406  11.737 -0.5823  0.5450 -0.2390
 9160TIP3    H248896   2.327   5.454  11.701 -0.3317  0.0671  0.0874
 9161TIP3   OH248897   5.703   5.882  13.094  0.1835  0.4135  0.8226
 9161TIP3    H148898   5.775   5.875  13.157  2.1021  0.1917 -1.3207
 9161TIP3    H248899   5.711   5.971  13.060  0.5199 -0.1580 -0.6391
 9162TIP3   OH248900   4.345   1.311   2.584  0.2574 -0.2096  0.2848
 9162TIP3    H148901   4.375   1.362   2.508  0.1364 -0.5331  0.0187
 9162TIP3    H248902   4.412   1.325   2.651  0.5041 -0.1438  0.0259
 9163TIP3   OH248903   3.838   4.881   4.648  0.0856 -0.5655  0.5773
 9163TIP3    H148904   3.907   4.931   4.605  0.2980 -0.9154  0.5072
 9163TIP3    H248905   3.800   4.942   4.711  1.5005 -0.8415  1.7283
 9164TIP3   OH248906   3.049   6.440   0.425 -0.6714  0.3893  0.0049
 9164TIP3    H148907   3.059   6.510   0.489  1.6816  0.4897 -0.4331
 9164TIP3    H248908   3.075   6.478   0.342 -2.0319 -0.2380 -0.7258
 9165TIP3   OH248909   0.929   3.689  12.677  0.6013  0.1631 -0.2167
 9165TIP3    H148910   0.862   3.653  12.619  2.7290 -2.7990 -0.9447
 9165TIP3    H248911   0.890   3.684  12.765 -1.5602  2.1075 -1.0020
 9166TIP3   OH248912   1.580   5.730  14.771  0.5395 -0.5057  0.3361
 9166TIP3    H148913   1.614   5.748  14.859 -1.0770 -0.8874  1.0545
 9166TIP3    H248914   1.505   5.672  14.786 -0.2506  0.0817 -1.2426
 9167TIP3   OH248915   5.866   4.908  14.026 -0.3836  0.2457 -0.6529
 9167TIP3    H148916   5.876   4.946  13.939  1.2128  1.5070  0.0367
 9167TIP3    H248917   5.921   4.830  14.024 -1.8022 -0.7503 -1.3348
 9168TIP3   OH248918   3.769   4.918  11.746  0.9584  0.3518 -0.4702
 9168TIP3    H148919   3.831   4.941  11.677  0.6014 -0.6758 -1.1487
 9168TIP3    H248920   3.810   4.846  11.794  0.9453  0.6657  0.0196
 9169TIP3   OH248921   3.481   1.322   3.858 -0.1060 -0.3468  0.0553
 9169TIP3    H148922   3.510   1.401   3.904 -0.8507  0.3100 -0.5933
 9169TIP3    H248923   3.560   1.267   3.853  0.6979  0.8269 -0.4815
 9170TIP3   OH248924   3.793   6.786   4.896  0.0461  0.3018 -0.0427
 9170TIP3    H148925   3.769   6.876   4.918 -0.3520  0.2716 -0.3451
 9170TIP3    H248926   3.709   6.740   4.888  0.1316  0.4560 -2.2273
 9171TIP3   OH248927   2.487   2.593   1.706  0.4968  0.1148 -0.2259
 9171TIP3    H148928   2.563   2.609   1.650  0.1888 -1.3078 -1.0739
 9171TIP3    H248929   2.437   2.526   1.660  0.6448 -1.6965  2.1293
 9172TIP3   OH248930   6.647   5.536  15.239  0.1021 -0.2990 -0.6098
 9172TIP3    H148931   6.553   5.539  15.220 -0.3143  1.4330  1.5177
 9172TIP3    H248932   6.687   5.581  15.165 -0.9577  1.0404 -0.3981
 9173TIP3   OH248933   0.531   6.577  15.224 -0.0120  0.1303 -0.2384
 9173TIP3    H148934   0.502   6.493  15.188 -1.5434  0.0556  1.0935
 9173TIP3    H248935   0.624   6.566  15.241 -0.2279 -1.3549  0.0538
 9174TIP3   OH248936   1.828   6.015  11.003  0.2007 -0.4813 -0.2122
 9174TIP3    H148937   1.916   6.053  11.004  0.3339 -0.7408 -1.3811
 9174TIP3    H248938   1.820   5.974  10.917 -1.3647  0.2375 -0.4231
 9175TIP3   OH248939   3.910   1.454  12.383  0.6136  0.1952  0.5532
 9175TIP3    H148940   3.831   1.404  12.365 -0.4834  0.7352  3.4626
 9175TIP3    H248941   3.900   1.481  12.475  3.2159  2.0029  0.3542
 9176TIP3   OH248942   4.068   6.601  11.807  0.7273  0.5784  0.0530
 9176TIP3    H148943   4.115   6.543  11.867  3.3550  0.2725 -2.1860
 9176TIP3    H248944   4.124   6.678  11.799  0.0278  0.9646 -1.3771
 9177TIP3   OH248945   3.301   4.214   2.603 -0.0201 -0.4042 -0.5345
 9177TIP3    H148946   3.301   4.296   2.553 -1.0412 -0.6327 -0.9319
 9177TIP3    H248947   3.246   4.155   2.551  1.4004 -1.6122 -0.6874
 9178TIP3   OH248948   2.538   1.506  14.250 -0.2328  0.2367  0.0407
 9178TIP3    H148949   2.538   1.601  14.242 -1.1642  0.3491  1.1080
 9178TIP3    H248950   2.568   1.490  14.340 -1.2548 -0.4191  0.2747
 9179TIP3   OH248951   1.065   4.655  13.863 -0.8027 -0.3200  0.7752
 9179TIP3    H148952   1.143   4.602  13.845 -0.2596  0.3277  1.2075
 9179TIP3    H248953   1.025   4.670  13.777 -1.5315 -2.2917  0.7480
 9180TIP3   OH248954   6.680   6.051   4.656  0.1967 -0.2446 -0.1968
 9180TIP3    H148955   6.735   5.976   4.634  0.6260  0.3408 -1.1132
 9180TIP3    H248956   6.740   6.124   4.663 -0.3873  0.2803 -0.6064
 9181TIP3   OH248957   1.310   1.060   5.187  0.1774 -0.3230 -0.1038
 9181TIP3    H148958   1.387   1.007   5.166  0.3760  0.0342 -0.2859
 9181TIP3    H248959   1.245   0.997   5.219  0.4994 -0.6410 -0.0778
 9182TIP3   OH248960   2.674   5.431  11.589  0.3518 -0.3499  0.0908
 9182TIP3    H148961   2.758   5.427  11.543  0.6111  0.9778  0.4326
 9182TIP3    H248962   2.623   5.496  11.541 -0.3717 -0.9371  0.0626
 9183TIP3   OH248963   3.275   6.111   2.033 -0.0403  0.6985 -0.3784
 9183TIP3    H148964   3.203   6.065   1.991 -0.2300 -1.3023  2.0563
 9183TIP3    H248965   3.318   6.158   1.962 -0.5160 -2.3672 -2.7802
 9184TIP3   OH248966   4.208   2.851   0.819 -0.0484  0.2263  0.0537
 9184TIP3    H148967   4.136   2.861   0.757 -2.7200 -0.6634  2.9240
 9184TIP3    H248968   4.214   2.936   0.864  0.5273  0.2020  0.0333
 9185TIP3   OH248969   1.502   1.816  11.662 -0.0192 -0.2774  0.3294
 9185TIP3    H148970   1.592   1.836  11.636 -0.0025  0.2572  0.7981
 9185TIP3    H248971   1.507   1.730  11.703 -0.1379 -1.4381 -1.9891
 9186TIP3   OH248972   1.830   1.615   0.074 -0.1023  0.7890  1.1054
 9186TIP3    H148973   1.911   1.571   0.100  0.9398  3.1170  1.9681
 9186TIP3    H248974   1.760   1.566   0.117  0.7326 -1.8070 -0.3741
 9187TIP3   OH248975   5.896   6.139  16.246  0.2973  0.3330  0.1471
 9187TIP3    H148976   5.854   6.099  16.170  0.6996  0.0479  0.0678
 9187TIP3    H248977   5.979   6.091  16.255  0.2646  0.3895  0.7405
 9188TIP3   OH248978   0.818   5.705   1.394 -0.2307  0.1418 -0.1680
 9188TIP3    H148979   0.802   5.646   1.467 -0.0936  1.8093  1.2608
 9188TIP3    H248980   0.834   5.790   1.436 -1.5765  1.4332 -2.2045
 9189TIP3   OH248981   5.849   3.413   4.766  0.4818  0.1255 -0.3092
 9189TIP3    H148982   5.818   3.361   4.841  0.0217 -1.1410 -1.3370
 9189TIP3    H248983   5.877   3.496   4.804 -2.3025  0.5587  0.9501
 9190TIP3   OH248984   2.958   4.009  14.247 -0.5854 -0.0356 -0.5691
 9190TIP3    H148985   2.882   4.011  14.305 -0.4503 -0.6793 -0.3677
 9190TIP3    H248986   3.033   4.007  14.306 -0.4302 -0.0758 -0.7663
 9191TIP3   OH248987   1.334   2.199   2.139 -0.5853 -0.6973  0.4602
 9191TIP3    H148988   1.287   2.146   2.074  0.0328 -0.3898 -0.2482
 9191TIP3    H248989   1.414   2.227   2.094 -1.2366  1.4307  0.5769
 9192TIP3   OH248990   3.442   4.039  14.600  0.1527  0.1500 -0.0638
 9192TIP3    H148991   3.482   4.030  14.686 -0.5329  0.3126  0.2756
 9192TIP3    H248992   3.385   3.962  14.592 -1.3028  1.1638  0.4550
 9193TIP3   OH248993   4.331   6.309  12.618 -0.2375  0.6099  0.4909
 9193TIP3    H148994   4.281   6.302  12.537  0.4161 -0.5449  0.1863
 9193TIP3    H248995   4.271   6.352  12.679 -1.2135  0.2289 -0.1857
 9194TIP3   OH248996   0.944   5.707  16.512  0.1398  0.0157  0.2280
 9194TIP3    H148997   0.938   5.632  16.453  0.8809  0.2246 -0.1202
 9194TIP3    H248998   1.037   5.717  16.529 -0.0694 -0.1562  1.5880
 9195TIP3   OH248999   1.064   2.942   5.633  0.4319  0.7827  0.4004
 9195TIP3    H149000   0.969   2.937   5.621  0.4288 -0.8290  0.9740
 9195TIP3    H249001   1.100   2.948   5.544 -0.1921  1.3285  0.1800
 9196TIP3   OH249002   6.669   0.566  16.414 -0.1310  0.0013 -1.0502
 9196TIP3    H149003   6.656   0.660  16.413 -0.0262  0.0240 -0.6258
 9196TIP3    H249004   6.608   0.532  16.348 -1.2315  0.2341 -0.1729
 9197TIP3   OH249005   4.757   3.609  14.177  0.1083  0.0823  0.1124
 9197TIP3    H149006   4.755   3.554  14.255 -0.5550 -0.5356 -0.3418
 9197TIP3    H249007   4.799   3.555  14.110 -1.9363 -0.4567 -0.7725
 9198TIP3   OH249008   3.311   3.488   1.531  0.2248 -0.4621  0.0199
 9198TIP3    H149009   3.391   3.519   1.488  0.7040 -0.8137  0.6526
 9198TIP3    H249010   3.292   3.554   1.598 -0.1811 -0.2286 -0.3233
 9199TIP3   OH249011   1.473   3.758   1.898 -0.1574 -0.4047 -0.0429
 9199TIP3    H149012   1.544   3.727   1.842 -1.1235  0.0465 -1.5513
 9199TIP3    H249013   1.397   3.707   1.871 -0.8970  0.6142  0.0955
 9200TIP3   OH249014   3.000   2.751  16.523  0.0333 -0.4868  0.5702
 9200TIP3    H149015   3.048   2.768  16.442 -0.2422 -2.4383 -0.0123
 9200TIP3    H249016   2.910   2.733  16.495 -0.0270 -1.3173  1.3005
 9201TIP3   OH249017   0.826   2.278  15.454  0.3064  0.0466  0.4166
 9201TIP3    H149018   0.876   2.358  15.462  0.6790 -0.3040  1.6050
 9201TIP3    H249019   0.738   2.307  15.431  0.8091  0.7072 -0.7467
 9202TIP3   OH249020   1.586   2.344  16.820 -0.4645 -0.1617  0.1247
 9202TIP3    H149021   1.645   2.291  16.766  0.9191  2.0477 -0.6259
 9202TIP3    H249022   1.499   2.327  16.784  0.0849 -1.1209 -0.7745
 9203TIP3   OH249023   3.949   5.116   0.853  0.0269  0.0087  0.5051
 9203TIP3    H149024   3.940   5.079   0.941  1.3849  1.0883  1.1170
 9203TIP3    H249025   3.975   5.207   0.868  0.1745  0.2217 -1.0093
 9204TIP3   OH249026   6.273   3.248  10.747  0.1569  0.1519  0.2634
 9204TIP3    H149027   6.317   3.322  10.705  1.4007 -0.5596  0.2950
 9204TIP3    H249028   6.339   3.179  10.751 -0.7375 -0.6859  1.0016
 9205TIP3   OH249029   1.901   4.618   1.398 -0.0043 -0.1123  0.0568
 9205TIP3    H149030   1.816   4.575   1.399 -0.2461  0.3720  0.4577
 9205TIP3    H249031   1.933   4.606   1.309 -1.9235  2.4802 -1.0454
 9206TIP3   OH249032   5.164   4.687  10.880 -0.8352 -0.9209 -0.1292
 9206TIP3    H149033   5.107   4.764  10.885  0.0169 -0.3448  1.1320
 9206TIP3    H249034   5.142   4.646  10.797 -2.8464 -0.5168  0.1666
 9207TIP3   OH249035   3.409   0.409  16.687 -0.1858 -0.0592  0.1688
 9207TIP3    H149036   3.365   0.329  16.658  0.9763  0.3167 -2.8426
 9207TIP3    H249037   3.390   0.473  16.618  1.7527  1.2487  0.8203
 9208TIP3   OH249038   4.108   2.728   5.272 -0.0050  0.1639  0.3308
 9208TIP3    H149039   4.064   2.751   5.354 -1.2402 -1.9171  0.2978
 9208TIP3    H249040   4.117   2.632   5.275  0.5034  0.1162 -1.6709
 9209TIP3   OH249041   4.909   4.294  11.647 -0.6946 -0.1349  0.2854
 9209TIP3    H149042   4.930   4.302  11.740  1.5273 -0.1749 -0.1834
 9209TIP3    H249043   4.993   4.304  11.602 -1.3332 -2.6014 -1.5842
 9210TIP3   OH249044   0.990   2.287  14.417 -0.1874 -0.0690 -0.4448
 9210TIP3    H149045   1.004   2.223  14.487  2.0385  2.4007  1.5037
 9210TIP3    H249046   1.072   2.286  14.367 -0.0970  1.2240 -0.3580
 9211TIP3   OH249047   4.458   6.188  13.325 -0.4134 -1.0355 -0.3716
 9211TIP3    H149048   4.440   6.166  13.234 -2.5904  0.3779 -0.3314
 9211TIP3    H249049   4.450   6.283  13.329  0.9152 -0.9748  1.0390
 9212TIP3   OH249050   2.084   0.523  16.024 -0.0410  0.3342 -0.5904
 9212TIP3    H149051   2.000   0.525  16.071  0.3057 -0.1100  0.0492
 9212TIP3    H249052   2.086   0.606  15.976 -0.2311  0.9653  0.4630
 9213TIP3   OH249053   6.705   5.303  14.077  0.0696 -0.1675  0.2657
 9213TIP3    H149054   6.685   5.240  14.147 -1.0756  0.2411  0.3214
 9213TIP3    H249055   6.689   5.389  14.117  0.0507  0.0909 -0.2977
 9214TIP3   OH249056   3.313   3.422   2.434 -0.2433  0.1826 -0.0373
 9214TIP3    H149057   3.388   3.443   2.490  0.0687  0.1454 -0.4401
 9214TIP3    H249058   3.252   3.495   2.448  0.2362  0.6503 -0.3618
 9215TIP3   OH249059   0.170   0.313   2.616  0.4210  0.1888 -0.0426
 9215TIP3    H149060   0.163   0.221   2.591 -0.0847  0.3677 -0.5568
 9215TIP3    H249061   0.095   0.355   2.573  0.2146  0.7000  0.8047
 9216TIP3   OH249062   0.649   4.641   4.887  0.4913 -0.3871  0.3782
 9216TIP3    H149063   0.709   4.662   4.815 -1.1734  0.9051 -0.6638
 9216TIP3    H249064   0.672   4.703   4.956 -0.0045  0.4810 -0.2278
 9217TIP3   OH249065   2.904   4.384   0.367 -0.3111  0.2813  0.0263
 9217TIP3    H149066   2.900   4.332   0.287 -0.3232  0.3419 -0.0134
 9217TIP3    H249067   2.951   4.329   0.430  5.0074  2.4275 -1.7609
 9218TIP3   OH249068   3.780   4.220  10.294 -0.2573 -0.3357 -0.2560
 9218TIP3    H149069   3.855   4.161  10.290 -0.4105 -0.5400 -0.1763
 9218TIP3    H249070   3.816   4.303  10.324 -0.0051 -0.3314 -0.5681
 9219TIP3   OH249071   4.271   6.067   3.691 -0.2284 -1.0159  0.5560
 9219TIP3    H149072   4.203   6.081   3.625 -0.6830 -0.7158  1.0791
 9219TIP3    H249073   4.323   5.994   3.657  0.2927 -0.0749 -0.7299
 9220TIP3   OH249074   5.468   5.026   0.361 -0.1013  0.0787  0.2604
 9220TIP3    H149075   5.513   4.948   0.396 -0.5935  0.4384  1.6951
 9220TIP3    H249076   5.378   4.998   0.348 -0.2219  0.3323  0.5398
 9221TIP3   OH249077   5.699   5.545   1.698 -0.3232 -0.3762  0.6080
 9221TIP3    H149078   5.649   5.503   1.628  1.5813  0.0782 -1.0851
 9221TIP3    H249079   5.748   5.474   1.739  0.2050 -0.3276  0.0621
 9222TIP3   OH249080   4.368   0.652   4.350 -0.5232 -0.1399 -0.0194
 9222TIP3    H149081   4.307   0.718   4.318 -1.3200 -2.4333 -3.5774
 9222TIP3    H249082   4.333   0.624   4.435 -0.4708  3.4957  1.2645
 9223TIP3   OH249083   1.607   5.325   0.984 -0.3715  0.1791 -0.7453
 9223TIP3    H149084   1.598   5.250   1.043  1.8779  0.5882  0.1748
 9223TIP3    H249085   1.601   5.402   1.041  0.3521  0.6125 -1.2320
 9224TIP3   OH249086   2.036   4.272   4.345  0.7455  0.2576 -0.6600
 9224TIP3    H149087   2.122   4.295   4.378  1.7878  1.0905 -3.7615
 9224TIP3    H249088   2.044   4.182   4.316 -0.1721 -0.4825  1.2752
 9225TIP3   OH249089   0.414   6.157  11.756  0.5726  0.4791 -0.1143
 9225TIP3    H149090   0.366   6.230  11.794  1.0068  1.6540 -1.7577
 9225TIP3    H249091   0.350   6.110  11.703  0.0230 -1.0230  1.8161
 9226TIP3   OH249092   4.574   1.862   3.266  0.5830 -0.2510  0.1141
 9226TIP3    H149093   4.624   1.823   3.338 -0.0246 -0.5988  0.3551
 9226TIP3    H249094   4.484   1.832   3.281  0.4082 -0.1148 -0.6477
 9227TIP3   OH249095   4.939   6.474   2.049 -0.4214 -0.0992  0.0453
 9227TIP3    H149096   4.924   6.505   1.959 -0.4739  0.4456  0.2387
 9227TIP3    H249097   4.878   6.525   2.102 -1.1061 -1.1426  0.2697
 9228TIP3   OH249098   5.520   2.737   3.127 -0.1940 -0.2483 -0.9066
 9228TIP3    H149099   5.526   2.747   3.222 -0.3853  0.2367 -0.9451
 9228TIP3    H249100   5.607   2.704   3.102 -0.0942 -0.2408 -0.5814
 9229TIP3   OH249101   4.881   3.584   3.591 -0.8449 -0.5098  0.2827
 9229TIP3    H149102   4.884   3.678   3.609 -0.9630 -0.6299  0.9267
 9229TIP3    H249103   4.858   3.579   3.498  1.5133  0.1285 -0.3759
 9230TIP3   OH249104   3.157   1.032   5.149  0.0999  0.2008  0.0325
 9230TIP3    H149105   3.214   0.972   5.196  0.7907  0.7677 -0.0771
 9230TIP3    H249106   3.136   1.101   5.212  3.1491  2.3732 -1.2085
 9231TIP3   OH249107   3.905   4.659   3.830 -0.1434 -0.5447 -0.6409
 9231TIP3    H149108   3.930   4.734   3.885 -0.3899 -0.5204 -0.5639
 9231TIP3    H249109   3.849   4.606   3.886 -1.9932  0.4674 -1.4950
 9232TIP3   OH249110   5.232   5.671   0.689  0.3431  0.2558 -0.6324
 9232TIP3    H149111   5.178   5.592   0.683  0.6365 -0.1035  1.1268
 9232TIP3    H249112   5.177   5.733   0.737  1.7787 -0.4172  2.0064
 9233TIP3   OH249113   6.747   6.302   0.521  0.2307 -0.4571 -0.3617
 9233TIP3    H149114   6.839   6.310   0.494 -0.5641 -0.0948 -3.1413
 9233TIP3    H249115   6.708   6.386   0.495 -0.8667 -0.5462  0.9658
 9234TIP3   OH249116   5.723   5.095   0.290  0.2906 -0.3441  0.0378
 9234TIP3    H149117   5.763   5.016   0.253 -1.3165 -1.1964  0.0742
 9234TIP3    H249118   5.636   5.067   0.317 -0.2331  1.4082  0.2176
 9235TIP3   OH249119   4.867   5.804  12.364  0.2715 -0.4399  0.7806
 9235TIP3    H149120   4.847   5.835  12.452 -1.0771 -0.7346  0.5910
 9235TIP3    H249121   4.916   5.723  12.377  0.6999 -0.1102  1.2517
 9236TIP3   OH249122   1.414   5.980   3.166 -0.2256 -0.1520 -0.0149
 9236TIP3    H149123   1.342   5.966   3.228 -1.0792  1.5355 -0.5768
 9236TIP3    H249124   1.382   6.049   3.108  1.1746 -0.6088 -1.3687
 9237TIP3   OH249125   1.962   1.745   4.201  0.7118  1.0620  0.4481
 9237TIP3    H149126   1.887   1.798   4.176  0.1111  0.2117  0.4387
 9237TIP3    H249127   1.966   1.675   4.135  0.9868  0.6038  0.9468
 9238TIP3   OH249128   4.052   4.277   1.261  0.0522  0.0641  0.2517
 9238TIP3    H149129   4.133   4.226   1.253  1.2712  2.0539 -0.2875
 9238TIP3    H249130   4.070   4.341   1.330 -0.7681  1.0554 -0.4349
 9239TIP3   OH249131   4.383   1.805   3.611  0.1099  0.0528  0.1652
 9239TIP3    H149132   4.443   1.733   3.630 -0.5628  0.0303  2.3633
 9239TIP3    H249133   4.365   1.797   3.517  1.3570 -1.6119  0.0426
 9240TIP3   OH249134   4.408   1.672   3.074  0.1989  0.9743  0.2467
 9240TIP3    H149135   4.345   1.616   3.029  0.9231  0.9746 -0.7864
 9240TIP3    H249136   4.440   1.618   3.146  0.7656  0.0954 -0.6404
 9241TIP3   OH249137   2.326   5.566   4.992  0.0978  0.2077 -0.2417
 9241TIP3    H149138   2.232   5.567   5.014 -0.1876 -2.0051 -1.2534
 9241TIP3    H249139   2.334   5.624   4.917  0.0908  2.9333  1.7684
 9242TIP3   OH249140   5.776   4.054  10.953 -0.5678  0.4041 -0.1479
 9242TIP3    H149141   5.718   4.103  10.894 -0.5474 -1.0285 -1.3842
 9242TIP3    H249142   5.863   4.064  10.914 -0.6855 -1.3099 -0.9222
 9243TIP3   OH249143   0.351   5.330  17.078 -0.5860 -0.5528  0.3789
 9243TIP3    H149144   0.367   5.323  16.984 -1.2926 -0.0476  0.2144
 9243TIP3    H249145   0.340   5.424  17.093  1.9722 -0.3737  1.3946
 9244TIP3   OH249146   2.402   2.035  16.422  0.4291 -0.0595 -0.5153
 9244TIP3    H149147   2.325   2.039  16.478 -1.0268 -2.3193 -2.2886
 9244TIP3    H249148   2.469   1.992  16.476 -0.6597 -1.3559 -0.1813
 9245TIP3   OH249149   1.426   5.757  11.562 -0.4450 -0.4685  0.5659
 9245TIP3    H149150   1.338   5.784  11.590 -0.7089 -1.2029  0.4731
 9245TIP3    H249151   1.481   5.833  11.580 -1.4923  0.8148 -1.4506
 9246TIP3   OH249152   6.418   4.342  14.033 -0.5354 -0.0460 -0.0814
 9246TIP3    H149153   6.434   4.330  13.940  1.8265  0.7646  0.1684
 9246TIP3    H249154   6.506   4.354  14.071 -1.3473 -1.6034  2.4146
 9247TIP3   OH249155   4.210   1.408  16.966 -0.4633  0.3194  0.0710
 9247TIP3    H149156   4.276   1.433  16.901 -0.1274  1.8255  0.9699
 9247TIP3    H249157   4.162   1.337  16.925  2.3020 -1.4208 -0.2520
 9248TIP3   OH249158   1.822   2.959   1.393 -0.5765  0.0342  0.0338
 9248TIP3    H149159   1.883   2.939   1.322 -2.7726 -2.2942 -1.2469
 9248TIP3    H249160   1.848   2.901   1.464 -0.5073 -0.0294 -0.0433
 9249TIP3   OH249161   3.897   0.972   0.902 -0.0180  0.3008  0.0680
 9249TIP3    H149162   3.896   1.066   0.919  1.0877  0.1551  0.9947
 9249TIP3    H249163   3.866   0.933   0.984  0.9217 -0.2096  0.1756
 9250TIP3   OH249164   4.874   1.183  14.673 -0.8383 -0.4449 -0.2053
 9250TIP3    H149165   4.852   1.235  14.595 -0.3679 -0.7056 -0.5088
 9250TIP3    H249166   4.958   1.218  14.702 -1.3166  0.1024  0.5797
 9251TIP3   OH249167   5.574   4.626  14.525 -0.1512 -0.2028 -0.6310
 9251TIP3    H149168   5.513   4.553  14.513 -1.2339  0.5703  0.1046
 9251TIP3    H249169   5.626   4.627  14.444  0.0237 -1.9037 -0.5673
 9252TIP3   OH249170   2.455   2.392   1.366  0.4293  0.1757 -0.0012
 9252TIP3    H149171   2.526   2.350   1.415  1.0068 -0.9937 -1.7732
 9252TIP3    H249172   2.500   2.454   1.307 -0.1915  1.0281  0.4152
 9253TIP3   OH249173   1.068   6.575   3.578  0.1517  0.3851  0.1329
 9253TIP3    H149174   1.150   6.568   3.627  0.1946  1.0410  0.1637
 9253TIP3    H249175   1.071   6.663   3.540 -0.1795  0.1219 -0.5069
 9254TIP3   OH249176   0.610   5.494   0.653  0.1414 -0.0776  0.0664
 9254TIP3    H149177   0.552   5.487   0.577  1.1574  1.1132 -0.8348
 9254TIP3    H249178   0.609   5.406   0.691 -0.7290 -0.5755 -1.0614
 9255TIP3   OH249179   2.127   0.873   4.101 -0.1672 -0.5873 -0.2675
 9255TIP3    H149180   2.066   0.833   4.162 -0.6542  0.3338 -0.1376
 9255TIP3    H249181   2.159   0.801   4.047 -0.6861 -1.2086  0.2584
 9256TIP3   OH249182   6.271   5.930  16.897  0.0670 -0.1750 -0.3105
 9256TIP3    H149183   6.180   5.957  16.888 -0.1173 -0.8069 -0.3771
 9256TIP3    H249184   6.307   5.988  16.964 -0.8675 -1.0846  1.0124
 9257TIP3   OH249185   1.850   6.187  11.294 -0.2597 -0.7001  0.1525
 9257TIP3    H149186   1.883   6.254  11.234 -1.9028  0.5252  0.5669
 9257TIP3    H249187   1.764   6.165  11.259 -0.1597 -1.8496  0.6225
 9258TIP3   OH249188   3.205   3.292   2.695  0.0306 -0.1490 -0.5983
 9258TIP3    H149189   3.181   3.283   2.787  0.2681  1.5942 -0.3512
 9258TIP3    H249190   3.225   3.385   2.684  2.0963 -0.7212 -1.9112
 9259TIP3   OH249191   4.016   4.336   0.074  0.4163 -0.2532  0.0148
 9259TIP3    H149192   3.981   4.252   0.102 -0.0187  0.4653  1.6281
 9259TIP3    H249193   4.106   4.337   0.108 -0.8263  1.5655  3.4367
 9260TIP3   OH249194   1.584   1.122   1.978 -0.1364  0.2546  0.0390
 9260TIP3    H149195   1.577   1.213   1.948 -0.5349 -0.0199 -0.7107
 9260TIP3    H249196   1.493   1.091   1.981 -0.0538  0.0990  0.9789
 9261TIP3   OH249197   0.639   4.934   4.780  0.3470  0.2622 -0.7052
 9261TIP3    H149198   0.575   4.973   4.720 -0.5528  0.2121  0.2108
 9261TIP3    H249199   0.695   4.880   4.724 -1.3532 -0.9078 -1.3020
 9262TIP3   OH249200   3.217   3.791   1.334  0.4401  0.0826  0.3731
 9262TIP3    H149201   3.160   3.778   1.258  2.6818  1.3327 -1.6296
 9262TIP3    H249202   3.157   3.804   1.407 -1.8108 -0.8462 -1.2339
 9263TIP3   OH249203   3.514   4.959   2.321  0.8283 -0.2146 -0.2200
 9263TIP3    H149204   3.555   5.043   2.339 -0.0612  0.2769 -0.4422
 9263TIP3    H249205   3.521   4.948   2.226 -2.1970  1.3008 -0.6778
 9264TIP3   OH249206   0.940   0.729  14.635 -0.8227 -0.6788 -0.1810
 9264TIP3    H149207   0.887   0.765  14.565 -1.8338 -0.8005  0.5082
 9264TIP3    H249208   0.964   0.641  14.605  0.9583  0.2159 -1.4963
 9265TIP3   OH249209   6.709   4.629   2.805 -0.3084 -0.0972 -0.0021
 9265TIP3    H149210   6.755   4.548   2.785 -1.9071 -1.3321  1.1451
 9265TIP3    H249211   6.704   4.631   2.901  1.3882  2.3388  0.0858
 9266TIP3   OH249212   2.173   5.590  11.505  0.2468  0.3040 -0.2903
 9266TIP3    H149213   2.217   5.666  11.544 -0.7357  1.0577 -0.6341
 9266TIP3    H249214   2.204   5.515  11.557  0.0401  1.1195  1.0342
 9267TIP3   OH249215   1.192   5.891  12.777  0.1127  0.1274 -0.3554
 9267TIP3    H149216   1.150   5.967  12.818 -3.1390 -0.4708 -2.4614
 9267TIP3    H249217   1.200   5.827  12.848 -0.0092  1.2475  0.6948
 9268TIP3   OH249218   2.311   3.159   6.640  0.1989 -0.4203 -0.2137
 9268TIP3    H149219   2.390   3.210   6.655 -0.1913  0.2937 -0.5664
 9268TIP3    H249220   2.271   3.199   6.563 -0.9212 -0.2492  0.4416
 9269TIP3   OH249221   1.769   0.234   2.569 -0.3580  0.3189  0.3470
 9269TIP3    H149222   1.804   0.156   2.526  1.0685  0.3439  1.4022
 9269TIP3    H249223   1.681   0.209   2.597  0.4385 -1.2634  1.5301
 9270TIP3   OH249224   6.375   0.735  11.736  0.7474  0.3017 -0.1400
 9270TIP3    H149225   6.455   0.788  11.734  0.5005  0.6565 -0.8723
 9270TIP3    H249226   6.378   0.686  11.654  0.5784 -0.2352  0.1753
 9271TIP3   OH249227   4.462   3.429   2.234 -0.7249  0.0292  0.1151
 9271TIP3    H149228   4.374   3.412   2.266 -0.6982  0.5600  0.4708
 9271TIP3    H249229   4.480   3.357   2.173  0.0100 -2.1377  2.8236
 9272TIP3   OH249230   2.630   2.455   5.847  0.1893  0.1044 -0.1864
 9272TIP3    H149231   2.654   2.382   5.903 -1.2660  0.3813  0.8212
 9272TIP3    H249232   2.711   2.504   5.834  0.6008 -0.1621  1.3693
 9273TIP3   OH249233   3.834   2.838   1.938 -0.6864  0.1792 -0.1734
 9273TIP3    H149234   3.912   2.892   1.926  0.3595 -1.2748 -0.1111
 9273TIP3    H249235   3.857   2.754   1.898 -1.2101 -1.1358  2.1749
 9274TIP3   OH249236   6.680   0.791  12.981  0.6427  0.1500 -0.2271
 9274TIP3    H149237   6.629   0.749  12.912  2.8419 -1.3459 -1.0281
 9274TIP3    H249238   6.674   0.885  12.962 -1.8871  0.0043 -0.1969
 9275TIP3   OH249239   2.194   5.290   3.584  0.2174 -0.1953  0.3134
 9275TIP3    H149240   2.144   5.209   3.587 -0.8244  0.4402  0.1768
 9275TIP3    H249241   2.246   5.289   3.665 -0.1532 -0.7587  0.5458
 9276TIP3   OH249242   6.438   0.129  15.424 -0.4390  0.3212  0.1337
 9276TIP3    H149243   6.496   0.204  15.408 -0.4297 -0.3552 -3.5141
 9276TIP3    H249244   6.350   0.162  15.404 -0.4134 -0.6482 -1.6977
 9277TIP3   OH249245   3.538   2.573   5.392  0.0142  0.8185 -0.3344
 9277TIP3    H149246   3.452   2.545   5.424  0.1032  1.4831  0.4834
 9277TIP3    H249247   3.519   2.635   5.322 -0.1832  1.8222  0.5913
 9278TIP3   OH249248   1.118   2.006   0.314  0.6588 -0.1263  0.4205
 9278TIP3    H149249   1.142   2.088   0.358 -0.4666 -0.3317  1.4718
 9278TIP3    H249250   1.189   1.945   0.335 -0.3468 -0.5218  2.8617
 9279TIP3   OH249251   0.269   2.284   3.482  0.0872  0.2124  0.0544
 9279TIP3    H149252   0.249   2.240   3.399  0.1790  0.1382  0.0702
 9279TIP3    H249253   0.258   2.215   3.548  0.1922  0.2237  0.0837
 9280TIP3   OH249254   1.183   0.669  16.051 -0.0076 -0.1495 -0.6940
 9280TIP3    H149255   1.143   0.591  16.089  1.4793 -0.6190 -0.0807
 9280TIP3    H249256   1.207   0.723  16.126  1.9671 -0.5956 -0.9793
 9281TIP3   OH249257   3.256   6.318   5.469  0.6900 -0.1384 -0.5331
 9281TIP3    H149258   3.285   6.261   5.540 -0.5023  1.1145  0.9931
 9281TIP3    H249259   3.181   6.272   5.431  0.4001 -0.0974 -0.0110
 9282TIP3   OH249260   5.307   1.004   2.572  0.7333 -0.5412 -0.1254
 9282TIP3    H149261   5.274   0.936   2.514 -1.7024  1.5298 -1.2361
 9282TIP3    H249262   5.268   0.984   2.657 -0.9686  0.1189 -0.7270
 9283TIP3   OH249263   6.217   5.573   0.714  0.7346 -0.1695 -0.2784
 9283TIP3    H149264   6.172   5.490   0.699  0.2167  0.3457 -1.5952
 9283TIP3    H249265   6.289   5.550   0.773  1.4373 -1.8237 -1.7283
 9284TIP3   OH249266   3.453   5.522   6.336  0.5231 -0.6674 -0.3763
 9284TIP3    H149267   3.535   5.554   6.299 -0.4548  0.9866 -1.1502
 9284TIP3    H249268   3.433   5.583   6.407 -0.8529 -0.1136 -1.2219
 9285TIP3   OH249269   2.080   1.601   3.929  0.3083  0.1086 -0.3842
 9285TIP3    H149270   2.145   1.634   3.867 -0.6670 -1.1725 -2.1208
 9285TIP3    H249271   2.013   1.669   3.931  0.8646  0.6499  0.1074
 9286TIP3   OH249272   3.899   0.381  13.285 -0.4451  0.0649 -0.0015
 9286TIP3    H149273   3.872   0.407  13.373  0.0523  1.4390 -0.2394
 9286TIP3    H249274   3.906   0.285  13.289  1.5113  0.2455  2.0168
 9287TIP3   OH249275   2.094   4.067   2.047 -0.1163  0.1458  0.1534
 9287TIP3    H149276   2.145   4.001   2.002 -0.1528  0.4106 -0.2734
 9287TIP3    H249277   2.057   4.021   2.123 -1.1343 -0.6369 -0.8137
 9288TIP3   OH249278   1.690   5.362   0.675  0.4468  0.0124 -0.0358
 9288TIP3    H149279   1.729   5.443   0.708  0.2596  0.0827  0.0167
 9288TIP3    H249280   1.756   5.295   0.693  0.3226  0.0425  0.5374
 9289TIP3   OH249281   1.039   2.637  17.101  0.0314  0.7400 -0.0148
 9289TIP3    H149282   0.970   2.703  17.105  0.6291  1.3184  0.7869
 9289TIP3    H249283   1.121   2.686  17.106  0.5210  0.0754 -1.1610
 9290TIP3   OH249284   2.806   4.389  16.828  0.5307 -0.3263 -0.3059
 9290TIP3    H149285   2.899   4.397  16.845  0.3837 -1.8193  1.3402
 9290TIP3    H249286   2.764   4.402  16.913 -0.5761 -2.1044 -0.5371
 9291TIP3   OH249287   3.213   4.403   1.215  0.4040  0.0307 -0.2810
 9291TIP3    H149288   3.197   4.310   1.233 -0.0398  0.0181 -0.7688
 9291TIP3    H249289   3.151   4.426   1.147  1.1836  0.4389 -0.8666
 9292TIP3   OH249290   2.378   3.245  16.597  0.4490  0.0096 -0.3864
 9292TIP3    H149291   2.304   3.187  16.611 -1.3336  1.1961 -4.2922
 9292TIP3    H249292   2.438   3.195  16.541  1.5879 -0.1227  0.9203
 9293TIP3   OH249293   0.494   6.421  12.663 -1.1425 -0.1535  0.6040
 9293TIP3    H149294   0.436   6.347  12.649 -0.2347 -1.4544  3.2475
 9293TIP3    H249295   0.578   6.381  12.688  0.4642  1.7021 -1.5986
 9294TIP3   OH249296   1.615   2.857   2.857 -0.2754  0.1372  0.1078
 9294TIP3    H149297   1.631   2.762   2.859  1.3593  0.3921 -0.3320
 9294TIP3    H249298   1.539   2.869   2.914  0.1579 -1.3126  1.0345
 9295TIP3   OH249299   6.515   3.468   4.779  0.6288  0.8062 -0.0213
 9295TIP3    H149300   6.475   3.404   4.838 -0.8620  1.4161 -0.3661
 9295TIP3    H249301   6.561   3.528   4.837  1.6958 -0.3108  0.3310
 9296TIP3   OH249302   2.667   4.190  14.976  0.3401 -0.5151  0.1074
 9296TIP3    H149303   2.638   4.265  15.027 -0.7648 -0.8440 -0.0061
 9296TIP3    H249304   2.626   4.115  15.020 -0.2500 -0.8421 -0.9737
 9297TIP3   OH249305   0.427   5.723  14.951  0.3377  0.4885 -0.1993
 9297TIP3    H149306   0.431   5.722  15.046 -1.5365 -0.5918 -0.1009
 9297TIP3    H249307   0.355   5.784  14.931 -0.9552 -1.2227 -0.8242
 9298TIP3   OH249308   3.152   1.324  15.912  0.1289  0.1012  0.3306
 9298TIP3    H149309   3.089   1.253  15.925 -0.2417  0.7670  2.2152
 9298TIP3    H249310   3.234   1.292  15.950  0.3413  0.1223 -0.1042
 9299TIP3   OH249311   5.972   4.600   0.112  0.0177  0.0049 -0.0234
 9299TIP3    H149312   5.984   4.694   0.097  2.1308 -0.4220 -1.1564
 9299TIP3    H249313   5.952   4.565   0.025 -0.7746 -0.6023  0.4040
 9300TIP3   OH249314   6.232   2.094   6.145 -0.0605 -0.0166  0.4420
 9300TIP3    H149315   6.316   2.058   6.116  0.7186 -0.4625  3.1467
 9300TIP3    H249316   6.253   2.181   6.177 -0.2778 -0.8073  2.8161
 9301TIP3   OH249317   4.507   4.980  12.991 -0.0007  0.2747 -0.2710
 9301TIP3    H149318   4.574   4.920  12.958 -0.9504 -0.4025 -1.0060
 9301TIP3    H249319   4.447   4.924  13.040  0.2508  0.9607  0.8409
 9302TIP3   OH249320   3.334   1.800   1.284  0.0191 -0.0442  0.2514
 9302TIP3    H149321   3.407   1.797   1.222  0.5946 -1.3774  0.9830
 9302TIP3    H249322   3.344   1.884   1.329  2.0495 -0.9172  1.4739
 9303TIP3   OH249323   3.789   1.818   2.373 -0.1370  0.1824  0.4438
 9303TIP3    H149324   3.779   1.898   2.321 -0.0673  0.0606  0.2436
 9303TIP3    H249325   3.764   1.748   2.314  1.7787 -0.1140 -0.0259
 9304TIP3   OH249326   0.676   4.641  13.237  0.5886 -0.2344  0.1606
 9304TIP3    H149327   0.697   4.594  13.318  0.1698  0.7413  0.8414
 9304TIP3    H249328   0.752   4.697  13.222  0.8089 -0.6494 -0.3088
 9305TIP3   OH249329   3.156   4.251  11.399 -0.2114 -0.1926  0.5029
 9305TIP3    H149330   3.213   4.327  11.414 -0.0080 -0.3574  0.5592
 9305TIP3    H249331   3.067   4.286  11.409 -0.1824  0.4159 -1.1133
 9306TIP3   OH249332   5.420   4.915   5.009  0.6417 -0.1472 -0.4368
 9306TIP3    H149333   5.337   4.897   5.052  1.5026  1.2852  1.9854
 9306TIP3    H249334   5.462   4.830   4.999 -0.7605 -0.7806 -0.8959
 9307TIP3   OH249335   3.801   2.458  16.816  0.1524  0.2271 -0.3840
 9307TIP3    H149336   3.779   2.406  16.894 -1.6215  0.1239 -0.9338
 9307TIP3    H249337   3.801   2.549  16.847  2.1347  0.0103  0.3272
 9308TIP3   OH249338   3.578   2.897  11.246  0.6224  0.2023  0.0348
 9308TIP3    H149339   3.601   2.932  11.332  1.5875 -0.8470  0.2140
 9308TIP3    H249340   3.614   2.808  11.245  0.1803  0.0201 -1.2577
 9309TIP3   OH249341   3.949   1.856  11.787 -0.0875  0.3077  0.7078
 9309TIP3    H149342   4.004   1.934  11.796  0.1650  0.1129  0.8655
 9309TIP3    H249343   3.985   1.794  11.851 -0.3197  0.0817  0.6208
 9310TIP3   OH249344   1.211   5.598  16.187 -0.0854 -0.4136  0.3822
 9310TIP3    H149345   1.174   5.686  16.191  1.2547  0.2094 -0.7199
 9310TIP3    H249346   1.135   5.539  16.192 -1.2066  0.8315 -1.7060
 9311TIP3   OH249347   0.049   1.274  14.959 -0.4734  0.4618 -0.5670
 9311TIP3    H149348  -0.036   1.238  14.935 -0.3190  0.1663 -0.6707
 9311TIP3    H249349   0.071   1.232  15.042 -0.2903  0.3164 -0.6898
 9312TIP3   OH249350   1.376   3.212  12.442  0.6841 -0.2394 -0.3007
 9312TIP3    H149351   1.328   3.291  12.416 -0.1763 -1.1470 -1.5112
 9312TIP3    H249352   1.332   3.183  12.522 -1.7891 -1.8771 -2.1697
 9313TIP3   OH249353   2.652   3.092  12.979  0.0024 -0.6275 -0.1319
 9313TIP3    H149354   2.659   3.163  12.916 -2.2819 -0.0442  0.2231
 9313TIP3    H249355   2.610   3.021  12.930 -0.4588 -0.6794  0.3380
 9314TIP3   OH249356   3.217   6.424  12.793 -0.3474  0.1943  0.3058
 9314TIP3    H149357   3.244   6.503  12.747  0.7078  1.2675  2.6758
 9314TIP3    H249358   3.247   6.437  12.883 -3.6309 -1.1628  1.6896
 9315TIP3   OH249359   4.912   1.659   4.845 -0.0526  0.0043 -0.0865
 9315TIP3    H149360   4.936   1.626   4.931  3.1400 -0.3039 -1.0030
 9315TIP3    H249361   4.882   1.582   4.797 -2.3915  0.2777  0.8924
 9316TIP3   OH249362   3.960   4.713   0.853 -0.0873  0.2173  0.3786
 9316TIP3    H149363   4.026   4.662   0.807  1.2838  1.4950  0.8612
 9316TIP3    H249364   3.920   4.768   0.786  0.5343  0.6568  0.3620
 9317TIP3   OH249365   2.504   5.672  16.235  0.7945 -0.4900  0.3898
 9317TIP3    H149366   2.509   5.576  16.229  0.0079 -0.4676 -0.9619
 9317TIP3    H249367   2.565   5.703  16.169 -1.6257 -0.1169 -1.7714
 9318TIP3   OH249368   5.787   4.006  16.117  0.5631 -0.0180 -0.1762
 9318TIP3    H149369   5.793   3.967  16.029 -0.9662  0.7468 -0.6364
 9318TIP3    H249370   5.754   4.095  16.101  1.2070  0.4629  1.1097
 9319TIP3   OH249371   3.128   4.417  15.549 -0.1141  0.3409  0.2279
 9319TIP3    H149372   3.127   4.346  15.614 -3.5841  0.4979  0.4150
 9319TIP3    H249373   3.079   4.488  15.590 -0.8304  1.0877 -1.8846
 9320TIP3   OH249374   3.726   5.449  10.476  0.0718  0.3534 -0.5020
 9320TIP3    H149375   3.806   5.425  10.522 -0.8045 -0.6700  0.5270
 9320TIP3    H249376   3.663   5.381  10.501 -0.8144  0.5603 -2.1111
 9321TIP3   OH249377   2.751   4.018  14.412  0.5132  0.1572 -0.3570
 9321TIP3    H149378   2.744   4.003  14.506 -0.1111  0.0910 -0.4107
 9321TIP3    H249379   2.700   3.947  14.372  0.8003  0.1668 -0.7422
 9322TIP3   OH249380   5.996   0.494  16.851 -0.4586  0.3359  0.1748
 9322TIP3    H149381   5.966   0.496  16.760 -2.5737  0.1667  0.8489
 9322TIP3    H249382   6.061   0.423  16.853 -0.9590 -0.1700 -1.0298
 9323TIP3   OH249383   1.582   0.050  13.042  0.3055 -0.2722 -0.1097
 9323TIP3    H149384   1.570   0.045  13.137  2.0831  0.3800  0.1678
 9323TIP3    H249385   1.499   0.019  13.005 -0.3805 -0.5616  1.6526
 9324TIP3   OH249386   5.914   3.274  13.960 -0.2943 -0.0752 -0.1905
 9324TIP3    H149387   5.880   3.283  14.049 -1.0774  1.7294 -0.6455
 9324TIP3    H249388   6.002   3.311  13.965 -0.4971  0.4208 -0.2551
 9325TIP3   OH249389   0.523   0.531  13.413 -0.1243  0.0044  0.3217
 9325TIP3    H149390   0.437   0.539  13.373 -0.4244 -0.4763  0.8565
 9325TIP3    H249391   0.577   0.488  13.347 -0.3811  0.0209  0.1052
 9326TIP3   OH249392   3.608   5.243  14.248 -0.3966 -0.0350  0.1672
 9326TIP3    H149393   3.583   5.300  14.321  1.5439 -0.1671  0.9704
 9326TIP3    H249394   3.622   5.157  14.288 -0.2521 -0.3267 -0.5035
 9327TIP3   OH249395   3.953   0.007   2.274  0.3444  0.8786  0.6614
 9327TIP3    H149396   3.905   0.028   2.194  1.5653  1.1982 -0.0035
 9327TIP3    H249397   4.043  -0.007   2.245 -0.3239 -5.4532  0.9715
 9328TIP3   OH249398   4.557   5.199  13.156  0.3129 -0.3792  0.1487
 9328TIP3    H149399   4.476   5.211  13.207 -0.1795 -1.3067 -0.4163
 9328TIP3    H249400   4.532   5.141  13.085  1.6613 -1.2583  0.3907
 9329TIP3   OH249401   3.381   2.414   1.784 -0.2742  0.0026  0.5112
 9329TIP3    H149402   3.339   2.462   1.855  0.0518  0.2891  0.5122
 9329TIP3    H249403   3.474   2.434   1.794 -0.1304 -0.7028  0.5675
 9330TIP3   OH249404   6.642   4.282  11.152 -0.4057  0.5105  0.7701
 9330TIP3    H149405   6.711   4.229  11.192 -1.2753 -0.5797  0.8481
 9330TIP3    H249406   6.645   4.258  11.059 -1.4668 -0.4488  0.9735
 9331TIP3   OH249407   3.377   3.677   2.938 -0.1387  0.7224  0.3919
 9331TIP3    H149408   3.466   3.642   2.935 -0.7563 -1.2015  3.0716
 9331TIP3    H249409   3.388   3.767   2.970  0.8111  0.2724  1.3811
 9332TIP3   OH249410   6.415   1.434   5.569 -0.5253 -0.2631 -0.2743
 9332TIP3    H149411   6.471   1.452   5.645 -0.1990 -1.5240 -0.1974
 9332TIP3    H249412   6.326   1.454   5.600 -0.4500 -1.2388  0.6110
 9333TIP3   OH249413   0.445   1.425   0.883 -0.3712  0.6202  0.4951
 9333TIP3    H149414   0.375   1.366   0.913 -0.9190  0.5536 -0.8913
 9333TIP3    H249415   0.415   1.512   0.907  0.3469  0.3740  2.3726
 9334TIP3   OH249416   1.554   4.595   0.284  0.3361  0.5038 -0.3059
 9334TIP3    H149417   1.550   4.506   0.249 -0.7679  0.1625  0.6564
 9334TIP3    H249418   1.520   4.650   0.214  0.1007  0.0588 -0.5400
 9335TIP3   OH249419   2.322   1.581  13.764 -0.0827 -0.0351 -0.4904
 9335TIP3    H149420   2.298   1.565  13.855  0.1195 -0.0184 -0.4328
 9335TIP3    H249421   2.301   1.673  13.748  0.3522  0.0984 -0.3071
 9336TIP3   OH249422   2.908   5.807   6.515  0.4412 -0.1499 -0.1830
 9336TIP3    H149423   2.853   5.883   6.536  0.9833  0.4591 -0.9464
 9336TIP3    H249424   2.976   5.842   6.457  0.9737 -1.1245 -0.1524
 9337TIP3   OH249425   1.761   6.327  10.898  0.1673 -0.1631 -0.5358
 9337TIP3    H149426   1.811   6.311  10.818  1.5134  0.1092  0.2451
 9337TIP3    H249427   1.826   6.322  10.969 -0.5660  2.0724  0.3201
 9338TIP3   OH249428   1.782   3.658   5.617 -0.4323  0.0050  0.3493
 9338TIP3    H149429   1.746   3.746   5.607 -0.9753 -0.2698 -0.0971
 9338TIP3    H249430   1.706   3.602   5.634 -0.2249 -0.5877 -0.6601
 9339TIP3   OH249431   0.960   0.659  13.984 -0.6281  0.6079 -0.9384
 9339TIP3    H149432   0.946   0.682  13.892  0.0799  1.3785 -0.8598
 9339TIP3    H249433   0.937   0.739  14.031  1.1535  0.9299 -0.5995
 9340TIP3   OH249434   3.975   3.650  12.846 -0.3140 -0.2923 -0.1331
 9340TIP3    H149435   4.014   3.720  12.792 -1.5569 -0.5406 -1.3802
 9340TIP3    H249436   3.965   3.690  12.932  0.5796  0.5112 -0.3873
 9341TIP3   OH249437   4.044   2.038   3.455  0.3947  0.0560 -0.7449
 9341TIP3    H149438   4.093   2.004   3.529  1.0850  2.9310  0.1820
 9341TIP3    H249439   4.110   2.051   3.387  0.3167  0.4982 -0.7383
 9342TIP3   OH249440   3.406   4.272   5.866 -0.7703  0.1950 -0.3371
 9342TIP3    H149441   3.351   4.335   5.912 -1.7792 -0.9846  0.0929
 9342TIP3    H249442   3.353   4.193   5.860 -0.2733 -0.0053 -2.6344
 9343TIP3   OH249443   3.271   6.014   0.758  0.5286 -0.7351 -0.5184
 9343TIP3    H149444   3.278   5.920   0.744  1.0871 -0.3053 -3.4863
 9343TIP3    H249445   3.236   6.048   0.676  2.2045  1.8467 -0.2401
 9344TIP3   OH249446   2.468   3.192   3.531  0.4723 -0.4862 -0.2815
 9344TIP3    H149447   2.528   3.263   3.553  0.9914 -0.2985 -2.2269
 9344TIP3    H249448   2.491   3.121   3.592  3.1044 -0.6503 -1.4030
 9345TIP3   OH249449   1.631   4.346   5.095 -0.1289  0.3603 -0.3118
 9345TIP3    H149450   1.649   4.421   5.152 -0.0602 -1.1183  1.6669
 9345TIP3    H249451   1.718   4.319   5.064 -0.0248  0.1929  0.1328
 9346TIP3   OH249452   1.915   2.987  15.805 -0.1088 -0.1365  0.0548
 9346TIP3    H149453   1.963   2.934  15.868  1.3172  1.6642  0.5066
 9346TIP3    H249454   1.981   3.020  15.744 -1.1060  0.3134 -0.8223
 9347TIP3   OH249455   4.007   5.407   3.047  0.3086 -0.5405 -0.7067
 9347TIP3    H149456   4.002   5.312   3.057 -0.8670 -0.3376  0.8488
 9347TIP3    H249457   3.943   5.428   2.978 -1.5464 -0.6147  0.9453
 9348TIP3   OH249458   4.478   5.658   5.675 -0.1788  0.6813  0.2766
 9348TIP3    H149459   4.559   5.608   5.688  0.5349  1.3474 -1.3500
 9348TIP3    H249460   4.416   5.594   5.641 -0.3928  0.1285  1.6964
 9349TIP3   OH249461   0.412   6.220  15.868 -0.0439  0.1216 -0.1881
 9349TIP3    H149462   0.401   6.315  15.865  0.0260  0.1182 -0.5889
 9349TIP3    H249463   0.433   6.196  15.777 -2.0835 -0.5365 -0.4956
 9350TIP3   OH249464   0.969   5.489   2.330  0.5520 -0.0583  0.0148
 9350TIP3    H149465   0.991   5.402   2.298 -0.6273 -0.9883  1.6359
 9350TIP3    H249466   0.956   5.542   2.250  0.7019 -1.5032 -0.9806
 9351TIP3   OH249467   3.491   3.176   3.214 -0.2455 -0.1069  0.3447
 9351TIP3    H149468   3.412   3.142   3.171 -0.5242  1.2148 -0.1955
 9351TIP3    H249469   3.469   3.176   3.308 -1.1420  0.9067  0.1397
 9352TIP3   OH249470   6.259   3.048  14.889  0.7000  0.1076 -0.4871
 9352TIP3    H149471   6.262   2.987  14.963 -0.5278 -0.0631 -0.5785
 9352TIP3    H249472   6.279   2.995  14.812  2.4958  0.3834 -0.2315
 9353TIP3   OH249473   0.794   2.405  10.813 -1.2372 -0.2668  0.3228
 9353TIP3    H149474   0.708   2.444  10.830 -1.1007  0.4938 -0.7166
 9353TIP3    H249475   0.774   2.323  10.766 -1.3342  0.7260 -1.4034
 9354TIP3   OH249476   5.396   5.087  12.673  0.0377  0.0970  0.0907
 9354TIP3    H149477   5.357   5.056  12.755  1.0171  0.7975  0.8472
 9354TIP3    H249478   5.422   5.007  12.627  1.4836 -0.2821  1.4934
 9355TIP3   OH249479   2.721   5.585  15.310  0.1438  0.0410 -0.3682
 9355TIP3    H149480   2.781   5.515  15.335  0.0648 -0.1986 -0.8423
 9355TIP3    H249481   2.668   5.601  15.388  1.1430  0.5939  0.2179
 9356TIP3   OH249482   5.573   5.551   1.339 -0.1231  0.3326  0.5198
 9356TIP3    H149483   5.524   5.470   1.352 -0.1928  0.1535 -0.7278
 9356TIP3    H249484   5.507   5.614   1.309  0.3320  0.1615 -0.9120
 9357TIP3   OH249485   4.708   2.894   4.787 -0.8940  0.1128  0.3671
 9357TIP3    H149486   4.655   2.973   4.790  0.7964  1.2139  2.4700
 9357TIP3    H249487   4.682   2.844   4.865 -0.4406 -0.3853  0.2079
 9358TIP3   OH249488   1.446   3.547   2.083 -0.5997  0.1417 -0.2358
 9358TIP3    H149489   1.476   3.624   2.035 -1.2054 -0.4932 -1.6413
 9358TIP3    H249490   1.512   3.534   2.151  0.7197  0.5121 -1.4424
 9359TIP3   OH249491   1.789   3.759  14.314  0.2936 -0.1348  0.8084
 9359TIP3    H149492   1.845   3.746  14.238 -0.0541 -2.2030  0.8810
 9359TIP3    H249493   1.743   3.841  14.297 -0.1669 -0.8461 -1.4448
 9360TIP3   OH249494   5.562   6.622   1.647  0.2883 -0.2026 -0.0458
 9360TIP3    H149495   5.498   6.657   1.585  1.0802  0.9706 -0.2179
 9360TIP3    H249496   5.511   6.595   1.723 -0.5292 -0.3247 -0.6422
 9361TIP3   OH249497   1.137   6.151  14.799 -0.1290  0.5764 -0.0990
 9361TIP3    H149498   1.215   6.182  14.845 -1.0457 -0.0490  1.9560
 9361TIP3    H249499   1.158   6.061  14.774  0.0756  0.6462 -0.1763
 9362TIP3   OH249500   6.395   3.148  15.791 -0.6916 -0.6399 -0.2883
 9362TIP3    H149501   6.309   3.106  15.792 -0.0145 -2.1162  3.5748
 9362TIP3    H249502   6.452   3.088  15.840  1.9453  1.5253 -0.5759
 9363TIP3   OH249503   1.433   1.590   5.842  0.1632  0.7180  0.0559
 9363TIP3    H149504   1.512   1.608   5.893 -0.2212  0.3007  0.8111
 9363TIP3    H249505   1.445   1.639   5.761  0.4177  2.0567  0.8785
 9364TIP3   OH249506   5.642   4.633  14.778  0.0782  0.3143 -0.0002
 9364TIP3    H149507   5.635   4.637  14.682 -0.4435 -1.1663 -0.0375
 9364TIP3    H249508   5.672   4.545  14.796  0.9882  0.8613  1.1728
 9365TIP3   OH249509   0.557   3.711   3.571 -0.3171 -0.1912  0.3212
 9365TIP3    H149510   0.617   3.648   3.609 -1.0743 -1.2070 -0.1602
 9365TIP3    H249511   0.535   3.676   3.485 -0.0555  1.1723 -0.3180
 9366TIP3   OH249512   5.050   3.410   2.284 -0.3586 -0.5766  0.3004
 9366TIP3    H149513   4.976   3.424   2.226 -0.6029 -0.9258  0.5246
 9366TIP3    H249514   5.062   3.493   2.329 -0.0418 -0.2429 -0.3935
 9367TIP3   OH249515   4.644   3.954   2.991  0.4026  0.2876 -0.3236
 9367TIP3    H149516   4.554   3.966   3.022  0.4105 -0.7883  0.1402
 9367TIP3    H249517   4.641   3.978   2.899 -0.6727 -1.0740 -0.6658
 9368TIP3   OH249518   6.071   4.121  14.406 -0.1034  0.0541 -0.3006
 9368TIP3    H149519   6.149   4.155  14.361 -0.1635 -0.5394 -0.8550
 9368TIP3    H249520   6.012   4.095  14.335 -1.2036  1.3837  0.1085
 9369TIP3   OH249521   1.517   5.217  17.051 -0.1831 -0.1377  0.2622
 9369TIP3    H149522   1.604   5.255  17.042 -0.2653  0.6622  2.5336
 9369TIP3    H249523   1.457   5.292  17.051 -0.8027 -0.6235 -0.4540
 9370TIP3   OH249524   1.494   1.091  16.140  0.0980 -0.0978  0.5527
 9370TIP3    H149525   1.436   1.164  16.161 -2.0147 -1.3298 -0.9425
 9370TIP3    H249526   1.572   1.107  16.194 -0.2732  3.2972  0.1724
 9371TIP3   OH249527   2.446   5.769   6.233 -0.5315  0.1603 -0.1062
 9371TIP3    H149528   2.363   5.748   6.191 -0.6767 -0.0024  0.2627
 9371TIP3    H249529   2.435   5.859   6.265 -0.8714 -0.1527  0.6832
 9372TIP3   OH249530   2.075   5.906   2.777 -0.4259 -0.6646  0.1061
 9372TIP3    H149531   2.170   5.891   2.781 -0.3959 -0.1815  1.2782
 9372TIP3    H249532   2.054   5.951   2.859 -1.6352 -0.5532 -0.2552
 9373TIP3   OH249533   3.538   0.076   5.493  0.2274 -0.0077  0.6472
 9373TIP3    H149534   3.552   0.001   5.550 -0.3327  0.2011  1.0681
 9373TIP3    H249535   3.556   0.152   5.548  5.4621  0.1451 -1.0516
 9374TIP3   OH249536   1.648   0.287  11.445  0.2167  0.0146 -0.5661
 9374TIP3    H149537   1.576   0.235  11.410  1.1797 -1.3601 -0.5324
 9374TIP3    H249538   1.627   0.296  11.538 -0.5824  0.7557 -0.8048
 9375TIP3   OH249539   1.130   0.420  11.717  0.3501 -0.4182 -0.2310
 9375TIP3    H149540   1.205   0.472  11.687 -0.2623 -0.9766 -2.8837
 9375TIP3    H249541   1.167   0.332  11.730  0.8988  0.1140  2.0507
 9376TIP3   OH249542   6.194   5.970   6.520  0.0118  0.1640 -0.1973
 9376TIP3    H149543   6.186   6.056   6.561 -1.4101 -0.2470  0.4194
 9376TIP3    H249544   6.288   5.956   6.511  0.2864  1.0750  1.2167
 9377TIP3   OH249545   6.351   3.524   2.617  0.2805 -0.0908 -0.1798
 9377TIP3    H149546   6.338   3.595   2.556 -1.5958 -0.7780 -0.6054
 9377TIP3    H249547   6.281   3.534   2.682  1.5684 -0.0243  1.2431
 9378TIP3   OH249548   3.912   6.321   4.479  0.5377  0.0830 -0.1042
 9378TIP3    H149549   3.947   6.232   4.485  0.3499  0.0961  1.2355
 9378TIP3    H249550   3.822   6.314   4.510  0.1931  0.5619 -0.9626
 9379TIP3   OH249551   2.724   3.395  14.813  0.3675  0.2910  0.4185
 9379TIP3    H149552   2.729   3.478  14.765  1.0324 -0.4792 -0.8706
 9379TIP3    H249553   2.807   3.389  14.859  1.6256 -1.1131 -1.9579
 9380TIP3   OH249554   1.549   2.558  14.182 -0.0816  0.7987 -0.2629
 9380TIP3    H149555   1.555   2.653  14.195 -1.3514  1.2144 -2.3677
 9380TIP3    H249556   1.623   2.537  14.125 -1.5697  1.0830 -2.3626
 9381TIP3   OH249557   0.859   3.849   6.360 -0.0660  0.0452  0.0632
 9381TIP3    H149558   0.794   3.907   6.400 -0.7866 -0.3749 -0.4908
 9381TIP3    H249559   0.943   3.886   6.386 -0.5230  0.7974  0.4924
 9382TIP3   OH249560   3.756   3.023   5.931 -0.0109 -0.2845 -0.1254
 9382TIP3    H149561   3.817   2.990   5.998 -0.1201  0.6728  0.4485
 9382TIP3    H249562   3.688   2.956   5.926  1.1302 -1.4300 -0.8529
 9383TIP3   OH249563   4.924   3.983   4.732 -0.0212 -0.2144  0.4965
 9383TIP3    H149564   4.924   4.009   4.640  0.3269  1.1669  0.8843
 9383TIP3    H249565   4.833   3.961   4.750 -0.0235 -0.8982 -0.2813
 9384TIP3   OH249566   6.643   4.041  15.606 -0.2438 -0.8128  0.4561
 9384TIP3    H149567   6.730   4.067  15.637 -0.3244  1.2995 -1.0115
 9384TIP3    H249568   6.659   3.989  15.528 -0.2964 -0.5434  0.2664
 9385TIP3   OH249569   0.079   3.749  12.330 -0.2752 -0.1737 -0.2920
 9385TIP3    H149570   0.169   3.779  12.342  0.1964 -1.2463 -1.0247
 9385TIP3    H249571   0.059   3.769  12.238  0.4988 -3.1575 -1.1851
 9386TIP3   OH249572   2.310   2.429  14.524  0.2319  0.2038 -0.9765
 9386TIP3    H149573   2.332   2.515  14.489 -0.6655  1.1913  0.8020
 9386TIP3    H249574   2.216   2.419  14.505 -0.4119  1.0259  1.6550
 9387TIP3   OH249575   2.978   5.987   2.638 -0.3064 -0.2563 -0.3565
 9387TIP3    H149576   3.061   5.950   2.668 -0.9232 -2.2242 -0.9979
 9387TIP3    H249577   2.967   5.953   2.550 -0.7591  1.7502 -1.1083
 9388TIP3   OH249578   2.390   0.831  15.007  0.3431 -0.1135 -0.5731
 9388TIP3    H149579   2.478   0.867  15.016  1.0733 -1.5103 -1.8197
 9388TIP3    H249580   2.361   0.814  15.097  0.5421  2.1856 -0.0514
 9389TIP3   OH249581   3.299   1.481   3.136 -0.9476 -0.2730 -0.4204
 9389TIP3    H149582   3.252   1.422   3.076 -0.4879 -0.6118 -0.4606
 9389TIP3    H249583   3.321   1.557   3.082 -1.7876  0.0530 -0.2937
 9390TIP3   OH249584   2.817   5.940  14.783 -0.4936 -0.5826 -0.2844
 9390TIP3    H149585   2.870   5.994  14.725  1.3515 -2.0000  0.0418
 9390TIP3    H249586   2.822   5.852  14.746  0.0899 -1.3546  1.5966
 9391TIP3   OH249587   3.975   1.404  15.282 -0.4199  0.9757 -0.7246
 9391TIP3    H149588   3.902   1.358  15.324 -0.8813 -0.4332 -2.9439
 9391TIP3    H249589   4.018   1.451  15.353 -2.0087 -0.1579  1.0509
 9392TIP3   OH249590   5.012   2.625  17.073 -0.5894 -0.0736  0.5177
 9392TIP3    H149591   5.035   2.542  17.032 -1.8991 -0.2459  0.1142
 9392TIP3    H249592   5.090   2.679  17.063  0.7088 -1.6428  1.8385
 9393TIP3   OH249593   6.689   6.443  15.241 -0.0586  0.0710  0.1641
 9393TIP3    H149594   6.594   6.453  15.244  0.1088  1.6761  0.8751
 9393TIP3    H249595   6.714   6.477  15.155 -0.2298 -1.3917 -0.4702
 9394TIP3   OH249596   4.702   3.924  13.101  0.5893 -0.4891  0.1831
 9394TIP3    H149597   4.642   3.966  13.162 -1.4109 -1.8239 -0.8206
 9394TIP3    H249598   4.760   3.873  13.156  0.6513  0.5961  1.1514
 9395TIP3   OH249599   4.662   3.945   1.926  0.5987  0.1432 -0.3775
 9395TIP3    H149600   4.593   3.973   1.866 -0.4527 -0.4307  0.5456
 9395TIP3    H249601   4.673   3.851   1.907  2.4258  0.6014 -1.7912
 9396TIP3   OH249602   2.112   6.414  14.053  0.2330 -0.1864  0.1230
 9396TIP3    H149603   2.058   6.348  14.096  0.3949 -1.1813 -1.1503
 9396TIP3    H249604   2.051   6.479  14.021  0.0503  0.1766  1.2194
 9397TIP3   OH249605   3.030   5.668  12.898  0.9114  0.6122  0.4903
 9397TIP3    H149606   3.050   5.753  12.858  1.8652  0.6723  1.0756
 9397TIP3    H249607   3.115   5.623  12.900  1.1007  1.0296  3.4468
 9398TIP3   OH249608   1.093   6.508  13.604  0.1075 -0.3957  0.3378
 9398TIP3    H149609   1.111   6.577  13.540 -0.2068 -1.0323 -0.4429
 9398TIP3    H249610   1.180   6.479  13.633  0.4047 -2.9426 -2.8630
 9399TIP3   OH249611   4.828   5.686   0.290 -0.1760  0.5581 -0.6819
 9399TIP3    H149612   4.808   5.703   0.198  0.0911  1.2123 -0.6190
 9399TIP3    H249613   4.908   5.634   0.288  0.2346  1.1927 -0.7948
 9400TIP3   OH249614   1.052   2.819  14.497  0.6511 -0.4165  0.3399
 9400TIP3    H149615   1.061   2.729  14.529 -1.2684 -1.6325 -2.3401
 9400TIP3    H249616   0.977   2.854  14.544 -0.2262 -1.1521 -0.4641
 9401TIP3   OH249617   0.758   5.097  10.725 -0.2486  0.0575 -0.0703
 9401TIP3    H149618   0.837   5.094  10.779  0.9264  1.0095 -1.6969
 9401TIP3    H249619   0.687   5.113  10.788  0.9370 -0.0730  1.3264
 9402TIP3   OH249620   4.093   1.768   3.969 -0.8172 -0.0172  0.1585
 9402TIP3    H149621   4.011   1.777   4.018 -0.6261  0.0871  0.4624
 9402TIP3    H249622   4.162   1.787   4.034 -0.5579 -0.0210 -0.1139
 9403TIP3   OH249623   6.006   5.072   4.385  0.6769  0.2678 -0.0511
 9403TIP3    H149624   5.933   5.024   4.345  1.2040 -0.8988  0.3647
 9403TIP3    H249625   5.964   5.147   4.427 -0.4408 -0.9141  1.0373
 9404TIP3   OH249626   5.913   4.812   4.508 -0.3057  0.0882 -0.1657
 9404TIP3    H149627   5.946   4.853   4.428  0.1276  0.3813  0.1602
 9404TIP3    H249628   5.825   4.846   4.519 -0.0702  0.6658 -0.0818
 9405TIP3   OH249629   2.782   4.413   1.192 -0.0986  0.2782  0.1091
 9405TIP3    H149630   2.700   4.457   1.170 -0.4993 -0.7690 -0.4724
 9405TIP3    H249631   2.850   4.467   1.151 -0.5646  0.5427 -0.3118
 9406TIP3   OH249632   1.370   2.922   5.880 -0.0769  0.0864 -0.0533
 9406TIP3    H149633   1.372   2.854   5.812 -0.2238 -0.1162  0.1456
 9406TIP3    H249634   1.279   2.925   5.907 -0.1966  0.8421 -0.5444
 9407TIP3   OH249635   2.747   1.058  14.604  0.1293  0.0033  0.0048
 9407TIP3    H149636   2.668   1.057  14.657 -0.8152 -1.3901 -1.3771
 9407TIP3    H249637   2.817   1.081  14.665 -1.1698  0.0764  1.4915
 9408TIP3   OH249638   0.365   5.789  11.658  0.4208 -0.7857  0.0327
 9408TIP3    H149639   0.325   5.872  11.630 -0.1474 -1.0702 -0.0216
 9408TIP3    H249640   0.409   5.810  11.740 -0.0367 -0.5033  0.2134
 9409TIP3   OH249641   1.208   2.886  12.015 -0.0999 -0.0584 -0.1726
 9409TIP3    H149642   1.275   2.840  12.065  0.9538  1.6588  0.0268
 9409TIP3    H249643   1.127   2.872  12.065  0.0215 -2.3008 -0.5233
 9410TIP3   OH249644   0.252   4.803   5.522  0.3273  0.0954  0.0674
 9410TIP3    H149645   0.275   4.847   5.440 -0.0996 -0.8095 -0.5492
 9410TIP3    H249646   0.335   4.770   5.556  0.0724 -2.9551 -2.0230
 9411TIP3   OH249647   0.035   2.653   6.101  0.1821 -0.2913  0.0412
 9411TIP3    H149648   0.116   2.605   6.119  1.7709  1.8381 -1.2104
 9411TIP3    H249649   0.064   2.740   6.074 -2.5103  0.3163 -1.0594
 9412TIP3   OH249650   5.035   4.825  15.558  0.4130 -0.0234  0.1297
 9412TIP3    H149651   5.124   4.793  15.543 -0.4860 -2.2390 -0.6173
 9412TIP3    H249652   4.997   4.834  15.471 -0.0815  0.9837  0.4407
 9413TIP3   OH249653   0.763   6.600  16.368  0.7324  0.1523  0.3844
 9413TIP3    H149654   0.800   6.617  16.455 -2.2175 -0.6139  1.8688
 9413TIP3    H249655   0.671   6.626  16.376 -0.6105 -3.7874 -1.2453
 9414TIP3   OH249656   4.529   1.827  11.440 -0.6181  0.4963 -0.2931
 9414TIP3    H149657   4.545   1.822  11.345  1.5411 -0.6107  0.1126
 9414TIP3    H249658   4.597   1.772  11.479 -1.9764  0.3068  1.8711
 9415TIP3   OH249659   4.233   5.424  14.760 -0.2302 -0.0255 -0.3019
 9415TIP3    H149660   4.149   5.467  14.749 -0.0767  0.7827  1.5200
 9415TIP3    H249661   4.272   5.423  14.672 -1.3354  1.2255 -0.8109
 9416TIP3   OH249662   5.650   0.318   5.875  0.1979 -0.1933  0.3763
 9416TIP3    H149663   5.661   0.236   5.828 -1.3348 -0.2983  0.1802
 9416TIP3    H249664   5.684   0.300   5.963  0.3749 -0.8559  0.1719
 9417TIP3   OH249665   4.958   4.751  14.143 -0.4710  0.3701  0.4390
 9417TIP3    H149666   4.969   4.660  14.115 -1.8565  0.7652 -1.4437
 9417TIP3    H249667   5.035   4.768  14.198 -1.1038 -2.4804  2.3197
 9418TIP3   OH249668   1.934   5.396   3.544 -0.2663  0.3676 -0.4251
 9418TIP3    H149669   2.025   5.368   3.537 -0.1974  0.1882  1.0917
 9418TIP3    H249670   1.911   5.382   3.636 -1.7380  0.6767 -0.7292
 9419TIP3   OH249671   4.217   6.577  16.791 -0.2760  0.6031 -0.4737
 9419TIP3    H149672   4.239   6.640  16.722 -1.5720 -0.1106 -1.5812
 9419TIP3    H249673   4.128   6.549  16.770  0.5403 -2.1580 -0.4532
 9420TIP3   OH249674   3.857   5.096   5.491 -0.3238  0.5080  0.1080
 9420TIP3    H149675   3.802   5.092   5.569 -0.3315  1.5988  0.1711
 9420TIP3    H249676   3.923   5.028   5.504 -0.1256  0.9109  1.2204
 9421TIP3   OH249677   5.334   3.638  15.053 -0.1163 -0.4459  0.7676
 9421TIP3    H149678   5.270   3.707  15.069  0.0198  0.0934 -0.8959
 9421TIP3    H249679   5.281   3.559  15.039 -0.4009 -0.0857 -0.1905
 9422TIP3   OH249680   4.679   3.785  15.904 -0.3341 -0.3192  0.3465
 9422TIP3    H149681   4.759   3.741  15.933  0.7526  1.3738 -0.0310
 9422TIP3    H249682   4.680   3.869  15.948 -0.9136  0.5013 -1.1590
 9423TIP3   OH249683   1.114   4.282   4.154  0.0749  0.7258  0.4201
 9423TIP3    H149684   1.197   4.235   4.147  0.5423  1.7699 -1.2338
 9423TIP3    H249685   1.060   4.247   4.083 -1.0298 -0.1467  1.6532
 9424TIP3   OH249686   6.388   5.649   6.331  0.1185  0.0785 -0.0356
 9424TIP3    H149687   6.329   5.630   6.258  1.0290 -1.0955 -0.4780
 9424TIP3    H249688   6.350   5.602   6.405  0.4074 -0.5506 -0.2831
 9425TIP3   OH249689   2.576   3.049  11.422  0.1621 -0.4149  0.3259
 9425TIP3    H149690   2.521   3.090  11.356  1.9895  0.3187 -0.7716
 9425TIP3    H249691   2.651   3.015  11.373  2.1102  1.1236  2.1535
 9426TIP3   OH249692   3.912   2.867   5.443 -0.6379  0.3352  0.2451
 9426TIP3    H149693   3.889   2.937   5.504  3.0509  0.6874  1.3499
 9426TIP3    H249694   3.850   2.796   5.463 -0.8317  1.2181  2.9691
 9427TIP3   OH249695   4.842   3.101   3.789  0.2251  0.1361  0.0335
 9427TIP3    H149696   4.861   3.057   3.871  1.4725  0.0140 -0.3085
 9427TIP3    H249697   4.842   3.194   3.810 -0.3621  0.0630  0.3500
 9428TIP3   OH249698   5.598   3.680  12.047 -0.3984  0.7097 -0.0757
 9428TIP3    H149699   5.567   3.714  12.131  0.9401 -0.8351  1.0742
 9428TIP3    H249700   5.693   3.692  12.050 -0.2425 -0.2614 -0.9448
 9429TIP3   OH249701   3.384   5.650  13.235  0.4183  0.0428  0.5046
 9429TIP3    H149702   3.330   5.623  13.309  1.1647  1.1987  1.4941
 9429TIP3    H249703   3.471   5.666  13.273  0.5002  1.8543 -0.3768
 9430TIP3   OH249704   5.324   5.674   1.405 -0.0673  0.0623  0.2799
 9430TIP3    H149705   5.334   5.744   1.340  0.5689 -0.9902 -0.7804
 9430TIP3    H249706   5.233   5.647   1.398 -0.2472  0.6216  0.5080
 9431TIP3   OH249707   0.136   1.348   0.585 -0.2944 -0.3534  0.8061
 9431TIP3    H149708   0.143   1.395   0.502 -0.8446 -2.0394 -0.2158
 9431TIP3    H249709   0.116   1.416   0.650  2.1543  1.2833 -0.0656
 9432TIP3   OH249710   6.120   6.226   1.771 -0.0370 -0.3437  0.4772
 9432TIP3    H149711   6.135   6.155   1.709 -1.4686  0.6174 -1.0232
 9432TIP3    H249712   6.161   6.302   1.731 -2.0963  0.5741  0.0226
 9433TIP3   OH249713   3.733   3.429  14.890 -0.3854  0.4608  0.1756
 9433TIP3    H149714   3.696   3.375  14.959  3.3444 -0.1175  1.8236
 9433TIP3    H249715   3.729   3.518  14.924  0.2765  0.3283  0.6014
 9434TIP3   OH249716   4.786   0.584   1.954  0.3661 -0.5114 -0.1284
 9434TIP3    H149717   4.826   0.519   2.011  0.0131 -0.9656 -0.3952
 9434TIP3    H249718   4.736   0.641   2.013  1.0276 -0.2243  0.1504
 9435TIP3   OH249719   0.402   0.271  11.057  0.1006  0.0391  0.0337
 9435TIP3    H149720   0.328   0.241  11.003 -1.1052  0.1097  1.6083
 9435TIP3    H249721   0.390   0.226  11.140  0.8828  1.3590  0.8666
 9436TIP3   OH249722   6.048   1.879  13.254  0.5273  0.3156 -0.1576
 9436TIP3    H149723   6.044   1.874  13.349  0.8170  1.2068 -0.0908
 9436TIP3    H249724   6.098   1.802  13.228  2.1364  1.0867  0.5685
 9437TIP3   OH249725   0.030   2.747  13.209  0.2368 -0.1658  0.0472
 9437TIP3    H149726   0.113   2.722  13.170  0.0054 -0.0147 -0.5475
 9437TIP3    H249727   0.004   2.826  13.163  0.3766  0.4982  1.0981
 9438TIP3   OH249728   1.420   3.643   3.065 -1.0129  0.1339 -0.1511
 9438TIP3    H149729   1.439   3.556   3.029 -0.9025  0.6757 -1.4101
 9438TIP3    H249730   1.504   3.688   3.065 -1.1579  0.4053  0.0826
 9439TIP3   OH249731   1.341   0.820   2.815  0.2754  0.3253 -0.5103
 9439TIP3    H149732   1.314   0.910   2.800  0.1061  0.1938 -1.0055
 9439TIP3    H249733   1.364   0.817   2.908  0.6364  0.9684 -0.5763
 9440TIP3   OH249734   6.418   1.132  12.958  0.5606  0.3287  0.3793
 9440TIP3    H149735   6.344   1.186  12.931  1.7655  1.2057 -1.2687
 9440TIP3    H249736   6.386   1.042  12.955 -1.0791  0.8248  1.8619
 9441TIP3   OH249737   1.463   6.342  10.921  0.0737 -0.0061  0.1649
 9441TIP3    H149738   1.440   6.371  10.833 -0.1402 -1.0963 -0.1466
 9441TIP3    H249739   1.558   6.344  10.923  0.0454  3.2926  1.0389
 9442TIP3   OH249740   6.199   0.524  14.189  0.1129  0.1682  0.2300
 9442TIP3    H149741   6.216   0.515  14.095  2.2754 -0.0607  0.6146
 9442TIP3    H249742   6.172   0.437  14.218 -1.9879  0.5764 -0.4301
 9443TIP3   OH249743   5.785   3.422   1.111 -0.0442 -0.0372 -0.0534
 9443TIP3    H149744   5.696   3.418   1.147  0.6037 -0.6397  1.5289
 9443TIP3    H249745   5.840   3.383   1.179  1.4926  0.7472 -0.8257
 9444TIP3   OH249746   4.934   4.076   3.451 -0.5562 -0.2079  0.3720
 9444TIP3    H149747   4.905   4.023   3.377  2.3448 -0.4418 -0.6851
 9444TIP3    H249748   4.882   4.156   3.446 -2.6694 -1.5772  0.0231
 9445TIP3   OH249749   0.575   0.730   1.448 -0.1565  0.8087  0.0422
 9445TIP3    H149750   0.512   0.725   1.376 -1.7269  0.0361  1.4145
 9445TIP3    H249751   0.639   0.662   1.428 -0.8291  0.2961 -0.4086
 9446TIP3   OH249752   4.685   0.485   3.452  0.3566 -0.1283  0.2709
 9446TIP3    H149753   4.709   0.536   3.529  2.1040  1.2415 -1.1303
 9446TIP3    H249754   4.768   0.451   3.419 -0.3944 -0.9168 -0.8494
 9447TIP3   OH249755   5.115   1.752  13.309  0.0402  0.4272  0.7611
 9447TIP3    H149756   5.111   1.664  13.345 -0.1416  0.2670  0.3504
 9447TIP3    H249757   5.176   1.799  13.367  3.5187 -1.1202 -1.4539
 9448TIP3   OH249758   3.019   2.431  13.524  0.0395  0.4965  0.0460
 9448TIP3    H149759   3.017   2.525  13.545  0.3865  0.6652 -0.6478
 9448TIP3    H249760   3.089   2.423  13.459 -1.2103  0.0383 -1.2544
 9449TIP3   OH249761   2.294   0.038   1.846 -0.1000  0.1577 -0.1927
 9449TIP3    H149762   2.259   0.127   1.843 -0.8016 -0.0715  1.1667
 9449TIP3    H249763   2.372   0.042   1.790 -0.3513  1.5225 -0.4687
 9450TIP3   OH249764   5.918   2.551  16.126  0.1027 -0.3162  0.2761
 9450TIP3    H149765   5.838   2.564  16.176 -0.5099  2.5681 -1.3418
 9450TIP3    H249766   5.897   2.479  16.066 -1.2185  0.3115 -0.0304
 9451TIP3   OH249767   3.722   3.298   0.819  0.1923 -0.0619 -0.3528
 9451TIP3    H149768   3.709   3.303   0.913  0.4455  1.1567 -0.3680
 9451TIP3    H249769   3.651   3.351   0.782  1.2166  1.0713 -0.7438
 9452TIP3   OH249770   5.671   5.707  16.453 -0.3277 -0.8075 -0.1716
 9452TIP3    H149771   5.673   5.787  16.400  0.1446 -1.4514 -1.1185
 9452TIP3    H249772   5.735   5.723  16.523 -0.1533 -0.4062 -0.4219
 9453TIP3   OH249773   5.934   3.403  10.481  0.2451  0.0225  0.5925
 9453TIP3    H149774   6.000   3.457  10.523 -0.1125  0.1261  1.0345
 9453TIP3    H249775   5.893   3.460  10.417  0.5929 -0.0466  0.3061
 9454TIP3   OH249776   0.893   1.707  14.730 -0.7821 -0.1829 -0.0671
 9454TIP3    H149777   0.937   1.765  14.668 -0.3311  1.0900  1.4232
 9454TIP3    H249778   0.810   1.685  14.688 -0.0048 -0.2360 -1.6076
 9455TIP3   OH249779   5.855   3.523  14.698 -0.5161  0.0323 -0.0793
 9455TIP3    H149780   5.915   3.524  14.624  0.0652 -0.7822  0.3775
 9455TIP3    H249781   5.798   3.448  14.682  0.6369 -1.1148  1.1013
 9456TIP3   OH249782   1.551   6.539   3.111  0.1741  0.5579 -0.3955
 9456TIP3    H149783   1.639   6.505   3.126 -0.1635  0.4938  1.5284
 9456TIP3    H249784   1.565   6.626   3.073  1.0985  1.3371  1.6523
 9457TIP3   OH249785   5.063   5.053   0.004 -0.2653  0.2275 -0.0625
 9457TIP3    H149786   4.995   5.061   0.071 -0.0405 -0.4069  0.2425
 9457TIP3    H249787   5.042   5.122  -0.059  0.7284  2.2160  1.6918
 9458TIP3   OH249788   1.359   2.897   0.171 -0.1634 -0.3631  0.3699
 9458TIP3    H149789   1.389   2.896   0.080 -0.0329 -0.8776  0.4151
 9458TIP3    H249790   1.438   2.915   0.221 -0.3405  0.4991  0.3466
 9459TIP3   OH249791   3.945   6.768   2.945  0.6065  0.2961 -0.2818
 9459TIP3    H149792   3.975   6.857   2.925  1.8129 -0.4100 -1.7309
 9459TIP3    H249793   3.938   6.725   2.860  0.9106 -1.2692  0.4652
 9460TIP3   OH249794   0.925   2.062  12.205  0.2091 -0.5175  0.3435
 9460TIP3    H149795   0.853   2.028  12.258 -0.0110 -1.1831 -0.3842
 9460TIP3    H249796   0.887   2.076  12.119  1.0841 -1.3602 -0.1846
 9461TIP3   OH249797   5.984   3.033  12.329  0.6558  0.0593 -0.5776
 9461TIP3    H149798   5.889   3.020  12.330  0.6009  0.1992 -2.1772
 9461TIP3    H249799   5.997   3.118  12.371  0.3120 -1.1330  2.0450
 9462TIP3   OH249800   0.900   2.093   1.846  0.5986  0.3368 -0.1315
 9462TIP3    H149801   0.855   2.009   1.840  0.6168  0.3530 -0.5744
 9462TIP3    H249802   0.835   2.157   1.816  0.5022  0.5103  0.4421
 9463TIP3   OH249803   3.914   3.008  13.882  0.3153 -0.2309  0.1451
 9463TIP3    H149804   3.889   3.089  13.925  0.8179  0.8464 -1.5629
 9463TIP3    H249805   3.971   3.035  13.810  1.2404 -2.1593  0.1123
 9464TIP3   OH249806   1.470   0.694  17.217  0.2108  0.8684  0.7540
 9464TIP3    H149807   1.456   0.688  17.311  0.2052 -0.2428  0.6959
 9464TIP3    H249808   1.382   0.701  17.179  0.1969  0.9961  0.8085
 9465TIP3   OH249809   3.940   6.289   2.406 -0.3251 -0.0760 -0.4175
 9465TIP3    H149810   3.963   6.357   2.343  1.1085 -0.2269 -0.0621
 9465TIP3    H249811   4.005   6.220   2.393 -0.8871 -0.7426  0.2388
 9466TIP3   OH249812   0.202   1.591   1.563  0.4452  0.3536  0.2072
 9466TIP3    H149813   0.284   1.632   1.536  0.3835  0.4336  0.1416
 9466TIP3    H249814   0.211   1.499   1.539 -0.0006  0.6117 -0.9612
 9467TIP3   OH249815   1.582   0.304   4.742  0.4133 -0.3934  0.1463
 9467TIP3    H149816   1.503   0.252   4.758 -0.8155  1.3034 -0.2563
 9467TIP3    H249817   1.582   0.370   4.811  0.0940  1.1942 -1.3501
 9468TIP3   OH249818   1.906   3.030  11.922  0.5080 -0.2075 -0.2738
 9468TIP3    H149819   1.828   3.084  11.913 -0.7065 -1.5916  1.4852
 9468TIP3    H249820   1.970   3.088  11.964 -0.8074 -0.1164  1.6843
 9469TIP3   OH249821   6.724   2.844   4.984  0.3349 -0.0178 -0.0783
 9469TIP3    H149822   6.733   2.894   4.903  1.4777 -0.2830 -0.1248
 9469TIP3    H249823   6.632   2.820   4.987  0.1369  0.6066 -0.9444
 9470TIP3   OH249824   5.816   3.418   1.666 -0.2555  0.2328  0.1609
 9470TIP3    H149825   5.816   3.451   1.756 -2.8380 -2.5041  1.2397
 9470TIP3    H249826   5.860   3.487   1.616  0.4335  2.2317  3.3423
 9471TIP3   OH249827   4.923   0.825   1.240 -0.4034  0.1960 -0.1628
 9471TIP3    H149828   4.860   0.873   1.186 -1.5583 -0.0779  0.9301
 9471TIP3    H249829   4.993   0.888   1.256 -0.9926  0.9034 -0.3481
 9472TIP3   OH249830   5.869   4.088   0.934  0.1385  0.1359 -0.2969
 9472TIP3    H149831   5.955   4.076   0.974  1.1288  0.0539 -2.3932
 9472TIP3    H249832   5.860   4.183   0.925 -0.5103  0.2094  0.9829
 9473TIP3   OH249833   4.630   3.266   2.880 -0.7431 -0.8960  0.0173
 9473TIP3    H149834   4.623   3.258   2.975 -0.0543 -0.3196  0.1259
 9473TIP3    H249835   4.694   3.199   2.855 -1.9645 -1.9874 -0.2155
 9474TIP3   OH249836   6.114   1.032  12.011 -0.7014 -0.3340 -0.3012
 9474TIP3    H149837   6.110   1.126  12.029 -2.8206 -0.1875 -1.3859
 9474TIP3    H249838   6.052   0.993  12.072 -0.4241 -0.9393 -0.3978
 9475TIP3   OH249839   2.504   4.154  13.444 -0.0215 -0.1247 -0.1933
 9475TIP3    H149840   2.545   4.119  13.365  0.2215  0.0391 -0.1395
 9475TIP3    H249841   2.418   4.185  13.414 -0.9180 -2.2522  0.0691
 9476TIP3   OH249842   1.095   2.129   2.804 -0.1916 -0.4340  0.0178
 9476TIP3    H149843   1.051   2.096   2.882 -0.6833  0.3525  0.0718
 9476TIP3    H249844   1.054   2.214   2.787  0.5323 -0.2015 -0.5775
 9477TIP3   OH249845   0.524   1.528   5.833  0.6429  0.6007  0.2060
 9477TIP3    H149846   0.536   1.523   5.927  0.8951 -1.4386  0.1033
 9477TIP3    H249847   0.435   1.495   5.818  1.2071 -0.7147 -0.3743
 9478TIP3   OH249848   6.499   6.698  13.034 -0.2663 -0.4974  0.1612
 9478TIP3    H149849   6.443   6.673  12.961 -0.5308  0.3587  0.0663
 9478TIP3    H249850   6.443   6.751  13.090  0.2709 -0.1497  0.3731
 9479TIP3   OH249851   1.281   5.901  11.951 -0.7519 -0.2374  0.1890
 9479TIP3    H149852   1.256   5.907  11.859 -1.5480  0.1459  0.4292
 9479TIP3    H249853   1.214   5.845  11.991 -0.9591  0.4074  0.7392
 9480TIP3   OH249854   1.577   6.256  14.423  0.4104  0.4635 -0.2591
 9480TIP3    H149855   1.564   6.225  14.333 -0.2394 -2.6317  0.8280
 9480TIP3    H249856   1.671   6.275  14.428  0.3549  1.2087 -1.7456
 9481TIP3   OH249857   2.224   4.269  15.978 -0.1815 -0.7024  0.3541
 9481TIP3    H149858   2.273   4.317  15.911  0.0228 -2.3848 -0.7192
 9481TIP3    H249859   2.153   4.329  16.002 -0.4134 -0.1462 -1.5527
 9482TIP3   OH249860   3.809   3.604  10.656  0.1081  0.2483  0.1006
 9482TIP3    H149861   3.729   3.552  10.657 -1.3259  2.3825 -0.9155
 9482TIP3    H249862   3.803   3.657  10.577  2.5363  0.4562  0.0112
 9483TIP3   OH249863   6.177   4.415  11.338 -0.5640  0.1009  0.2116
 9483TIP3    H149864   6.096   4.455  11.307 -1.1727 -0.7028  0.7597
 9483TIP3    H249865   6.158   4.388  11.428  1.1514  2.3679  1.3261
 9484TIP3   OH249866   6.345   6.608  16.005  0.6005 -0.0320  0.2555
 9484TIP3    H149867   6.282   6.552  16.049  0.9454 -1.2093 -0.7198
 9484TIP3    H249868   6.385   6.552  15.939  0.5572  1.5154 -1.1142
 9485TIP3   OH249869   0.416   0.440  12.490  0.2473  0.4266  0.4125
 9485TIP3    H149870   0.347   0.491  12.532  1.1826  0.4023  2.0102
 9485TIP3    H249871   0.370   0.391  12.421 -1.6975 -1.0294  2.6468
 9486TIP3   OH249872   2.924   0.068  13.569  0.1045 -0.3802  0.2145
 9486TIP3    H149873   2.868   0.032  13.500  0.4461  0.5823 -0.5764
 9486TIP3    H249874   2.999   0.007  13.573 -0.1580 -0.7124  0.0869
 9487TIP3   OH249875   3.662   2.536  11.525 -0.2765 -0.0109 -0.2456
 9487TIP3    H149876   3.613   2.486  11.460  0.2318 -0.9046  0.0450
 9487TIP3    H249877   3.650   2.628  11.500  0.4616 -0.3672 -2.0038
 9488TIP3   OH249878   3.437   3.752  14.969  0.2901  0.0788 -0.2380
 9488TIP3    H149879   3.427   3.694  14.894 -1.6271  2.2491 -1.7337
 9488TIP3    H249880   3.351   3.793  14.979  1.8732  3.5477  0.0125
 9489TIP3   OH249881   6.694   3.179  12.632  0.1327 -0.1320 -0.5108
 9489TIP3    H149882   6.605   3.195  12.599  0.0770 -0.1014 -0.3483
 9489TIP3    H249883   6.750   3.232  12.575 -0.0497  0.6226 -0.0038
 9490TIP3   OH249884   3.362   0.623   4.351  0.6249 -0.0578  0.4086
 9490TIP3    H149885   3.330   0.661   4.433  0.3586  1.1661 -0.2415
 9490TIP3    H249886   3.441   0.674   4.331  1.1294 -0.8673  0.2957
 9491TIP3   OH249887   3.592   4.386  11.349 -0.0378 -0.0773 -0.2544
 9491TIP3    H149888   3.687   4.381  11.348 -0.0268  0.2870 -1.1355
 9491TIP3    H249889   3.563   4.295  11.341  0.2321 -0.2339  0.5108
 9492TIP3   OH249890   5.089   0.373   4.978 -0.4166 -0.3475 -0.4122
 9492TIP3    H149891   5.089   0.469   4.986 -1.5225 -0.4180  0.5763
 9492TIP3    H249892   5.064   0.357   4.887  0.2650  0.3144 -0.7180
 9493TIP3   OH249893   4.830   2.154  13.257  0.0592  0.0066  0.0203
 9493TIP3    H149894   4.737   2.141  13.234  0.5430 -0.1418 -1.9603
 9493TIP3    H249895   4.877   2.096  13.196  1.5555  1.6009 -0.3641
 9494TIP3   OH249896   6.741   2.449  14.364 -0.1690  0.2198 -0.3390
 9494TIP3    H149897   6.811   2.426  14.426  0.2980  1.3410 -0.4503
 9494TIP3    H249898   6.666   2.467  14.420  0.0706  0.5877 -0.1378
 9495TIP3   OH249899   6.710   1.328  14.386 -0.1142 -0.6694  0.3663
 9495TIP3    H149900   6.734   1.340  14.294 -1.9825  1.2173  0.0955
 9495TIP3    H249901   6.690   1.234  14.393 -0.4037 -0.7428 -1.2656
 9496TIP3   OH249902   4.993   4.561   4.240 -0.4837 -0.5718 -0.0922
 9496TIP3    H149903   5.051   4.630   4.273 -2.3762  0.7198  0.6262
 9496TIP3    H249904   4.940   4.603   4.173 -1.5712 -1.3580  0.2519
 9497TIP3   OH249905   1.401   1.558  15.567  0.6760  0.8199  0.0032
 9497TIP3    H149906   1.421   1.464  15.560 -0.2478  0.4818  1.7745
 9497TIP3    H249907   1.486   1.601  15.562  1.1577 -0.1425 -0.2449
 9498TIP3   OH249908   6.712   5.237  12.669  0.0564  1.1266 -0.3304
 9498TIP3    H149909   6.760   5.157  12.688 -0.0001  1.3925  0.9326
 9498TIP3    H249910   6.765   5.307  12.709 -1.2436  1.4433  0.8641
 9499TIP3   OH249911   2.874   6.760   1.269 -0.4323 -0.0813  0.1947
 9499TIP3    H149912   2.952   6.807   1.241  0.0366 -0.3463  1.0478
 9499TIP3    H249913   2.850   6.707   1.192 -1.4937  2.1641 -1.0899
 9500TIP3   OH249914   2.045   6.673  11.324  0.4974  0.0752 -0.0040
 9500TIP3    H149915   1.991   6.746  11.355  0.2873  0.3891 -1.0789
 9500TIP3    H249916   2.130   6.687  11.367  0.5677  1.1523 -0.4717
 9501TIP3   OH249917   4.933   2.632  12.316 -0.0408  0.4986 -0.1491
 9501TIP3    H149918   4.856   2.600  12.269  0.4007 -1.2411  0.2936
 9501TIP3    H249919   4.930   2.589  12.401  0.2720  2.0686  0.6825
 9502TIP3   OH249920   0.001   3.479   4.281 -0.4499 -0.4677  0.3055
 9502TIP3    H149921  -0.091   3.504   4.286 -0.2587  0.3091  0.0485
 9502TIP3    H249922   0.018   3.470   4.187 -0.4839 -1.4459  0.3901
 9503TIP3   OH249923   4.192   3.401   4.944 -0.6347  0.8138 -0.2244
 9503TIP3    H149924   4.152   3.330   4.994 -0.1341  1.6770  1.4082
 9503TIP3    H249925   4.121   3.433   4.887 -0.6262 -1.5594 -1.6347
 9504TIP3   OH249926   3.170   1.928   1.639  0.0698 -0.2646 -0.0540
 9504TIP3    H149927   3.231   1.856   1.624  0.8585  0.3522  0.1670
 9504TIP3    H249928   3.130   1.944   1.553  0.0239 -0.8387 -0.1417
 9505TIP3   OH249929   3.649   1.775  16.010 -0.0078 -0.0048 -0.3487
 9505TIP3    H149930   3.678   1.703  15.954  0.0442 -0.5838  0.4307
 9505TIP3    H249931   3.556   1.784  15.991 -0.0699 -0.4460 -0.2592
 9506TIP3   OH249932   0.406   3.831  11.051 -0.5199 -0.1227  0.3336
 9506TIP3    H149933   0.332   3.801  11.104 -1.6134  1.6848 -0.1398
 9506TIP3    H249934   0.446   3.900  11.103  0.2132 -0.3757  0.1129
 9507TIP3   OH249935   4.173   0.351   3.627  0.2143 -0.6185 -0.4812
 9507TIP3    H149936   4.206   0.367   3.539  0.7640  2.2626  0.2167
 9507TIP3    H249937   4.084   0.385   3.626  0.3446 -0.2557  0.1779
 9508TIP3   OH249938   5.700   0.056  11.184 -0.0539 -0.5341  0.4174
 9508TIP3    H149939   5.663  -0.033  11.181 -1.1141 -0.0850  0.0885
 9508TIP3    H249940   5.684   0.091  11.097  1.5981 -0.5071  0.1236
 9509TIP3   OH249941   1.735   2.046   2.627 -0.0703 -0.3303 -0.1494
 9509TIP3    H149942   1.674   2.116   2.652  1.5179  1.3603 -0.8636
 9509TIP3    H249943   1.721   1.978   2.693 -2.2710  0.2800  0.0602
 9510TIP3   OH249944   0.032   3.476   1.129 -0.3335  0.3124  0.1314
 9510TIP3    H149945   0.088   3.533   1.076  0.5095 -0.9671 -0.3994
 9510TIP3    H249946   0.071   3.389   1.119 -1.8933 -0.4463  0.4998
 9511TIP3   OH249947   2.819   4.455   5.426  0.0912 -0.2102  0.4587
 9511TIP3    H149948   2.842   4.476   5.517  0.6405 -0.5621  0.4020
 9511TIP3    H249949   2.899   4.417   5.389  0.2393  1.0137 -0.5174
 9512TIP3   OH249950   3.431   5.781   4.777 -0.1280  0.4828  0.7512
 9512TIP3    H149951   3.475   5.726   4.842  1.0953  1.3525  0.6970
 9512TIP3    H249952   3.398   5.855   4.828 -1.1526  0.0527  0.7189
 9513TIP3   OH249953   4.513   5.245   2.313  0.1854  0.4947  0.4451
 9513TIP3    H149954   4.528   5.184   2.241 -2.5856 -1.8051  1.7198
 9513TIP3    H249955   4.441   5.300   2.284  1.0391  1.5369  0.2893
 9514TIP3   OH249956   5.915   5.724   5.287 -0.1460  0.4446 -0.0234
 9514TIP3    H149957   5.962   5.732   5.370 -0.6395  0.1107  0.2885
 9514TIP3    H249958   5.823   5.714   5.312 -0.0411 -1.9905 -0.5334
 9515TIP3   OH249959   0.628   2.121   6.252  0.4533 -0.1101 -0.1076
 9515TIP3    H149960   0.581   2.040   6.233 -0.2511  0.3089 -0.1716
 9515TIP3    H249961   0.565   2.174   6.301  1.2261  0.0345  0.7376
 9516TIP3   OH249962   5.049   2.363  12.881  0.0180 -0.0819  0.0486
 9516TIP3    H149963   5.011   2.387  12.965 -1.1302  1.5324 -0.9217
 9516TIP3    H249964   5.088   2.444  12.847  1.0209 -0.8562 -0.7072
 9517TIP3   OH249965   2.073   1.320  15.289  0.5172  0.4823  0.0738
 9517TIP3    H149966   2.085   1.268  15.369  1.7807 -0.0104 -0.4264
 9517TIP3    H249967   2.122   1.400  15.305 -0.8831  1.2526  0.5793
 9518TIP3   OH249968   2.812   0.333   5.498 -0.7260  0.3624  0.0832
 9518TIP3    H149969   2.730   0.324   5.545 -0.8342 -3.2352 -0.6656
 9518TIP3    H249970   2.790   0.382   5.419 -1.6859  1.2976  0.9190
 9519TIP3   OH249971   4.323   4.710   2.146  0.1428 -0.0659 -0.1506
 9519TIP3    H149972   4.318   4.790   2.092 -1.1751  1.7769  2.5784
 9519TIP3    H249973   4.409   4.714   2.187 -0.1262  0.2254  0.3867
 9520TIP3   OH249974   1.109   2.970   2.606 -1.4000 -0.3073 -0.4264
 9520TIP3    H149975   1.178   2.905   2.616  1.2153  2.6220  1.3877
 9520TIP3    H249976   1.118   3.002   2.516  0.7437  1.2237  0.2989
 9521TIP3   OH249977   3.317   4.765   4.016 -0.6878  0.1126 -0.1626
 9521TIP3    H149978   3.239   4.738   4.065 -0.5480  0.7594  0.4177
 9521TIP3    H249979   3.285   4.778   3.927 -1.2343  0.3043  0.0541
 9522TIP3   OH249980   4.689   4.429  16.641  0.1932  0.3122  0.1716
 9522TIP3    H149981   4.782   4.418  16.622  0.4942  1.0094  1.1907
 9522TIP3    H249982   4.676   4.389  16.727 -0.8619 -1.5278 -0.8053
 9523TIP3   OH249983   4.586   1.092   4.453 -0.1399 -0.0092  0.2934
 9523TIP3    H149984   4.563   1.142   4.375 -0.1756  0.2280  0.4575
 9523TIP3    H249985   4.625   1.011   4.419 -0.6506 -0.1403  0.0251
 9524TIP3   OH249986   6.115   3.397  14.179  0.1527  0.4769  0.5897
 9524TIP3    H149987   6.062   3.474  14.160  0.8744  0.5396 -1.3196
 9524TIP3    H249988   6.181   3.396  14.109 -0.6381 -2.5873 -0.1957
 9525TIP3   OH249989   0.032   5.707   5.557  0.0157  0.1270 -0.6236
 9525TIP3    H149990   0.104   5.674   5.503  0.3646  0.4639 -0.3601
 9525TIP3    H249991  -0.009   5.775   5.504 -0.3865 -0.3717 -0.9564
 9526TIP3   OH249992   5.807   4.254   5.165 -0.2697 -0.0753  0.1257
 9526TIP3    H149993   5.809   4.310   5.087  0.2331  0.5691  0.5949
 9526TIP3    H249994   5.714   4.250   5.189 -0.2417  1.1583  0.4988
 9527TIP3   OH249995   4.861   4.828  11.524  0.6050  0.1880  0.0840
 9527TIP3    H149996   4.861   4.741  11.483  0.4143 -0.3018  1.0844
 9527TIP3    H249997   4.949   4.862  11.510  0.4789  0.1111 -0.8947
 9528TIP3   OH249998   1.498   0.964   4.873 -0.1715 -0.0415 -0.1528
 9528TIP3    H149999   1.581   1.010   4.886  0.2279 -0.4414 -1.1939
 9528TIP3    H250000   1.496   0.945   4.779 -2.3397  1.6644 -0.4915
 9529TIP3   OH250001   2.956   3.323  12.542  0.1702  0.1527 -0.0634
 9529TIP3    H150002   2.977   3.230  12.531  1.8032  0.6428 -1.2495
 9529TIP3    H250003   2.928   3.330  12.633  0.8916 -1.3627  0.3006
 9530TIP3   OH250004   6.112   5.192  11.023 -0.0005 -0.4084  0.0321
 9530TIP3    H150005   6.192   5.151  11.054 -0.2874 -1.3446 -0.4333
 9530TIP3    H250006   6.096   5.151  10.937 -0.1333  0.8991 -0.5752
 9531TIP3   OH250007   4.057   3.638  16.899 -0.8079  0.3174  0.2621
 9531TIP3    H150008   3.987   3.587  16.939 -1.1803 -0.2418 -1.0851
 9531TIP3    H250009   4.087   3.585  16.825  0.0090  1.2391 -0.0884
 9532TIP3   OH250010   5.406   4.212   5.433 -0.0935  0.2819 -1.1222
 9532TIP3    H150011   5.468   4.141   5.418  0.1470  0.0779  0.6914
 9532TIP3    H250012   5.459   4.284   5.467 -1.1451 -0.7840  3.0228
 9533TIP3   OH250013   5.023   1.083  17.071  0.2227  1.0548 -0.3610
 9533TIP3    H150014   5.061   0.996  17.055 -1.5216 -0.1636  1.7731
 9533TIP3    H250015   4.943   1.085  17.020  0.5610  1.6392 -0.8668
 9534TIP3   OH250016   6.638   6.506  13.210 -0.3935 -0.5556  0.2235
 9534TIP3    H150017   6.579   6.559  13.157 -0.9654 -0.0973  1.2950
 9534TIP3    H250018   6.711   6.486  13.152 -1.9527 -1.7836 -1.3788
 9535TIP3   OH250019   2.183   1.617   4.426  0.0992 -0.1599  0.2101
 9535TIP3    H150020   2.180   1.565   4.507  0.1390 -0.2784  0.1350
 9535TIP3    H250021   2.098   1.602   4.385  0.2545 -0.4657 -0.0002
 9536TIP3   OH250022   5.203   3.003   3.403 -0.0095  0.0009  0.6838
 9536TIP3    H150023   5.247   3.023   3.321  0.2385  0.3683  0.9075
 9536TIP3    H250024   5.265   3.027   3.472  0.1521 -1.1829  0.9677
 9537TIP3   OH250025   4.277   3.202   4.279 -0.1561 -0.5018  0.6322
 9537TIP3    H150026   4.357   3.177   4.233  0.9955  1.8331  1.2555
 9537TIP3    H250027   4.306   3.223   4.368 -1.3365  0.9157  0.7106
 9538TIP3   OH250028   1.660   5.760   2.528  0.4941  0.4692  1.0810
 9538TIP3    H150029   1.631   5.730   2.614  1.7229  0.8514  1.6411
 9538TIP3    H250030   1.592   5.821   2.499 -1.1604 -1.5373  0.6840
 9539TIP3   OH250031   2.878   4.468   6.458 -0.1387 -0.4022  0.2009
 9539TIP3    H150032   2.898   4.549   6.506  0.7651 -0.0024 -0.8290
 9539TIP3    H250033   2.830   4.414   6.521 -1.9389  1.4679  0.4761
 9540TIP3   OH250034   5.300   4.608   2.123 -0.6097 -0.3598 -0.1829
 9540TIP3    H150035   5.233   4.557   2.169  0.1870 -0.2292  1.1735
 9540TIP3    H250036   5.301   4.692   2.168  0.4062 -0.3357 -0.2394
 9541TIP3   OH250037   4.675   0.457   0.105  0.0743  0.2087 -0.9108
 9541TIP3    H150038   4.588   0.430   0.131  0.2490  0.7295  0.2126
 9541TIP3    H250039   4.733   0.423   0.173  0.6783  0.3933 -1.3222
 9542TIP3   OH250040   1.558   3.801  15.595 -0.0886 -0.4529  0.3598
 9542TIP3    H150041   1.521   3.774  15.679 -1.7288  0.3103 -0.0791
 9542TIP3    H250042   1.557   3.721  15.542 -1.2001 -0.4515  0.3512
 9543TIP3   OH250043   0.393   4.767   3.981 -0.3626  0.0816 -0.2495
 9543TIP3    H150044   0.330   4.781   4.052  0.8966  0.0440  0.8931
 9543TIP3    H250045   0.345   4.789   3.901 -1.7616  0.2279  0.6264
 9544TIP3   OH250046   2.473   4.686  14.459 -0.1213  0.5499  0.2044
 9544TIP3    H150047   2.413   4.620  14.425  1.4059 -0.5519 -0.3968
 9544TIP3    H250048   2.429   4.770  14.441 -2.8136 -0.3094  2.4066
 9545TIP3   OH250049   0.393   3.025  12.868 -0.4173  0.9592 -0.5670
 9545TIP3    H150050   0.381   3.017  12.962 -0.0348  4.3223 -0.1684
 9545TIP3    H250051   0.304   3.033  12.833 -0.6162 -1.2407 -0.6459
 9546TIP3   OH250052   1.476   2.404   3.478  0.2511  0.0847 -0.3372
 9546TIP3    H150053   1.457   2.424   3.386 -0.5751 -0.7106 -0.3423
 9546TIP3    H250054   1.392   2.378   3.515  0.7060 -0.2204  0.4893
 9547TIP3   OH250055   0.274   6.715  14.424 -0.2470  0.0749  0.2479
 9547TIP3    H150056   0.259   6.792  14.368  1.6242 -0.8286 -1.5945
 9547TIP3    H250057   0.328   6.657  14.370  0.6855 -1.3381  2.6238
 9548TIP3   OH250058   5.513   4.865  14.670 -0.4949 -0.2518  0.0418
 9548TIP3    H150059   5.529   4.779  14.630  1.1022 -0.4481  1.0390
 9548TIP3    H250060   5.429   4.855  14.715 -1.1876 -0.7262 -1.3238
 9549TIP3   OH250061   3.168   0.264   0.540  0.1779  0.3184  0.4583
 9549TIP3    H150062   3.122   0.341   0.573  1.6864  1.2663  0.4240
 9549TIP3    H250063   3.141   0.256   0.449 -0.1648  0.6857  0.5258
 9550TIP3   OH250064   6.382   6.736   3.482 -0.2020 -0.0894  0.0183
 9550TIP3    H150065   6.335   6.819   3.483 -0.5919 -0.3059 -0.1094
 9550TIP3    H250066   6.464   6.754   3.528 -0.3391  0.3320  0.0999
 9551TIP3   OH250067   6.693   2.573   2.662 -0.7753 -0.0982 -0.1020
 9551TIP3    H150068   6.710   2.660   2.698 -0.6444  0.2348 -0.9516
 9551TIP3    H250069   6.720   2.512   2.732 -1.4194  0.5451  0.7140
 9552TIP3   OH250070   4.099   6.526   2.496 -0.3089  0.3187  0.1717
 9552TIP3    H150071   4.140   6.484   2.572 -0.9437 -0.9341 -0.1499
 9552TIP3    H250072   4.165   6.586   2.463 -0.1507  1.1233  1.9158
 9553TIP3   OH250073   5.867   3.204  16.591  0.2531  0.1748 -0.9010
 9553TIP3    H150074   5.944   3.255  16.614  0.9770 -0.6142 -1.5575
 9553TIP3    H250075   5.850   3.225  16.499 -1.0023  1.2300 -0.4345
 9554TIP3   OH250076   2.977   0.737   3.762  0.1393 -0.6313  0.4291
 9554TIP3    H150077   2.974   0.807   3.696 -1.2912 -1.2575 -0.1805
 9554TIP3    H250078   3.029   0.668   3.722  3.4148  0.9123  1.8752
 9555TIP3   OH250079   1.201   3.896   2.511 -0.5772 -0.2453 -0.5868
 9555TIP3    H150080   1.143   3.919   2.439  0.2207  2.7278 -0.3442
 9555TIP3    H250081   1.246   3.817   2.482 -1.5146 -0.0575 -2.6200
 9556TIP3   OH250082   1.365   0.944   1.670  0.2536 -0.2113 -0.2948
 9556TIP3    H150083   1.392   0.901   1.589 -0.8548  0.7007 -1.1666
 9556TIP3    H250084   1.285   0.991   1.646 -0.9210 -1.1500  1.6982
 9557TIP3   OH250085   2.655   5.473  13.430  0.0816 -0.9297 -0.1541
 9557TIP3    H150086   2.618   5.480  13.342 -1.0940 -1.4820  0.2850
 9557TIP3    H250087   2.727   5.537  13.431 -0.0006 -0.8067 -1.4527
 9558TIP3   OH250088   6.586   1.601  10.846 -0.3743 -0.2367  0.9976
 9558TIP3    H150089   6.507   1.641  10.883 -0.5416  0.5980 -0.2243
 9558TIP3    H250090   6.629   1.672  10.799  0.4131 -1.0109  0.5309
 9559TIP3   OH250091   2.530   6.614  13.124 -0.3599 -0.7741  0.2347
 9559TIP3    H150092   2.450   6.589  13.170 -0.3386  1.2798  1.4533
 9559TIP3    H250093   2.535   6.709  13.133  1.3433 -0.6787 -1.2699
 9560TIP3   OH250094   1.555   2.328  11.787  0.2582  0.8040  0.1928
 9560TIP3    H150095   1.519   2.274  11.858 -0.9889 -1.2763 -1.9335
 9560TIP3    H250096   1.523   2.416  11.805  0.5383  0.4382  2.5846
 9561TIP3   OH250097   1.588   2.258   3.066 -0.1609  0.2693  0.2382
 9561TIP3    H150098   1.520   2.318   3.098  0.6847  0.4334  1.7928
 9561TIP3    H250099   1.614   2.208   3.143 -0.6555 -1.9405 -0.9799
 9562TIP3   OH250100   3.386   6.090   3.467 -0.1663 -0.8665 -0.6510
 9562TIP3    H150101   3.362   6.183   3.463 -0.0396 -0.8012  0.0953
 9562TIP3    H250102   3.419   6.070   3.379  2.4304  0.5200 -0.0595
 9563TIP3   OH250103   0.014   1.152   4.850 -0.0777 -0.0370 -0.0973
 9563TIP3    H150104   0.039   1.090   4.781  0.0131 -0.7936  0.6076
 9563TIP3    H250105  -0.073   1.124   4.877  0.8894 -1.3335  1.8486
 9564TIP3   OH250106   1.376   6.185  17.184 -0.4194  0.1890  0.6228
 9564TIP3    H150107   1.442   6.118  17.163 -1.0354 -0.2664  0.1255
 9564TIP3    H250108   1.395   6.257  17.124  0.7257  0.7863  1.6772
 9565TIP3   OH250109   2.706   0.322   3.138  0.5655  0.3271 -0.6759
 9565TIP3    H150110   2.709   0.271   3.220 -1.9411  2.3639  0.7385
 9565TIP3    H250111   2.759   0.270   3.077  0.1198 -2.7299  1.3775
 9566TIP3   OH250112   5.253   5.052  13.328  0.1596 -0.4079 -0.4730
 9566TIP3    H150113   5.262   5.116  13.258  0.2611 -0.1256 -0.2042
 9566TIP3    H250114   5.343   5.038  13.359  0.2175 -1.1792 -0.9755
 9567TIP3   OH250115   5.638   2.120  16.883 -0.5191 -0.2247 -0.0035
 9567TIP3    H150116   5.679   2.055  16.939  1.1431  0.4084 -0.4688
 9567TIP3    H250117   5.647   2.085  16.795  2.0827  1.4789 -0.4568
 9568TIP3   OH250118   5.282   0.737   0.504  0.0850  0.8509 -0.0192
 9568TIP3    H150119   5.249   0.655   0.468  2.3978 -0.2849  0.3385
 9568TIP3    H250120   5.303   0.717   0.595  0.9679  1.7424 -0.0116
 9569TIP3   OH250121   3.957   5.878  11.586  0.2350  0.5963 -0.2077
 9569TIP3    H150122   3.965   5.899  11.493  1.3676  2.7881  0.3269
 9569TIP3    H250123   4.031   5.924  11.627 -1.5338  1.5460  2.0528
 9570TIP3   OH250124   1.814   6.755  15.210 -0.4702 -0.1861 -0.1942
 9570TIP3    H150125   1.840   6.789  15.124  0.3355  0.8562  0.4507
 9570TIP3    H250126   1.720   6.775  15.216 -0.1548  1.3877 -0.0997
 9571TIP3   OH250127   3.089   3.897  13.792  0.1176  0.4797 -0.1615
 9571TIP3    H150128   3.097   3.831  13.723 -0.7410  0.8413 -0.6127
 9571TIP3    H250129   3.058   3.848  13.868  0.4727  0.1857 -0.2040
 9572TIP3   OH250130   2.456   1.414   1.274 -0.0048  0.3894 -0.0305
 9572TIP3    H150131   2.411   1.463   1.206  0.2634 -0.7259 -1.0207
 9572TIP3    H250132   2.549   1.426   1.255  0.0589 -0.9126 -0.5862
 9573TIP3   OH250133   4.570   3.555   2.766 -0.4801  0.5999  0.8144
 9573TIP3    H150134   4.629   3.568   2.840 -0.9057 -0.0034  1.2666
 9573TIP3    H250135   4.520   3.476   2.788 -0.2335  0.0984 -0.3620
 9574TIP3   OH250136   5.673   1.347  14.875  0.1282 -0.5912 -0.3317
 9574TIP3    H150137   5.686   1.442  14.882 -1.2043 -0.4367  0.0875
 9574TIP3    H250138   5.761   1.311  14.886  0.8152  0.6388 -1.5890
 9575TIP3   OH250139   5.324   1.251   0.297 -0.1304  0.0296 -0.0191
 9575TIP3    H150140   5.294   1.162   0.319  1.5876 -0.4588  0.3900
 9575TIP3    H250141   5.253   1.287   0.243 -0.8205 -1.6099 -0.2439
 9576TIP3   OH250142   6.740   0.324  11.310 -0.1785 -0.5243  0.0347
 9576TIP3    H150143   6.648   0.307  11.294 -0.3050 -1.2382  1.4488
 9576TIP3    H250144   6.742   0.409  11.355 -0.2199 -0.9016  0.7578
 9577TIP3   OH250145   6.056   6.504  15.565 -0.0514 -0.5634 -0.0094
 9577TIP3    H150146   6.139   6.486  15.609  0.0446 -0.1229 -0.0107
 9577TIP3    H250147   6.026   6.418  15.535 -0.5648 -0.9942  1.7107
 9578TIP3   OH250148   3.250   2.089  14.544  0.2112  0.0468 -0.3275
 9578TIP3    H150149   3.210   2.032  14.479  0.9674 -1.5095  0.5237
 9578TIP3    H250150   3.321   2.133  14.497 -0.0719 -0.0936 -0.8834
 9579TIP3   OH250151   3.984   0.188  12.547  0.1112 -0.3536  0.0491
 9579TIP3    H150152   3.987   0.101  12.587  2.1290 -0.1685  0.3221
 9579TIP3    H250153   4.072   0.223  12.557 -0.7296  1.8524  0.1891
 9580TIP3   OH250154   2.282   2.363  10.667  0.3160  0.2187  0.4671
 9580TIP3    H150155   2.271   2.416  10.746  0.0873  0.4983  0.2488
 9580TIP3    H250156   2.336   2.417  10.610 -1.6931  1.1285 -0.6097
 9581TIP3   OH250157   1.699   3.716   0.710 -0.0602  0.2766  0.0989
 9581TIP3    H150158   1.696   3.812   0.707 -0.4511  0.2226 -1.6223
 9581TIP3    H250159   1.609   3.688   0.697  0.2771 -0.3402 -1.0583
 9582TIP3   OH250160   1.412   0.710  15.872  0.4215 -0.1108 -0.3738
 9582TIP3    H150161   1.396   0.621  15.838 -3.1251  0.4650 -0.3553
 9582TIP3    H250162   1.366   0.713  15.955  2.2759  1.1262  0.6421
 9583TIP3   OH250163   6.675   1.846   5.551  0.0451 -0.4197 -0.0016
 9583TIP3    H150164   6.731   1.923   5.560 -0.7170  0.1025  0.4215
 9583TIP3    H250165   6.724   1.786   5.496  0.6881  0.3471 -0.2698
 9584TIP3   OH250166   6.198   3.945  14.021  0.2196  0.4788 -0.0782
 9584TIP3    H150167   6.147   4.004  14.076  0.4704  0.1980  0.4640
 9584TIP3    H250168   6.263   3.908  14.081 -0.3407 -0.8202 -0.2463
 9585TIP3   OH250169   4.473   6.163  12.068 -0.0965  0.0166 -0.3035
 9585TIP3    H150170   4.495   6.256  12.079 -2.7485  0.7849 -1.0627
 9585TIP3    H250171   4.453   6.133  12.156  0.8793  0.1314 -0.0388
 9586TIP3   OH250172   6.246   5.200  12.513 -0.1094  0.2726 -1.2397
 9586TIP3    H150173   6.163   5.244  12.497  1.2161  3.3660  0.0288
 9586TIP3    H250174   6.260   5.209  12.607  0.8610 -1.7314 -1.1657
 9587TIP3   OH250175   6.228   5.624   6.082  0.7166 -0.6224  0.3826
 9587TIP3    H150176   6.150   5.583   6.045  2.3023 -2.0864 -1.4397
 9587TIP3    H250177   6.213   5.718   6.071 -1.1715 -0.8359  0.8972
 9588TIP3   OH250178   6.526   5.244   0.129  0.0553  0.7972 -0.8901
 9588TIP3    H150179   6.571   5.298   0.064  2.4692 -0.7543 -0.5753
 9588TIP3    H250180   6.510   5.304   0.202  1.5434  1.4243 -1.0557
 9589TIP3   OH250181   0.032   2.821   3.849  0.4421 -0.2947 -0.2436
 9589TIP3    H150182   0.061   2.788   3.764  1.4270 -1.1718  0.4309
 9589TIP3    H250183  -0.053   2.779   3.863  0.7324 -0.9235 -0.3476
 9590TIP3   OH250184   6.632   0.323   5.131 -0.3782  0.0733 -0.0832
 9590TIP3    H150185   6.710   0.356   5.086  0.2271 -1.1240  0.0425
 9590TIP3    H250186   6.667   0.278   5.208 -1.3225  1.0416  0.9176
 9591TIP3   OH250187   0.708   6.769   2.313  0.1609  0.8378  0.3800
 9591TIP3    H150188   0.784   6.804   2.267  0.3926 -0.7829 -0.5225
 9591TIP3    H250189   0.734   6.765   2.405  1.0734  0.5409  0.1079
 9592TIP3   OH250190   2.114   0.539  16.346 -0.1269  0.3073 -0.1538
 9592TIP3    H150191   2.133   0.450  16.376 -3.6167 -0.1047  1.0747
 9592TIP3    H250192   2.102   0.530  16.251  1.6473 -0.0804 -0.3738
 9593TIP3   OH250193   2.062   1.459   0.139  0.0171  0.0568 -0.4112
 9593TIP3    H150194   2.046   1.422   0.226 -0.9194  0.2670 -0.4883
 9593TIP3    H250195   2.135   1.408   0.104  1.1225  0.7059  0.9290
 9594TIP3   OH250196   0.521   3.414  10.879  0.0728  0.2949  0.1134
 9594TIP3    H150197   0.487   3.332  10.916  0.3505 -0.3137 -0.9240
 9594TIP3    H250198   0.448   3.448  10.826  0.9041 -0.8070 -1.7949
 9595TIP3   OH250199   6.642   6.710   4.205 -0.1915  0.1979 -0.2414
 9595TIP3    H150200   6.562   6.755   4.179 -0.0697  1.1847  1.0522
 9595TIP3    H250201   6.677   6.675   4.123 -0.6882  1.8168 -1.1723
 9596TIP3   OH250202   0.664   1.565   2.311  0.3779 -0.7286  0.0912
 9596TIP3    H150203   0.655   1.479   2.269  0.4107 -0.2409 -0.9230
 9596TIP3    H250204   0.740   1.605   2.269  0.1067 -0.0325  0.2530
 9597TIP3   OH250205   5.496   3.183   4.960  0.2569  0.4190 -0.0205
 9597TIP3    H150206   5.421   3.225   5.003  0.2912  0.1880  0.2640
 9597TIP3    H250207   5.521   3.112   5.019  0.7344  0.5254 -0.0892
 9598TIP3   OH250208   2.136   0.548   4.227 -0.2512  0.0594 -0.5612
 9598TIP3    H150209   2.193   0.612   4.269 -0.4989 -0.6386  0.8676
 9598TIP3    H250210   2.169   0.463   4.256 -0.1838 -0.4696 -2.0963
 9599TIP3   OH250211   5.297   0.309   2.472  0.2709  0.3134  0.0263
 9599TIP3    H150212   5.256   0.364   2.406 -1.0965 -1.4259 -0.5948
 9599TIP3    H250213   5.243   0.320   2.550  1.8544  2.3254  0.9037
 9600TIP3   OH250214   5.808   4.444  10.404  0.4111  1.0916  0.0385
 9600TIP3    H150215   5.767   4.387  10.470  0.8961  1.6856  0.8652
 9600TIP3    H250216   5.758   4.428  10.324  0.1067  0.0080  0.4289
 9601TIP3   OH250217   2.682   0.001   0.111 -0.1506 -0.0525 -0.1841
 9601TIP3    H150218   2.620   0.044   0.052  0.5017  2.1621  0.7021
 9601TIP3    H250219   2.675   0.051   0.192  2.3058 -0.1946  0.1336
 9602TIP3   OH250220   6.537   3.852   3.911 -0.7486  0.1837  0.1667
 9602TIP3    H150221   6.552   3.816   3.998 -0.6433 -0.1441  0.0131
 9602TIP3    H250222   6.607   3.915   3.898  0.0050 -0.7134 -0.2030
 9603TIP3   OH250223   0.187   2.725   1.794  0.3393 -0.2764 -0.4765
 9603TIP3    H150224   0.112   2.783   1.780  1.1500  0.8558 -0.2409
 9603TIP3    H250225   0.168   2.681   1.877  0.3620  0.6809  0.0383
 9604TIP3   OH250226   3.037   5.412  14.636  0.0298  0.3227 -0.5463
 9604TIP3    H150227   3.003   5.411  14.726  0.7568  2.5473 -0.2167
 9604TIP3    H250228   2.963   5.438  14.583 -0.3228 -0.7075 -0.5832
 9605TIP3   OH250229   3.465   0.466  14.590 -0.0661  0.1820 -0.4926
 9605TIP3    H150230   3.545   0.471  14.641 -0.0934  3.2814 -0.6932
 9605TIP3    H250231   3.407   0.409  14.641  1.5003 -0.4313  0.6319
 9606TIP3   OH250232   2.108   6.188  15.778 -0.6543 -0.5673  0.0473
 9606TIP3    H150233   2.120   6.127  15.706 -1.4234 -0.2123 -0.3799
 9606TIP3    H250234   2.015   6.212  15.774 -0.5359  0.0025  0.7098
 9607TIP3   OH250235   3.478   5.004  15.687  0.3087 -0.6122 -0.0191
 9607TIP3    H150236   3.489   5.017  15.593 -1.2354 -0.2773 -0.1706
 9607TIP3    H250237   3.388   5.032  15.705 -0.4138 -3.3679  1.0437
 9608TIP3   OH250238   3.189   1.980  11.966 -0.0603 -0.8655  1.0318
 9608TIP3    H150239   3.227   2.063  11.994 -0.0996  0.0802 -1.5214
 9608TIP3    H250240   3.153   1.999  11.879  1.0152 -3.8757 -0.1433
 9609TIP3   OH250241   6.570   5.120  12.895  0.5322  0.3908  0.1182
 9609TIP3    H150242   6.591   5.207  12.861  1.0540  0.8117  1.4527
 9609TIP3    H250243   6.530   5.074  12.822  1.8765  1.1586 -1.1302
 9610TIP3   OH250244   3.278   3.102  13.992 -0.4067  0.4101 -0.1534
 9610TIP3    H150245   3.369   3.119  13.968  0.0010  0.1562  1.1509
 9610TIP3    H250246   3.262   3.159  14.068 -1.5873  1.0546 -0.8689
 9611TIP3   OH250247   1.318   4.122  11.977  0.2207 -0.5650 -0.1316
 9611TIP3    H150248   1.255   4.181  12.019  0.7310  1.0619 -1.5907
 9611TIP3    H250249   1.298   4.036  12.013 -0.9820  0.3873  1.5461
 9612TIP3   OH250250   1.126   0.425  13.962  0.0229  0.3267  0.7580
 9612TIP3    H150251   1.172   0.434  14.045  0.1842 -0.3072  0.7391
 9612TIP3    H250252   1.076   0.506  13.953 -0.0323  0.3742  1.4960
 9613TIP3   OH250253   5.745   5.755   4.374  0.6559  0.1920 -0.2456
 9613TIP3    H150254   5.763   5.735   4.466 -0.1356  2.3232  0.3992
 9613TIP3    H250255   5.827   5.791   4.341  0.7523  0.0092 -0.2091
 9614TIP3   OH250256   6.734   3.099   1.428 -0.0992  0.3105  0.6205
 9614TIP3    H150257   6.704   3.179   1.472 -1.0399  0.8940 -1.0193
 9614TIP3    H250258   6.725   3.030   1.494 -0.0082  1.4102  1.8109
 9615TIP3   OH250259   3.211   5.774   4.549 -0.1878 -0.9751  0.6050
 9615TIP3    H150260   3.123   5.738   4.542 -0.6617 -0.1932  2.3518
 9615TIP3    H250261   3.237   5.756   4.639  1.9281 -2.2847 -0.2311
 9616TIP3   OH250262   5.251   5.998   2.031  0.3192  0.8358 -0.4628
 9616TIP3    H150263   5.269   6.051   2.108 -1.8914  1.8543 -0.5988
 9616TIP3    H250264   5.226   6.061   1.964 -1.1443 -0.2679 -0.9867
 9617TIP3   OH250265   3.594   6.324   2.642  0.5702  0.0004 -0.5242
 9617TIP3    H150266   3.538   6.314   2.719  0.4046  3.4876 -0.1025
 9617TIP3    H250267   3.586   6.241   2.595 -2.1080 -0.9021  1.4078
 9618TIP3   OH250268   5.355   1.940  15.040  0.4275 -0.5332  0.2035
 9618TIP3    H150269   5.283   1.963  14.982  1.5606  1.4930 -0.4317
 9618TIP3    H250270   5.312   1.913  15.122 -1.0537  1.3365  0.0751
 9619TIP3   OH250271   5.877   1.945   0.205  0.2137 -0.2172  0.2863
 9619TIP3    H150272   5.940   2.016   0.218  0.4725 -0.3767 -0.1127
 9619TIP3    H250273   5.912   1.894   0.133 -0.8752  0.2559 -0.5975
 9620TIP3   OH250274   2.013   5.119  15.124  0.2348  0.1634 -0.3702
 9620TIP3    H150275   1.920   5.130  15.144 -0.1472 -1.0511 -1.4134
 9620TIP3    H250276   2.053   5.201  15.154 -0.9631  0.2016  1.2520
 9621TIP3   OH250277   1.274   5.022   2.824  0.0278  0.0961  0.2401
 9621TIP3    H150278   1.228   4.990   2.903 -1.6534 -1.6177 -1.3771
 9621TIP3    H250279   1.358   4.976   2.826 -0.5792 -1.0271  0.3039
 9622TIP3   OH250280   5.184   1.586  13.922  0.4955  0.4990 -0.0205
 9622TIP3    H150281   5.158   1.563  14.011  0.5983  1.5596  0.2892
 9622TIP3    H250282   5.235   1.667  13.932 -1.4288  1.9110 -1.2450
 9623TIP3   OH250283   0.455   0.273   1.348 -0.0769 -0.1960  0.2392
 9623TIP3    H150284   0.481   0.364   1.358  0.2460 -0.2867  0.2439
 9623TIP3    H250285   0.478   0.232   1.431  0.7973 -0.5179 -0.1498
 9624TIP3   OH250286   0.658   5.577   3.957 -0.0252 -0.1492 -0.0213
 9624TIP3    H150287   0.745   5.617   3.963  0.3176 -0.8757 -0.0890
 9624TIP3    H250288   0.598   5.647   3.982  0.5539  0.4634 -0.3331
 9625TIP3   OH250289   5.431   6.378  12.441  0.4040 -0.0244 -0.4963
 9625TIP3    H150290   5.521   6.372  12.411  0.4359 -0.4481 -0.3280
 9625TIP3    H250291   5.438   6.398  12.534  0.3297 -0.4479 -0.3999
 9626TIP3   OH250292   5.235   3.989   3.347 -0.3651 -0.5884 -0.1327
 9626TIP3    H150293   5.184   3.971   3.426 -2.0270 -0.2955 -1.1306
 9626TIP3    H250294   5.323   3.958   3.369 -0.5938  0.2225  2.1202
 9627TIP3   OH250295   1.865   0.659  11.245 -0.2406 -0.5072 -0.5203
 9627TIP3    H150296   1.920   0.707  11.307 -0.0776  0.8069 -1.6261
 9627TIP3    H250297   1.782   0.647  11.290 -0.1423  0.4732 -0.0623
 9628TIP3   OH250298   6.496   4.771   2.996 -0.0942 -0.1841  0.6939
 9628TIP3    H150299   6.464   4.732   2.915 -0.1256  0.1861  0.5314
 9628TIP3    H250300   6.565   4.711   3.025  0.3645  0.0334  0.0540
 9629TIP3   OH250301   3.045   5.620   4.884 -0.4007  0.1072  0.1189
 9629TIP3    H150302   3.099   5.590   4.957  0.1952  0.6773 -0.0822
 9629TIP3    H250303   3.048   5.716   4.890  1.1471  0.2048 -1.7148
 9630TIP3   OH250304   1.456   5.281  15.453  0.5471  0.5495 -0.1141
 9630TIP3    H150305   1.405   5.288  15.372 -2.8799 -1.4768  1.7263
 9630TIP3    H250306   1.547   5.274  15.424 -0.7235 -2.2148 -3.9240
 9631TIP3   OH250307   4.085   0.516   3.917  0.1730  0.8650  0.1874
 9631TIP3    H150308   4.016   0.573   3.884 -1.3328 -0.6341  0.6760
 9631TIP3    H250309   4.068   0.509   4.011  0.4420 -0.2230  0.1685
 9632TIP3   OH250310   3.336   0.303  12.171  0.4729  0.3766  0.5580
 9632TIP3    H150311   3.289   0.339  12.246 -0.6492 -1.2907  0.6891
 9632TIP3    H250312   3.407   0.251  12.208 -0.7052 -1.2939  0.5250
 9633TIP3   OH250313   5.914   0.731   0.533 -0.1907  0.2759 -0.3223
 9633TIP3    H150314   5.953   0.668   0.472 -1.6651  0.1121 -1.1263
 9633TIP3    H250315   5.846   0.774   0.482 -2.2566 -0.6946  1.5543
 9634TIP3   OH250316   4.976   1.390   2.428 -0.0173 -0.1001  0.5682
 9634TIP3    H150317   5.020   1.324   2.482  0.9121  0.4029  0.4313
 9634TIP3    H250318   4.916   1.434   2.488  0.3883 -0.1245  0.9916
 9635TIP3   OH250319   4.910   0.106  16.478 -0.1090 -0.7148 -0.0535
 9635TIP3    H150320   4.937   0.190  16.442 -2.7393 -0.2658 -1.0382
 9635TIP3    H250321   4.817   0.116  16.499  0.4159 -2.1809  3.3518
 9636TIP3   OH250322   0.717   5.963  16.814  0.3093 -0.4506 -0.0541
 9636TIP3    H150323   0.780   5.936  16.880  0.1162 -1.3951 -0.2559
 9636TIP3    H250324   0.724   6.058  16.812  0.8182 -0.4649  0.8239
 9637TIP3   OH250325   2.794   6.419   0.071 -0.6260 -0.2935 -0.0269
 9637TIP3    H150326   2.793   6.436   0.165  0.6723  4.3255 -0.7259
 9637TIP3    H250327   2.702   6.400   0.049 -1.4058  1.2442  1.7803
 9638TIP3   OH250328   6.496   2.166  11.922  0.5235 -0.4287  0.3640
 9638TIP3    H150329   6.592   2.166  11.923  0.5254 -0.6779  2.4634
 9638TIP3    H250330   6.473   2.239  11.866  1.9481 -0.2202  0.0283
 9639TIP3   OH250331   6.487   2.534  11.175  0.0796 -0.0639  0.1772
 9639TIP3    H150332   6.419   2.474  11.143  0.9302 -0.6769 -0.5048
 9639TIP3    H250333   6.544   2.548  11.100 -0.4367  2.1077  0.1304
 9640TIP3   OH250334   6.632   3.803   1.109  0.0617 -0.7146  0.0822
 9640TIP3    H150335   6.718   3.813   1.148 -0.7365  0.9723  1.5184
 9640TIP3    H250336   6.588   3.737   1.164  0.3699 -1.4651 -0.5599
 9641TIP3   OH250337   4.094   5.054   0.157  0.7575 -0.0310  0.2907
 9641TIP3    H150338   4.158   5.033   0.089  0.5272 -1.5172  0.5100
 9641TIP3    H250339   4.117   5.142   0.186  2.6340 -0.4872  0.2580
 9642TIP3   OH250340   2.177   1.588   1.790  0.3954 -0.1126 -0.0586
 9642TIP3    H150341   2.166   1.497   1.762  2.2270 -0.6457  0.8544
 9642TIP3    H250342   2.187   1.583   1.885 -0.5331  1.1624  0.1193
 9643TIP3   OH250343   5.416   0.223   5.514  0.0533  0.1955  0.0284
 9643TIP3    H150344   5.478   0.159   5.479  0.2691  0.3357  0.1567
 9643TIP3    H250345   5.388   0.186   5.597 -1.7277 -0.9515 -1.0523
 9644TIP3   OH250346   2.686   5.044   4.445  0.2472  0.1040  0.2393
 9644TIP3    H150347   2.749   5.010   4.508 -1.3776  2.1086  3.0282
 9644TIP3    H250348   2.606   4.993   4.461  0.1756 -0.1884 -1.0184
 9645TIP3   OH250349   3.544   1.436  12.521  0.1325  0.0995 -0.3142
 9645TIP3    H150350   3.500   1.490  12.456  0.1759  1.5644  0.8472
 9645TIP3    H250351   3.636   1.462  12.516  0.1974 -0.0501  0.0520
 9646TIP3   OH250352   2.388   1.082  17.142 -0.4136  0.0869  0.7358
 9646TIP3    H150353   2.431   1.157  17.183 -0.4352 -0.2642  1.4113
 9646TIP3    H250354   2.398   1.011  17.206  0.7661 -0.8465 -0.4407
 9647TIP3   OH250355   0.468   1.393  16.382  0.2347  0.4506 -0.0721
 9647TIP3    H150356   0.562   1.383  16.397  0.0802 -0.8738  0.1292
 9647TIP3    H250357   0.429   1.318  16.427 -0.9217  1.0002 -0.1404
 9648TIP3   OH250358   1.164   1.659  16.137  0.0279 -0.3395  0.6494
 9648TIP3    H150359   1.144   1.572  16.103 -2.3499  0.2347  0.5476
 9648TIP3    H250360   1.194   1.643  16.227  0.9239 -1.3582  0.1818
 9649TIP3   OH250361   5.400   3.429  12.788  0.0473  0.1095  0.3158
 9649TIP3    H150362   5.448   3.352  12.817 -0.2112 -0.2011 -0.0802
 9649TIP3    H250363   5.313   3.397  12.766  0.5223  0.1245 -1.7646
 9650TIP3   OH250364   1.998   2.461   2.661  0.3043 -0.2834  0.2586
 9650TIP3    H150365   1.999   2.521   2.736  1.1879 -1.5039  1.2502
 9650TIP3    H250366   2.001   2.374   2.700  1.0220 -0.9301 -1.1998
 9651TIP3   OH250367   1.985   0.152  11.139  0.1620  0.6145  0.0125
 9651TIP3    H150368   1.932   0.083  11.179  2.6312 -0.8132  0.9544
 9651TIP3    H250369   1.957   0.233  11.183 -1.1842 -0.1254  0.5312
 9652TIP3   OH250370   6.047   3.527   5.088 -0.2265  0.1448  0.6465
 9652TIP3    H150371   6.020   3.590   5.022 -0.6962  0.9237  1.5735
 9652TIP3    H250372   6.142   3.532   5.089 -0.0750 -1.3863 -1.4306
 9653TIP3   OH250373   1.057   5.946   1.915  0.5606  0.2882 -0.0221
 9653TIP3    H150374   0.968   5.956   1.949 -1.8420 -0.0266 -5.5883
 9653TIP3    H250375   1.068   5.851   1.905  0.6287  0.4300 -1.3760
 9654TIP3   OH250376   5.127   5.581  11.364  0.2738  0.0614  0.4004
 9654TIP3    H150377   5.070   5.504  11.358 -1.1366  1.0237  1.0648
 9654TIP3    H250378   5.097   5.627  11.443  0.5383  1.7353 -0.4450
 9655TIP3   OH250379   4.553   5.639   6.576 -0.5364  0.3240  0.1523
 9655TIP3    H150380   4.568   5.726   6.538 -0.7349 -0.0769 -0.8331
 9655TIP3    H250381   4.582   5.578   6.509  1.6456 -0.3731  1.6875
 9656TIP3   OH250382   6.122   0.752  16.169 -0.1239 -0.5056  0.0338
 9656TIP3    H150383   6.143   0.692  16.098 -1.6451  0.0759 -0.9298
 9656TIP3    H250384   6.029   0.738  16.185  0.0203 -0.0397  1.3622
 9657TIP3   OH250385   5.317   2.413  13.262 -0.5648 -0.5001  0.8614
 9657TIP3    H150386   5.276   2.458  13.337  0.2460  0.8017  0.5348
 9657TIP3    H250387   5.359   2.483  13.213  1.3543 -1.7268  0.7380
 9658TIP3   OH250388   3.808   3.820  10.874 -0.5078  0.3039  0.5195
 9658TIP3    H150389   3.855   3.896  10.839 -0.0134  0.1537  0.8473
 9658TIP3    H250390   3.822   3.751  10.809  0.1822  0.1037  0.8734
 9659TIP3   OH250391   2.208   3.233   3.558  0.0329 -0.2906 -0.1158
 9659TIP3    H150392   2.189   3.163   3.620 -0.2301 -0.2086 -0.1053
 9659TIP3    H250393   2.304   3.234   3.552  0.1086  0.3884  1.0653
 9660TIP3   OH250394   6.780   1.290   1.415 -0.1279 -0.0656  0.7849
 9660TIP3    H150395   6.738   1.365   1.373  0.7551 -0.1314 -0.2322
 9660TIP3    H250396   6.712   1.222   1.415  0.4415 -0.6880 -2.2812
 9661TIP3   OH250397   5.506   6.179   3.995  0.1987  0.1776  0.2833
 9661TIP3    H150398   5.539   6.206   3.909  1.9827 -2.3665  0.0827
 9661TIP3    H250399   5.547   6.239   4.057 -0.5894  1.6294 -0.6031
 9662TIP3   OH250400   1.094   6.140  12.743  0.1655 -0.4781  0.1327
 9662TIP3    H150401   1.013   6.154  12.694  0.2470 -0.2017  0.0743
 9662TIP3    H250402   1.102   6.218  12.798  1.9431  0.9680 -2.0416
 9663TIP3   OH250403   4.345   1.137   4.180  0.4347  0.6278  0.6979
 9663TIP3    H150404   4.261   1.110   4.142  1.3615 -1.5314  0.1448
 9663TIP3    H250405   4.406   1.137   4.107  1.5727 -0.6992  1.6229
 9664TIP3   OH250406   1.766   3.208   0.916 -0.6205  0.6506  0.1123
 9664TIP3    H150407   1.837   3.273   0.919  0.5663 -0.6184 -0.1994
 9664TIP3    H250408   1.771   3.172   0.828  0.2023 -1.4705  0.9983
 9665TIP3   OH250409   0.860   6.298   2.274  0.0375 -0.3775 -0.1776
 9665TIP3    H150410   0.942   6.330   2.311  1.2225 -0.2079 -2.8152
 9665TIP3    H250411   0.887   6.239   2.204 -2.1018 -0.8273 -0.6605
 9666TIP3   OH250412   3.114   4.376  10.483 -0.1063  0.0566 -0.0144
 9666TIP3    H150413   3.148   4.298  10.439  1.5671 -0.5926  2.3042
 9666TIP3    H250414   3.033   4.347  10.524  0.0337 -0.2098  0.0753
 9667TIP3   OH250415   5.856   2.313  12.713  0.1525  0.0616  0.3017
 9667TIP3    H150416   5.934   2.369  12.703 -0.6631  1.0978 -0.3534
 9667TIP3    H250417   5.872   2.266  12.794  2.2111 -0.9392 -0.6284
 9668TIP3   OH250418   3.815   1.119  17.077  0.0423  0.0751  0.4038
 9668TIP3    H150419   3.798   1.055  17.146  1.4343 -0.3484  0.3810
 9668TIP3    H250420   3.771   1.083  17.000 -0.1016 -0.3123  0.6599
 9669TIP3   OH250421   0.361   5.107   2.966  0.2946 -0.5956  0.2843
 9669TIP3    H150422   0.387   5.199   2.970 -2.4268  0.2831 -0.9988
 9669TIP3    H250423   0.317   5.091   3.050 -2.6631  0.4493 -0.9789
 9670TIP3   OH250424   1.863   1.967   2.913  0.1501 -0.0077 -0.3154
 9670TIP3    H150425   1.943   1.918   2.933  1.6294  1.9332 -1.2185
 9670TIP3    H250426   1.802   1.902   2.879  1.2250 -1.5951  0.7514
 9671TIP3   OH250427   5.579   1.510  10.533 -0.6086 -0.7859 -0.0930
 9671TIP3    H150428   5.584   1.563  10.612 -1.8067  0.4781 -0.8424
 9671TIP3    H250429   5.543   1.426  10.562 -0.2379 -0.6282  0.8308
 9672TIP3   OH250430   4.070   3.888   3.671 -0.0919  0.1281 -0.6094
 9672TIP3    H150431   3.990   3.882   3.620  0.5729 -0.3086 -1.6272
 9672TIP3    H250432   4.071   3.809   3.725  0.9083 -1.1542 -2.4764
 9673TIP3   OH250433   3.622   3.957   4.449 -0.3884  0.5674 -0.0798
 9673TIP3    H150434   3.579   4.041   4.464  1.0536  1.7009 -2.1324
 9673TIP3    H250435   3.715   3.975   4.464 -0.1654 -0.9001  0.3926
 9674TIP3   OH250436   1.332   5.829   3.722  0.0088 -0.2207 -0.0037
 9674TIP3    H150437   1.393   5.873   3.782  1.7380 -2.1190 -0.3004
 9674TIP3    H250438   1.383   5.817   3.642 -1.4069 -0.1281 -0.9294
 9675TIP3   OH250439   3.734   3.721  15.322 -0.1870  0.0198 -0.3875
 9675TIP3    H150440   3.810   3.664  15.335 -0.9926 -0.3671  3.2969
 9675TIP3    H250441   3.760   3.804  15.362 -0.8389  0.6369 -1.2380
 9676TIP3   OH250442   4.622   3.481  14.947 -0.3198 -0.3938 -0.2944
 9676TIP3    H150443   4.556   3.532  14.994  1.4627  0.5186  1.3267
 9676TIP3    H250444   4.697   3.480  15.006  2.2535  1.3006 -3.3861
 9677TIP3   OH250445   3.125   5.634   3.964  0.1108  0.4937 -0.5473
 9677TIP3    H150446   3.122   5.553   4.015 -0.3270  0.2408 -0.9720
 9677TIP3    H250447   3.045   5.680   3.988 -0.0451  0.4210 -0.9298
 9678TIP3   OH250448   3.616   3.641   0.764  0.8006 -0.4618 -0.6835
 9678TIP3    H150449   3.707   3.637   0.792  1.4550 -0.2442 -2.7065
 9678TIP3    H250450   3.619   3.681   0.677 -1.1573 -1.0046 -1.0362
 9679TIP3   OH250451   2.757   2.890  14.645 -0.3833  0.3499 -0.5503
 9679TIP3    H150452   2.801   2.869  14.563 -1.0850 -1.3446 -0.5092
 9679TIP3    H250453   2.766   2.811  14.699 -0.5033  1.2038  0.7583
 9680TIP3   OH250454   3.684   6.415   2.032 -0.3053  0.2147  0.0327
 9680TIP3    H150455   3.699   6.390   2.124  0.8076 -0.1297 -0.2425
 9680TIP3    H250456   3.643   6.501   2.037 -3.3568 -1.2061  0.9755
 9681TIP3   OH250457   4.023   0.106  13.297 -0.1733  0.2435  0.1583
 9681TIP3    H150458   4.107   0.150  13.283 -0.1732 -0.5787 -2.6056
 9681TIP3    H250459   4.037   0.053  13.376  1.8464  0.2569 -0.1706
 9682TIP3   OH250460   0.290   0.158  12.671  0.6903 -0.4317 -0.5438
 9682TIP3    H150461   0.236   0.136  12.747  1.2917  0.9738  0.3179
 9682TIP3    H250462   0.365   0.100  12.677 -0.2821 -1.7684 -1.2364
 9683TIP3   OH250463   1.917   3.071   2.814  0.3854  0.8251 -0.4407
 9683TIP3    H150464   1.903   3.056   2.908 -0.5938 -1.4147 -0.9192
 9683TIP3    H250465   1.953   2.989   2.782  2.2878  2.1384 -1.7434
 9684TIP3   OH250466   1.164   2.544   5.073 -0.0600  0.0177 -0.3489
 9684TIP3    H150467   1.201   2.632   5.076 -2.9578  1.2425  1.1541
 9684TIP3    H250468   1.097   2.548   5.005 -0.0107 -1.1296 -0.4823
 9685TIP3   OH250469   1.577   0.540  13.455 -0.1089  0.0066  0.6295
 9685TIP3    H150470   1.656   0.487  13.442 -1.1709 -1.6187  0.6289
 9685TIP3    H250471   1.599   0.599  13.527  1.3493  0.0901  0.1386
 9686TIP3   OH250472   1.398   0.761  15.199  0.1975  0.0971  0.3861
 9686TIP3    H150473   1.319   0.733  15.154  0.2519  0.1014  0.2875
 9686TIP3    H250474   1.368   0.790  15.285  0.0087  0.6732  0.1320
 9687TIP3   OH250475   3.310   6.648   0.375 -0.4540  0.0215  0.3007
 9687TIP3    H150476   3.234   6.694   0.340  0.1487 -0.3676 -1.5892
 9687TIP3    H250477   3.330   6.694   0.456 -0.4380  2.5427 -1.0681
 9688TIP3   OH250478   3.337   0.373  13.632  0.2268 -0.4425  0.4738
 9688TIP3    H150479   3.252   0.329  13.635 -0.5014  0.8195 -0.8928
 9688TIP3    H250480   3.394   0.320  13.688 -1.2537 -1.7403  0.7745
 9689TIP3   OH250481   5.710   5.068  16.467  0.0395  0.4100 -0.4454
 9689TIP3    H150482   5.659   5.118  16.530 -0.3916  0.9263 -1.1913
 9689TIP3    H250483   5.799   5.071  16.500  0.3830  3.3362 -1.4776
 9690TIP3   OH250484   5.939   4.939  11.971  0.8472 -0.1244 -0.0051
 9690TIP3    H150485   6.007   4.989  11.926 -0.0066  1.5988  0.5808
 9690TIP3    H250486   5.947   4.965  12.063  0.2695 -0.9391  0.2789
 9691TIP3   OH250487   3.834   6.504  17.132 -0.1941 -0.4149 -0.1191
 9691TIP3    H150488   3.744   6.522  17.103  0.3566  1.6273 -0.6258
 9691TIP3    H250489   3.834   6.410  17.152 -2.6402 -0.2993  0.6178
 9692TIP3   OH250490   5.938   3.454  11.705 -0.4924  0.1643  0.5299
 9692TIP3    H150491   5.982   3.520  11.758 -1.1668  1.1814 -0.1551
 9692TIP3    H250492   5.890   3.400  11.768  0.8581 -0.2975  1.1869
 9693TIP3   OH250493   2.409   3.454  11.383 -0.2269 -0.1986 -0.1336
 9693TIP3    H150494   2.343   3.498  11.438  1.0686  1.3579  0.2080
 9693TIP3    H250495   2.433   3.520  11.318 -0.9577 -1.6735 -1.9411
 9694TIP3   OH250496   3.860   0.470  13.804 -0.0607 -0.0734  0.2465
 9694TIP3    H150497   3.776   0.491  13.844  0.4556  0.5469  1.0306
 9694TIP3    H250498   3.867   0.375  13.809 -0.4231 -0.0712  0.7821
 9695TIP3   OH250499   6.072   4.232   2.449  0.4809  0.5787  0.1653
 9695TIP3    H150500   5.998   4.289   2.469  0.9782  1.3938 -0.2890
 9695TIP3    H250501   6.086   4.181   2.529  0.0929  1.1588  0.6052
 9696TIP3   OH250502   0.002   3.008  13.107  0.2465  0.1222  0.4787
 9696TIP3    H150503   0.036   3.096  13.120  1.9493 -0.2504 -1.1759
 9696TIP3    H250504  -0.042   3.011  13.022  3.5316 -1.4574 -1.3993
 9697TIP3   OH250505   4.914   2.850  13.252 -0.4646 -0.4342  0.2201
 9697TIP3    H150506   4.981   2.907  13.290 -0.7018  0.7999 -1.1361
 9697TIP3    H250507   4.964   2.782  13.206 -0.1345  0.2847 -0.5024
 9698TIP3   OH250508   1.162   6.581  10.242 -0.5705 -0.2761  0.1142
 9698TIP3    H150509   1.198   6.522  10.308 -1.5985  0.2115  1.1342
 9698TIP3    H250510   1.188   6.668  10.271 -0.2189 -0.1231 -0.6454
 9699TIP3   OH250511   5.834   0.057  16.921 -0.0153 -0.0720  0.1525
 9699TIP3    H150512   5.889   0.110  16.864  0.2884  0.0527  0.5625
 9699TIP3    H250513   5.751   0.050  16.874 -0.4089  1.6353  0.5706
 9700TIP3   OH250514   1.664   0.349   0.438 -0.0549 -0.0589  0.2070
 9700TIP3    H150515   1.624   0.385   0.359  1.9198 -0.8137 -1.1530
 9700TIP3    H250516   1.647   0.415   0.505 -0.7974  1.0949 -1.0830
 9701TIP3   OH250517   4.794   3.295  13.259  0.2183 -0.6668  0.0364
 9701TIP3    H150518   4.843   3.305  13.177  2.2032 -0.2622  1.2244
 9701TIP3    H250519   4.743   3.376  13.266  2.8000  0.9613  0.9306
 9702TIP3   OH250520   5.706   1.712  13.637 -0.3229 -0.4815 -0.4128
 9702TIP3    H150521   5.699   1.726  13.542  0.9127 -1.0210 -0.5868
 9702TIP3    H250522   5.745   1.626  13.646 -2.6411 -1.4711  0.6329
 9703TIP3   OH250523   2.506   2.660  14.793 -1.0462 -0.2442 -0.1949
 9703TIP3    H150524   2.486   2.729  14.856 -0.0223  0.1691 -0.3232
 9703TIP3    H250525   2.600   2.645  14.802 -1.0110 -0.6467 -1.1556
 9704TIP3   OH250526   3.415   6.396   2.143  0.4089  0.6540  0.3385
 9704TIP3    H150527   3.440   6.335   2.074  0.2152  0.9481  0.0096
 9704TIP3    H250528   3.493   6.402   2.199  0.1777 -0.4719  0.7951
 9705TIP3   OH250529   0.189   1.965  14.021 -0.0897  0.5157  0.2048
 9705TIP3    H150530   0.186   2.046  14.072 -0.0292  1.6353 -1.4957
 9705TIP3    H250531   0.263   1.978  13.961 -1.7529  0.3542 -1.9258
 9706TIP3   OH250532   3.327   3.569   5.222  0.1123 -0.4171 -0.0563
 9706TIP3    H150533   3.303   3.590   5.132 -0.8233  3.2490  0.9450
 9706TIP3    H250534   3.419   3.543   5.217 -0.3809 -1.8731 -2.2351
 9707TIP3   OH250535   2.510   2.103  13.825 -0.0917  0.9354  0.3712
 9707TIP3    H150536   2.550   2.017  13.841  0.2209  1.3913  2.1618
 9707TIP3    H250537   2.417   2.085  13.820  0.0083  0.4218  0.3375
 9708TIP3   OH250538   1.565   5.763   1.835 -0.4969 -0.1428  0.3735
 9708TIP3    H150539   1.641   5.786   1.889 -0.3028  0.2773 -0.0751
 9708TIP3    H250540   1.497   5.823   1.865 -0.7593 -0.7577  1.0210
 9709TIP3   OH250541   6.132   0.882   2.671  0.2956 -0.1688 -0.6031
 9709TIP3    H150542   6.185   0.895   2.592  0.4152  1.6886 -0.2559
 9709TIP3    H250543   6.195   0.858   2.739  0.6925  1.8178 -0.2415
 9710TIP3   OH250544   3.206   2.281   5.500  0.2152  0.3879 -0.2688
 9710TIP3    H150545   3.242   2.194   5.488 -0.2385  0.4606 -2.2905
 9710TIP3    H250546   3.190   2.288   5.594 -0.8722 -2.1394 -0.2484
 9711TIP3   OH250547   0.193   3.428  13.494  0.1722 -0.2130  0.6200
 9711TIP3    H150548   0.118   3.373  13.470 -0.1878  0.0692  1.0967
 9711TIP3    H250549   0.158   3.491  13.557  1.1845 -1.1481  2.1551
 9712TIP3   OH250550   1.870   2.978  16.130  0.0600 -0.4341  0.1888
 9712TIP3    H150551   1.806   2.935  16.074  0.1705 -0.6103  0.1960
 9712TIP3    H250552   1.817   3.022  16.197 -0.1963  1.8515 -1.4659
 9713TIP3   OH250553   3.303   0.494   2.904  0.0549  0.6874  0.3414
 9713TIP3    H150554   3.305   0.558   2.832 -0.7358  1.3980  0.9408
 9713TIP3    H250555   3.280   0.412   2.862  0.9731  0.8063 -0.4292
 9714TIP3   OH250556   5.921   5.892   0.888  0.1957  0.4072  0.0473
 9714TIP3    H150557   6.008   5.922   0.862 -0.5577  2.3063 -0.3441
 9714TIP3    H250558   5.867   5.903   0.810 -0.3214 -1.1378  0.1690
 9715TIP3   OH250559   1.815   2.298  15.824 -0.7402 -0.5195  0.3944
 9715TIP3    H150560   1.756   2.321  15.896  0.5631  2.0971  0.6867
 9715TIP3    H250561   1.763   2.314  15.745 -0.7354  0.9553  0.6728
 9716TIP3   OH250562   3.835   4.447  16.526 -0.2352 -0.0012 -0.7145
 9716TIP3    H150563   3.877   4.369  16.562  0.2705  0.7804  0.3965
 9716TIP3    H250564   3.904   4.512  16.521 -1.5947  1.8325  2.7061
 9717TIP3   OH250565   4.819   4.596  13.084  0.1493  0.6751  0.0471
 9717TIP3    H150566   4.892   4.587  13.145  0.5324  1.6984 -0.2526
 9717TIP3    H250567   4.860   4.604  12.998 -0.3155  1.4242 -0.1065
 9718TIP3   OH250568   6.117   4.509   3.649  0.0280 -0.0982 -0.2261
 9718TIP3    H150569   6.116   4.414   3.642  1.3375 -0.0864 -0.7892
 9718TIP3    H250570   6.030   4.532   3.681 -0.0680 -1.5342  0.5920
 9719TIP3   OH250571   0.775   5.898  10.723 -0.2715  0.1120  0.0407
 9719TIP3    H150572   0.831   5.954  10.776  0.5435  1.4951 -2.1898
 9719TIP3    H250573   0.824   5.883  10.643 -1.0540 -2.7506  0.0228
 9720TIP3   OH250574   3.995   5.587   4.861  0.4566 -0.2533  0.1381
 9720TIP3    H150575   3.967   5.597   4.770  2.7022  2.6342 -0.3209
 9720TIP3    H250576   3.979   5.495   4.881  0.5663 -1.1179 -3.3950
 9721TIP3   OH250577   3.877   4.909   5.292 -0.4576 -0.1336  0.3174
 9721TIP3    H150578   3.843   4.823   5.315  0.2247 -0.2742  0.8512
 9721TIP3    H250579   3.827   4.970   5.346 -1.4232 -0.1312 -0.5778
 9722TIP3   OH250580   1.603   3.709   4.400  0.3923 -0.3184  0.0216
 9722TIP3    H150581   1.561   3.730   4.317  0.8974  2.7832  0.4750
 9722TIP3    H250582   1.541   3.739   4.466  1.0362 -0.5731  0.7473
 9723TIP3   OH250583   3.340   3.443   3.438 -0.2673 -0.0368 -0.1651
 9723TIP3    H150584   3.318   3.387   3.513 -0.8758 -1.0121 -1.0713
 9723TIP3    H250585   3.282   3.415   3.368 -0.5514  1.7022 -0.6585
 9724TIP3   OH250586   0.263   6.514   1.020  0.5640  0.2988 -0.0069
 9724TIP3    H150587   0.247   6.475   1.106 -1.4168  1.8782  0.3818
 9724TIP3    H250588   0.301   6.443   0.968  2.8601 -0.3591  2.4662
 9725TIP3   OH250589   1.439   5.850  14.387  0.0587  0.2364  0.4967
 9725TIP3    H150590   1.432   5.917  14.320  1.9068 -1.3298 -1.3394
 9725TIP3    H250591   1.374   5.784  14.363 -0.0687  0.2125  0.9013
 9726TIP3   OH250592   0.480   1.139  13.084  0.4135  0.6197 -0.0478
 9726TIP3    H150593   0.485   1.220  13.135 -1.8045 -0.1920  1.5253
 9726TIP3    H250594   0.560   1.092  13.106  0.5127  1.2545  0.9861
 9727TIP3   OH250595   5.649   6.479   3.927 -0.0747 -0.3290  0.7627
 9727TIP3    H150596   5.573   6.526   3.894 -1.3060 -4.7873 -3.3417
 9727TIP3    H250597   5.724   6.523   3.886 -1.0355 -0.5109 -1.2523
 9728TIP3   OH250598   0.404   0.833   2.841 -0.6298  0.1325  0.0038
 9728TIP3    H150599   0.483   0.867   2.883 -1.7694  0.5239  1.8848
 9728TIP3    H250600   0.377   0.903   2.781  0.2860  0.1198 -0.4211
 9729TIP3   OH250601   2.490   0.937  11.657  0.2870 -0.2394 -0.7957
 9729TIP3    H150602   2.534   0.925  11.742 -0.0165  3.0680 -0.1343
 9729TIP3    H250603   2.425   0.866  11.655  2.6533 -2.5467  0.1171
 9730TIP3   OH250604   6.710   2.854   1.879  0.2591 -0.6611  0.5059
 9730TIP3    H150605   6.732   2.872   1.971 -3.1641  1.4514  1.0356
 9730TIP3    H250606   6.634   2.796   1.884 -0.2083 -0.2008 -0.9556
 9731TIP3   OH250607   3.128   5.007  13.212 -0.2937 -0.1185  0.6229
 9731TIP3    H150608   3.143   5.101  13.217  2.1500 -0.5416  2.0681
 9731TIP3    H250609   3.091   4.993  13.124 -0.5643  2.1397  0.3468
 9732TIP3   OH250610   5.176   5.017  16.853 -0.3089  0.6980 -0.8469
 9732TIP3    H150611   5.203   5.087  16.793 -0.0107  0.5773 -0.8539
 9732TIP3    H250612   5.242   5.019  16.922 -1.1974  1.4952  0.0012
 9733TIP3   OH250613   3.869   4.015  12.865 -0.4681 -0.2853  0.8733
 9733TIP3    H150614   3.927   4.074  12.914  0.3093 -0.4593  0.1767
 9733TIP3    H250615   3.853   3.943  12.925 -0.3174 -0.0246  1.2337
 9734TIP3   OH250616   2.521   5.154  10.663  0.6791 -0.0016  0.0325
 9734TIP3    H150617   2.440   5.204  10.663  0.0848 -0.9536  0.2864
 9734TIP3    H250618   2.568   5.185  10.585 -0.1218  0.2386 -0.3613
 9735TIP3   OH250619   1.701   3.892   2.018 -0.2059  0.0715 -0.0710
 9735TIP3    H150620   1.719   3.986   2.012  0.2028 -0.0154 -0.2942
 9735TIP3    H250621   1.618   3.880   1.971 -0.5876  0.4113  0.5186
 9736TIP3   OH250622   1.170   6.671  11.888 -0.0417  0.3973 -0.0549
 9736TIP3    H150623   1.262   6.686  11.868  0.5138 -1.6657  0.8086
 9736TIP3    H250624   1.145   6.596  11.834 -2.1841  2.9867 -2.8303
 9737TIP3   OH250625   0.539   3.589  12.336  0.1240  0.2051  0.1910
 9737TIP3    H150626   0.545   3.589  12.240  0.4983  0.7250  0.2159
 9737TIP3    H250627   0.446   3.572  12.353  0.2440 -0.9615 -0.2419
 9738TIP3   OH250628   1.212   5.606   1.726  0.0303  0.3534  0.2430
 9738TIP3    H150629   1.294   5.561   1.706  0.6704  1.7440 -0.2546
 9738TIP3    H250630   1.193   5.583   1.817  1.3934  0.7082  0.6136
 9739TIP3   OH250631   0.140   0.959   5.935  0.1058 -0.0888  0.3706
 9739TIP3    H150632   0.173   0.875   5.968 -0.3820 -1.1344 -1.7043
 9739TIP3    H250633   0.168   1.023   6.000  3.0927 -1.4484  0.5297
 9740TIP3   OH250634   2.318   4.519   3.777 -0.2939  0.2438 -0.1123
 9740TIP3    H150635   2.302   4.481   3.863 -3.3285 -1.1673 -1.2077
 9740TIP3    H250636   2.232   4.551   3.749  0.5932  0.4647 -2.7043
 9741TIP3   OH250637   5.545   5.398  11.769 -0.3603 -0.0540 -0.0155
 9741TIP3    H150638   5.552   5.307  11.798 -1.2940  0.2274  1.1214
 9741TIP3    H250639   5.481   5.437  11.828 -0.7074  1.0881 -1.1267
 9742TIP3   OH250640   4.449   3.017   2.993 -0.2866 -0.2591  0.6982
 9742TIP3    H150641   4.536   2.988   3.019 -0.1041 -1.8510 -1.5376
 9742TIP3    H250642   4.400   3.023   3.075  1.4971 -0.7608  1.8285
 9743TIP3   OH250643   4.791   3.022   0.500 -0.7564 -0.4779  0.4501
 9743TIP3    H150644   4.717   3.080   0.486 -0.4801  0.6741  3.3699
 9743TIP3    H250645   4.817   2.995   0.412 -1.0687  3.5771 -1.0055
 9744TIP3   OH250646   3.921   5.376  13.791 -0.6089  0.2762  0.9372
 9744TIP3    H150647   3.916   5.285  13.764  1.2875  0.0941  1.1178
 9744TIP3    H250648   3.887   5.377  13.880  0.4167 -0.4679  1.3515
 9745TIP3   OH250649   2.543   1.712  16.749 -0.0515  0.4174  0.7595
 9745TIP3    H150650   2.554   1.635  16.695 -1.2129  1.6228 -1.2755
 9745TIP3    H250651   2.628   1.726  16.790  0.0880 -2.0704  1.3804
 9746TIP3   OH250652   0.841   2.614  15.920 -0.4289 -0.7018 -0.5299
 9746TIP3    H150653   0.810   2.593  15.832  1.9847 -1.0905 -1.3436
 9746TIP3    H250654   0.881   2.700  15.911  2.0620 -1.8037 -0.4264
 9747TIP3   OH250655   3.744   3.567  13.127  0.4628 -0.0800  0.5133
 9747TIP3    H150656   3.820   3.572  13.186 -0.5732 -0.5513  1.9199
 9747TIP3    H250657   3.750   3.481  13.087  0.7767 -0.0413  0.4749
 9748TIP3   OH250658   6.417   2.646  12.903  0.0144 -0.6190 -0.1540
 9748TIP3    H150659   6.498   2.621  12.947  0.7650 -0.4633 -1.4584
 9748TIP3    H250660   6.435   2.731  12.864 -0.6553 -0.7686 -0.7932
 9749TIP3   OH250661   6.736   1.103  17.003  0.0640 -0.1356  0.0089
 9749TIP3    H150662   6.727   1.197  16.988  0.7010 -0.0689  0.0326
 9749TIP3    H250663   6.751   1.066  16.916  1.9891  0.0427  0.2659
 9750TIP3   OH250664   4.330   4.598  11.923 -0.5358  0.1685 -0.9007
 9750TIP3    H150665   4.271   4.575  11.994 -2.0038  1.9998 -1.4882
 9750TIP3    H250666   4.341   4.517  11.873 -0.1102 -0.9279  0.9605
 9751TIP3   OH250667   5.154   1.074  14.785 -0.3457 -0.1328  0.5009
 9751TIP3    H150668   5.096   1.008  14.747 -1.4222  0.1284  1.6642
 9751TIP3    H250669   5.234   1.068  14.733 -0.7879 -1.6793 -0.0396
 9752TIP3   OH250670   6.719   2.076  13.082  0.4963 -0.3854  0.0262
 9752TIP3    H150671   6.720   2.024  13.002 -0.5990  2.2152 -1.7301
 9752TIP3    H250672   6.762   2.020  13.147 -0.0683 -3.2028 -1.9288
 9753TIP3   OH250673   6.527   3.062   3.454 -0.1690  0.4361  0.0942
 9753TIP3    H150674   6.453   3.103   3.409  0.4234 -0.3578 -1.6643
 9753TIP3    H250675   6.504   2.969   3.459  0.4485  0.2785  0.0695
 9754TIP3   OH250676   2.474   0.056  12.899 -0.3110  0.1053 -0.0836
 9754TIP3    H150677   2.447   0.123  12.961 -2.0752 -1.3213  0.7425
 9754TIP3    H250678   2.565   0.037  12.922 -0.7785 -0.0200  1.7431
 9755TIP3   OH250679   6.094   5.309   5.467 -0.2948  0.1675 -0.3342
 9755TIP3    H150680   6.179   5.309   5.511 -1.5131  0.7390  2.0961
 9755TIP3    H250681   6.067   5.218   5.467 -0.9755  0.3577  1.5096
 9756TIP3   OH250682   3.086   2.649  12.573 -0.2522 -0.7012  0.1640
 9756TIP3    H150683   3.110   2.566  12.615 -0.9109 -0.4511  1.0504
 9756TIP3    H250684   3.059   2.623  12.485  1.6799 -1.1583 -0.3141
 9757TIP3   OH250685   0.252   4.553   0.479  0.0240 -0.4189  0.0398
 9757TIP3    H150686   0.162   4.583   0.490  0.0963 -0.3776  0.5330
 9757TIP3    H250687   0.303   4.633   0.470  0.1452 -0.4103  0.7994
 9758TIP3   OH250688   2.185   4.764  12.174  0.1184 -0.3816 -0.0036
 9758TIP3    H150689   2.274   4.763  12.141  0.5922 -1.5359  1.2440
 9758TIP3    H250690   2.169   4.855  12.198  0.9301 -0.1593 -0.3099
 9759TIP3   OH250691   4.674   0.730  12.510  0.0850  0.6717 -0.0610
 9759TIP3    H150692   4.763   0.753  12.537 -0.7123  1.3096  2.1587
 9759TIP3    H250693   4.652   0.794  12.443  1.6976 -0.2155 -1.4996
 9760TIP3   OH250694   2.685   3.802  17.044 -0.0486  0.6505 -0.5492
 9760TIP3    H150695   2.779   3.787  17.052 -0.2972 -1.1132 -0.8304
 9760TIP3    H250696   2.666   3.868  17.111  1.3051  0.7454 -0.2321
 9761TIP3   OH250697   6.491   4.949   5.502 -0.5416  0.1217  0.2071
 9761TIP3    H150698   6.452   4.994   5.577  1.0734 -0.8257  1.6700
 9761TIP3    H250699   6.488   4.856   5.525  3.3514  0.0501  0.8592
 9762TIP3   OH250700   4.425   2.495  14.905 -0.3800  0.3076 -0.0611
 9762TIP3    H150701   4.388   2.428  14.962  1.9447 -0.8503  0.1530
 9762TIP3    H250702   4.394   2.472  14.817 -0.1999 -0.6193  0.1148
 9763TIP3   OH250703   1.973   5.854   4.807 -0.2018 -0.2440  0.0187
 9763TIP3    H150704   1.880   5.873   4.815 -0.2840 -1.1137  1.1743
 9763TIP3    H250705   1.979   5.796   4.730 -0.8137 -1.4530  0.8589
 9764TIP3   OH250706   1.384   5.871   2.531 -0.7949 -0.1677  0.1822
 9764TIP3    H150707   1.363   5.936   2.598 -1.7492 -0.3814  0.0955
 9764TIP3    H250708   1.322   5.888   2.460  0.9184  0.7663 -1.1262
 9765TIP3   OH250709   5.460   1.475  16.047  0.3283 -0.1309 -0.1547
 9765TIP3    H150710   5.529   1.516  15.994  1.9066 -0.3511  1.7034
 9765TIP3    H250711   5.416   1.415  15.986  1.2107  0.6233 -1.5782
 9766TIP3   OH250712   1.818   5.606  13.918  0.3378 -0.2575  0.4584
 9766TIP3    H150713   1.750   5.547  13.952 -0.4249  0.3453 -0.0117
 9766TIP3    H250714   1.876   5.548  13.868 -1.0091 -0.4734 -0.9171
 9767TIP3   OH250715   0.667   5.920   5.368 -0.3618  0.0280 -0.3732
 9767TIP3    H150716   0.759   5.947   5.376  0.1957 -2.0408  0.7261
 9767TIP3    H250717   0.627   5.947   5.450 -0.3825 -0.3457 -0.2598
 9768TIP3   OH250718   0.421   3.988   6.760  0.0432 -0.5954 -0.5699
 9768TIP3    H150719   0.462   4.038   6.689 -0.6332  0.3551 -0.2868
 9768TIP3    H250720   0.335   3.964   6.726 -0.1867 -0.3523 -0.1567
 9769TIP3   OH250721   3.441   0.156   0.473  0.1373  0.1120  0.1096
 9769TIP3    H150722   3.378   0.210   0.426 -0.0621  0.6655  0.9896
 9769TIP3    H250723   3.525   0.173   0.430 -0.0952  0.3697 -0.2363
 9770TIP3   OH250724   5.837   2.415  15.877 -0.1343 -0.5163 -0.0583
 9770TIP3    H150725   5.770   2.482  15.893  0.0243 -0.3812  0.0349
 9770TIP3    H250726   5.817   2.382  15.789 -0.3492 -0.5034 -0.0160
 9771TIP3   OH250727   2.279   2.031   4.145  0.0028 -0.2371  0.3136
 9771TIP3    H150728   2.314   1.990   4.066  0.3766  0.9300 -0.1295
 9771TIP3    H250729   2.226   1.962   4.186 -0.2736 -0.8183 -0.9947
 9772TIP3   OH250730   5.256   2.048   3.094 -0.0197 -0.0729 -0.5544
 9772TIP3    H150731   5.231   1.957   3.111  0.8697  0.0680  1.6316
 9772TIP3    H250732   5.230   2.063   3.003 -1.0831 -2.1980 -0.6338
 9773TIP3   OH250733   6.664   6.172  16.083 -0.2314 -0.0789  0.0840
 9773TIP3    H150734   6.698   6.104  16.024  0.1924  0.4558 -0.2853
 9773TIP3    H250735   6.712   6.158  16.164  1.8424  1.5023 -0.8355
 9774TIP3   OH250736   6.431   0.818  14.884 -0.3168  0.1430  0.2271
 9774TIP3    H150737   6.380   0.847  14.960  1.2842  0.1900  1.3138
 9774TIP3    H250738   6.517   0.797  14.920  0.3854 -0.0845 -1.5445
 9775TIP3   OH250739   4.324   2.904  12.118  1.0056  0.4663  0.3988
 9775TIP3    H150740   4.349   2.922  12.027  0.4459 -0.0180  0.1472
 9775TIP3    H250741   4.383   2.835  12.146 -0.4562 -1.1524 -0.4092
 9776TIP3   OH250742   6.313   0.006  13.190  0.2127 -0.2407 -0.1739
 9776TIP3    H150743   6.305  -0.027  13.279  1.8277  1.2011  0.5403
 9776TIP3    H250744   6.239   0.065  13.179 -0.3855 -0.9624 -0.0293
 9777TIP3   OH250745   4.567   5.953   5.340 -0.1655  0.0288  0.4622
 9777TIP3    H150746   4.621   6.002   5.278 -0.5121  0.5707  0.5843
 9777TIP3    H250747   4.518   6.020   5.387 -0.6845 -0.4379  0.5928
 9778TIP3   OH250748   4.239   4.050   1.601 -0.0524  0.0267  0.4016
 9778TIP3    H150749   4.229   4.001   1.520 -0.5269 -0.1028  0.5353
 9778TIP3    H250750   4.173   4.119   1.596  1.4917  1.4553 -0.3723
 9779TIP3   OH250751   3.155   3.228  16.165  0.5487  0.3743 -0.0984
 9779TIP3    H150752   3.230   3.269  16.120  2.0075 -0.1867  1.7767
 9779TIP3    H250753   3.194   3.184  16.240 -1.2451 -2.8527 -1.0044
 9780TIP3   OH250754   2.647   4.970   5.456  0.2491  0.8256 -0.3808
 9780TIP3    H150755   2.696   5.039   5.499  0.9876  0.6647 -0.9501
 9780TIP3    H250756   2.662   4.892   5.509  0.3825  0.8403 -0.3964
 9781TIP3   OH250757   4.106   2.511   5.974 -0.4770 -0.3195 -0.0403
 9781TIP3    H150758   4.036   2.575   5.987  1.4701  1.6208  1.4377
 9781TIP3    H250759   4.091   2.444   6.040 -1.0989 -0.0687  0.0725
 9782TIP3   OH250760   6.004   0.111  15.903 -0.7164  0.5060  0.1583
 9782TIP3    H150761   6.009   0.051  15.828 -0.3298 -0.2553  0.7880
 9782TIP3    H250762   5.916   0.098  15.939 -0.3603 -0.2690  0.7676
 9783TIP3   OH250763   3.474   1.547   4.043 -0.1213 -0.1900  0.3919
 9783TIP3    H150764   3.381   1.550   4.065 -0.3296 -1.7278 -0.2161
 9783TIP3    H250765   3.490   1.628   3.996 -1.1391  0.1319  0.5825
 9784TIP3   OH250766   4.292   1.470  12.146 -0.2708 -0.5546  0.0193
 9784TIP3    H150767   4.199   1.465  12.170 -0.4385 -1.2990 -0.7195
 9784TIP3    H250768   4.299   1.411  12.070  1.7265 -4.2935  2.9173
 9785TIP3   OH250769   4.189   6.748   2.132 -0.3837  0.1104 -0.0998
 9785TIP3    H150770   4.152   6.693   2.062 -2.1755  1.5238 -0.3014
 9785TIP3    H250771   4.263   6.792   2.091  0.1422 -0.9933 -0.3647
 9786TIP3   OH250772   3.673   0.275  17.002  0.9296  0.3607  0.0810
 9786TIP3    H150773   3.621   0.355  16.988 -1.2159 -0.8547  0.9774
 9786TIP3    H250774   3.672   0.232  16.916 -0.3317 -0.1042  0.3163
 9787TIP3   OH250775   4.766   0.027   0.927  0.8734 -0.1740 -0.2355
 9787TIP3    H150776   4.696   0.092   0.932  0.2652 -0.8354 -0.0052
 9787TIP3    H250777   4.724  -0.055   0.955  1.3900 -0.8492 -1.4087
 9788TIP3   OH250778   5.322   0.639   3.713 -0.2911  0.0940  0.1401
 9788TIP3    H150779   5.370   0.641   3.630  0.3790 -0.7784  0.5036
 9788TIP3    H250780   5.383   0.676   3.777 -0.1533 -0.8795  0.5763
 9789TIP3   OH250781   4.917   3.037   3.195 -0.0779  0.4590  0.4900
 9789TIP3    H150782   4.976   3.052   3.121 -2.0562  0.1827 -1.2071
 9789TIP3    H250783   4.942   2.951   3.228 -0.6688 -0.4408 -1.3425
 9790TIP3   OH250784   5.384   5.736  16.753  0.1678  0.0094 -0.1928
 9790TIP3    H150785   5.456   5.782  16.711  0.9763 -0.7340  0.3624
 9790TIP3    H250786   5.357   5.795  16.824  0.8253 -0.1138  0.1621
 9791TIP3   OH250787   1.041   3.995  14.965  0.1037  0.2095  0.1379
 9791TIP3    H150788   1.102   4.069  14.970 -0.3694  0.7662 -1.9046
 9791TIP3    H250789   1.098   3.917  14.966  0.4945  0.4296  4.7439
 9792TIP3   OH250790   0.576   4.297   2.848 -0.3783 -0.0956 -0.4549
 9792TIP3    H150791   0.668   4.269   2.850  0.4659  2.4587 -0.5030
 9792TIP3    H250792   0.552   4.309   2.939 -0.4498 -0.2003 -0.4612
 9793TIP3   OH250793   6.418   4.796  15.347 -0.3244 -0.0311 -0.1001
 9793TIP3    H150794   6.426   4.702  15.335  1.7927  0.1586 -0.4331
 9793TIP3    H250795   6.400   4.807  15.440  0.2679 -0.7326  0.0993
 9794TIP3   OH250796   1.004   2.741   0.692  0.4640 -0.1969 -0.4283
 9794TIP3    H150797   0.999   2.737   0.596  1.5917  0.4539 -0.5236
 9794TIP3    H250798   1.010   2.649   0.719  1.0540 -0.3493 -1.0437
 9795TIP3   OH250799   2.764   6.035   6.576  0.3649  0.3810  0.4340
 9795TIP3    H150800   2.687   6.060   6.627 -0.4199 -0.1716 -0.4659
 9795TIP3    H250801   2.801   6.118   6.547 -0.1946  0.6357  0.4346
 9796TIP3   OH250802   2.148   4.410  11.591 -0.3383 -0.5483  0.6562
 9796TIP3    H150803   2.064   4.418  11.636  0.1837  0.6918  1.4466
 9796TIP3    H250804   2.193   4.338  11.636 -0.7691 -0.8834  0.5565
 9797TIP3   OH250805   5.864   1.264   1.113  0.2605  0.8352 -0.2965
 9797TIP3    H150806   5.789   1.267   1.172 -0.2975  1.8223 -1.0310
 9797TIP3    H250807   5.908   1.181   1.134  0.2845  1.3392  1.7190
 9798TIP3   OH250808   6.301   2.000   2.238  0.3181 -0.1553 -0.3323
 9798TIP3    H150809   6.243   2.069   2.271  1.6924  1.2398 -0.7803
 9798TIP3    H250810   6.335   1.958   2.317 -0.2675 -0.1047 -0.0512
 9799TIP3   OH250811   2.041   6.336   0.839 -0.9865  0.1625  0.3453
 9799TIP3    H150812   2.025   6.270   0.771  0.4036  1.4274 -1.2465
 9799TIP3    H250813   2.016   6.419   0.798 -2.2166  0.6996  2.1480
 9800TIP3   OH250814   0.231   1.150  11.510  0.5851  0.2598  0.0411
 9800TIP3    H150815   0.303   1.106  11.464  1.2146  1.6259 -0.3357
 9800TIP3    H250816   0.161   1.153  11.446  0.0963 -1.2896  0.4874
 9801TIP3   OH250817   0.793   2.762  16.483 -0.3254 -0.6446 -0.3043
 9801TIP3    H150818   0.813   2.776  16.575  0.8702  0.3538 -0.7096
 9801TIP3    H250819   0.871   2.792  16.436 -1.1857 -0.5051 -1.6782
 9802TIP3   OH250820   6.740   1.325   2.134 -0.3704 -0.2966  0.4730
 9802TIP3    H150821   6.760   1.410   2.173 -0.7658  0.9379 -1.9066
 9802TIP3    H250822   6.801   1.264   2.176  1.1732  1.5054  0.9155
 9803TIP3   OH250823   5.464   2.141   5.650 -0.0228 -0.3196 -0.3633
 9803TIP3    H150824   5.449   2.185   5.567 -0.4356  0.4426  0.1059
 9803TIP3    H250825   5.498   2.210   5.708 -0.0882 -0.7551  0.2042
 9804TIP3   OH250826   0.921   5.097  16.946 -0.3354  0.3162 -0.1870
 9804TIP3    H150827   0.926   5.017  16.894  0.6765  0.0164  0.3711
 9804TIP3    H250828   0.918   5.168  16.881 -0.8881 -0.1488 -0.6734
 9805TIP3   OH250829   1.994   6.336  15.308 -0.2195  0.2785  0.2711
 9805TIP3    H150830   2.010   6.272  15.239 -1.5874  0.0108  0.1894
 9805TIP3    H250831   1.923   6.298  15.360  1.2347  0.1573  2.2472
 9806TIP3   OH250832   0.861   3.661   0.870 -0.1637  0.0394 -0.3614
 9806TIP3    H150833   0.768   3.679   0.856 -0.5531  0.0790  1.9796
 9806TIP3    H250834   0.864   3.569   0.895  0.2834  0.2756  0.4973
 9807TIP3   OH250835   5.965   4.638  11.197  0.3175  0.3017  0.3069
 9807TIP3    H150836   6.030   4.661  11.130  1.5057  0.4978  1.5239
 9807TIP3    H250837   5.926   4.557  11.164 -0.8223  1.6637 -1.8176
 9808TIP3   OH250838   3.572   6.035  11.430 -0.0002 -0.8799 -0.2556
 9808TIP3    H150839   3.630   6.045  11.354  0.4814 -1.0146  0.0869
 9808TIP3    H250840   3.587   5.944  11.458  0.0366 -0.7394  0.1722
 9809TIP3   OH250841   4.399   3.721  15.845  0.1588  0.6698  0.3458
 9809TIP3    H150842   4.438   3.724  15.758 -1.0325 -2.5805 -0.3895
 9809TIP3    H250843   4.467   3.755  15.903  1.5767  1.3542 -1.6571
 9810TIP3   OH250844   1.157   1.514   6.209  0.5659  0.4682 -0.1576
 9810TIP3    H150845   1.244   1.544   6.235  0.4790 -1.7983  3.1123
 9810TIP3    H250846   1.097   1.580   6.245  0.8015  0.8969 -0.5446
 9811TIP3   OH250847   1.071   5.489   1.027  0.4300 -0.6167  0.2489
 9811TIP3    H150848   1.039   5.573   0.993 -0.6821 -0.9295  0.5139
 9811TIP3    H250849   1.158   5.509   1.062  0.7461  0.1340 -0.9463
 9812TIP3   OH250850   1.407   6.639   3.338  1.0882  0.4393 -0.2087
 9812TIP3    H150851   1.458   6.597   3.407  0.1227 -0.7729 -0.2004
 9812TIP3    H250852   1.439   6.599   3.257  1.5018  1.0989 -0.3691
 9813TIP3   OH250853   4.272   1.371  13.512  0.0892  0.2786  0.2146
 9813TIP3    H150854   4.317   1.340  13.590 -1.1593 -0.4437  0.6467
 9813TIP3    H250855   4.306   1.316  13.441  0.7571  0.5244  0.3377
 9814TIP3   OH250856   3.618   5.603  17.092  0.0910 -0.2243  0.4978
 9814TIP3    H150857   3.704   5.605  17.134 -0.0504  0.6929  0.7407
 9814TIP3    H250858   3.625   5.534  17.025  0.6987 -0.8338  1.1883
 9815TIP3   OH250859   6.264   0.720   3.390  0.9199 -0.0868 -0.4139
 9815TIP3    H150860   6.318   0.789   3.429  0.3275 -0.3290  0.8517
 9815TIP3    H250861   6.225   0.761   3.312 -0.1385  1.2768  0.8178
 9816TIP3   OH250862   5.953   6.615  12.780  0.0266  0.4945 -0.5174
 9816TIP3    H150863   5.862   6.640  12.795 -0.2871  0.5654 -2.4002
 9816TIP3    H250864   5.977   6.658  12.698  1.1515 -1.0468 -1.0299
 9817TIP3   OH250865   0.131   4.494   4.753  0.1422  0.6113  0.3505
 9817TIP3    H150866   0.037   4.515   4.754 -0.1756 -0.7322  2.4362
 9817TIP3    H250867   0.168   4.544   4.826  0.9190  0.6020 -0.0299
 9818TIP3   OH250868   0.145   6.190  13.246 -0.5864  0.9106  0.3068
 9818TIP3    H150869   0.094   6.169  13.167  1.2244 -1.1805 -0.3479
 9818TIP3    H250870   0.209   6.254  13.216 -1.2992  1.7809  0.6076
 9819TIP3   OH250871   3.670   3.416  15.288  0.0338  0.1046 -0.0139
 9819TIP3    H150872   3.593   3.470  15.270 -1.8993 -1.6706  2.4263
 9819TIP3    H250873   3.667   3.347  15.222 -0.5587 -0.0300  0.1514
 9820TIP3   OH250874   0.960   1.460  17.207 -0.2752 -0.2322  0.0788
 9820TIP3    H150875   0.889   1.440  17.145 -2.6241 -1.0780  2.9518
 9820TIP3    H250876   1.012   1.379  17.210 -0.2324 -0.2377 -0.6547
 9821TIP3   OH250877   2.390   6.765  16.039 -0.0488  0.1423 -0.1038
 9821TIP3    H150878   2.356   6.685  16.000  0.3833  0.8291 -1.8974
 9821TIP3    H250879   2.333   6.834  16.007 -0.3023  0.6074  1.2854
 9822TIP3   OH250880   3.922   5.188  10.945  0.1892 -0.1272  0.3453
 9822TIP3    H150881   3.886   5.243  11.014  0.2733 -0.0523  0.3313
 9822TIP3    H250882   3.980   5.247  10.895 -0.9515  0.1726 -0.6444
 9823TIP3   OH250883   5.456   3.795   0.569  0.3783  0.1257 -0.0034
 9823TIP3    H150884   5.521   3.787   0.639  1.2866 -1.7011 -1.0082
 9823TIP3    H250885   5.387   3.733   0.592 -0.1979  0.8454  0.2066
 9824TIP3   OH250886   4.046   2.458   3.491  0.1848 -0.0193  0.7689
 9824TIP3    H150887   4.082   2.540   3.457 -1.6985  1.1152  1.4177
 9824TIP3    H250888   3.986   2.428   3.423 -0.1014 -0.1654  1.0823
 9825TIP3   OH250889   0.416   4.044  16.518  0.0283 -0.1809 -0.1652
 9825TIP3    H150890   0.330   4.017  16.552 -0.4343 -0.6015 -1.6377
 9825TIP3    H250891   0.470   4.057  16.596 -1.0225 -1.0874  0.7252
 9826TIP3   OH250892   0.487   4.364  10.766  0.3198 -0.4081 -0.1598
 9826TIP3    H150893   0.485   4.459  10.761 -0.5731 -0.2834  2.1749
 9826TIP3    H250894   0.403   4.336  10.732 -0.6967 -0.1735  2.0594
 9827TIP3   OH250895   0.087   2.914  16.966  0.2772 -0.4650  0.6491
 9827TIP3    H150896   0.116   2.991  17.015 -1.9013  0.3529  0.7469
 9827TIP3    H250897   0.096   2.842  17.028 -2.0034  0.4804  2.1725
 9828TIP3   OH250898   5.335   3.519   2.112  0.5623 -0.5808  0.2257
 9828TIP3    H150899   5.362   3.531   2.021  0.4688  0.6361  0.3418
 9828TIP3    H250900   5.246   3.554   2.115  0.3716 -1.0985  0.6761
 9829TIP3   OH250901   1.229   4.854  15.059 -0.2111  0.0693 -0.2918
 9829TIP3    H150902   1.243   4.860  15.154  0.1415 -0.9667 -0.2780
 9829TIP3    H250903   1.134   4.866  15.048 -0.1083  1.3417  0.0872
 9830TIP3   OH250904   3.828   0.322   2.206 -0.0520  0.5581 -0.8577
 9830TIP3    H150905   3.796   0.238   2.173  0.3211 -0.0320  0.2773
 9830TIP3    H250906   3.769   0.387   2.167 -1.8728 -0.4090  0.2286
 9831TIP3   OH250907   1.238   1.147  11.419 -0.4318 -0.4083 -0.0161
 9831TIP3    H150908   1.182   1.190  11.354 -1.5087  0.7938  1.6696
 9831TIP3    H250909   1.177   1.110  11.482  0.5453 -3.2281 -0.6553
 9832TIP3   OH250910   1.909   2.401  10.972  0.0476  0.2931 -0.7774
 9832TIP3    H150911   1.885   2.403  10.880 -0.3357 -0.6902 -0.7080
 9832TIP3    H250912   1.828   2.426  11.018 -1.1583 -3.7486 -0.5039
 9833TIP3   OH250913   4.218   4.766  16.782  0.1083  0.1602  0.1264
 9833TIP3    H150914   4.128   4.794  16.766 -0.5604 -1.9882 -0.1253
 9833TIP3    H250915   4.261   4.772  16.696 -0.4478 -0.9391 -0.2503
 9834TIP3   OH250916   0.230   6.395  12.390  0.6251 -0.2499 -0.1278
 9834TIP3    H150917   0.196   6.430  12.472 -0.8322  0.4389 -1.0043
 9834TIP3    H250918   0.201   6.304  12.388  1.1309 -0.4252  0.3654
 9835TIP3   OH250919   5.035   6.512   3.093  0.0296  0.6640 -0.6225
 9835TIP3    H150920   5.103   6.514   3.026 -0.5349  0.5309 -1.1976
 9835TIP3    H250921   4.954   6.490   3.046 -0.5768  1.7141 -0.0919
 9836TIP3   OH250922   6.582   5.729   3.439  0.0833 -0.1402  0.6590
 9836TIP3    H150923   6.562   5.740   3.346 -0.0531 -0.2237  0.6785
 9836TIP3    H250924   6.592   5.819   3.472  2.1989 -0.1531  0.1201
 9837TIP3   OH250925   0.649   0.488   0.193 -0.5671 -0.1200 -0.2938
 9837TIP3    H150926   0.719   0.424   0.208 -0.0946  0.3998 -0.2630
 9837TIP3    H250927   0.607   0.498   0.278 -0.6651 -0.4215 -0.3080
 9838TIP3   OH250928   1.341   2.818  16.198  0.2214 -0.5224  0.1702
 9838TIP3    H150929   1.361   2.731  16.162 -0.7316 -1.2319  1.3482
 9838TIP3    H250930   1.373   2.815  16.288  0.2746  0.3942  0.1884
 9839TIP3   OH250931   0.447   0.696  16.209 -0.4841 -0.5734 -0.8445
 9839TIP3    H150932   0.392   0.770  16.238  0.7370  0.4332 -1.0720
 9839TIP3    H250933   0.510   0.735  16.149  0.5590 -1.7096 -0.5101
 9840TIP3   OH250934   0.890   4.623  16.576 -0.1885 -0.1958 -0.0311
 9840TIP3    H150935   0.835   4.645  16.501  0.4239  2.7941  0.3286
 9840TIP3    H250936   0.845   4.662  16.651  1.3377  0.4309  0.5707
 9841TIP3   OH250937   6.694   5.957   3.958 -0.1221  0.0490  0.1055
 9841TIP3    H150938   6.686   5.869   3.997 -0.2046 -0.2237 -0.5271
 9841TIP3    H250939   6.684   6.016   4.033  1.4146 -0.4981  0.7707
 9842TIP3   OH250940   4.926   3.099   4.913 -0.0608 -0.1057 -0.3295
 9842TIP3    H150941   5.012   3.085   4.872 -0.0745  1.6899 -1.0092
 9842TIP3    H250942   4.869   3.034   4.872  0.8101 -0.8577 -0.3673
 9843TIP3   OH250943   0.504   3.666   5.181 -0.3714  0.5898  0.3803
 9843TIP3    H150944   0.444   3.730   5.143 -2.3459 -0.7188  1.1987
 9843TIP3    H250945   0.501   3.592   5.122  0.0299  0.2965  0.7227
 9844TIP3   OH250946   2.873   0.419   2.509 -0.3110 -0.5086 -0.0978
 9844TIP3    H150947   2.829   0.452   2.588 -0.9168 -1.3306 -0.0888
 9844TIP3    H250948   2.889   0.498   2.457  0.2891  0.0706  0.9358
 9845TIP3   OH250949   1.946   5.239   0.972 -0.2284  0.2408  0.4943
 9845TIP3    H150950   1.933   5.203   0.885  1.0155  2.1157 -0.4939
 9845TIP3    H250951   1.901   5.324   0.970  1.7721  1.3350  0.9144
 9846TIP3   OH250952   1.326   1.603   0.085 -0.1323 -0.4734  0.5252
 9846TIP3    H150953   1.300   1.535   0.023  1.1233 -0.4522 -0.0424
 9846TIP3    H250954   1.417   1.623   0.062  0.3070 -0.3655  2.2873
 9847TIP3   OH250955   3.541   0.986   4.982  0.2426  0.3832 -0.1838
 9847TIP3    H150956   3.526   0.970   5.075 -2.0808  1.1842 -0.4000
 9847TIP3    H250957   3.456   0.971   4.940  2.2235 -4.5999 -2.8853
 9848TIP3   OH250958   0.019   0.835  11.140  0.2200  0.1689 -0.1980
 9848TIP3    H150959  -0.022   0.910  11.097 -0.4864 -0.2062 -0.1927
 9848TIP3    H250960  -0.053   0.794  11.189  0.9047  0.2920  0.9182
 9849TIP3   OH250961   5.478   1.089   0.606 -0.1412  0.4061  0.0310
 9849TIP3    H150962   5.461   1.058   0.517 -2.2185 -0.0164  0.5654
 9849TIP3    H250963   5.430   1.171   0.613 -1.6671 -0.5863  1.4171
 9850TIP3   OH250964   0.447   4.737  14.693 -0.0058  0.5551  0.0418
 9850TIP3    H150965   0.446   4.739  14.789 -0.4372  1.6475  0.0270
 9850TIP3    H250966   0.370   4.789  14.668 -0.3586 -0.4095 -0.8843
 9851TIP3   OH250967   6.176   5.540  14.808  0.1446  0.0083 -0.5807
 9851TIP3    H150968   6.121   5.592  14.750 -0.1372  0.6689  0.2727
 9851TIP3    H250969   6.114   5.497  14.868  0.5620  0.8380  0.4470
 9852TIP3   OH250970   5.608   4.848  15.073 -0.1115 -0.3556 -0.1667
 9852TIP3    H150971   5.577   4.936  15.053 -0.9059 -0.7912 -0.8625
 9852TIP3    H250972   5.529   4.799  15.096  0.2480 -1.0535 -0.3966
 9853TIP3   OH250973   1.566   5.634  11.340 -0.3025  0.6308 -0.2787
 9853TIP3    H150974   1.521   5.659  11.421  1.5812 -2.1972  1.7556
 9853TIP3    H250975   1.615   5.711  11.315 -0.8501  1.5399  1.3510
 9854TIP3   OH250976   5.096   1.233  11.671  0.4289  0.2242  0.1916
 9854TIP3    H150977   5.003   1.225  11.650  1.0127  1.2222 -2.9365
 9854TIP3    H250978   5.140   1.192  11.597  2.5190  0.7184  1.1507
 9855TIP3   OH250979   3.284   5.161  14.378  0.4476  0.1571 -0.3404
 9855TIP3    H150980   3.337   5.239  14.395  1.3475 -0.6037  0.4108
 9855TIP3    H250981   3.348   5.093  14.358 -0.3820 -0.1424 -2.0733
 9856TIP3   OH250982   0.493   3.682  13.538 -0.1020 -0.1215 -0.6806
 9856TIP3    H150983   0.502   3.767  13.494 -1.1025 -1.0642 -2.7765
 9856TIP3    H250984   0.570   3.632  13.510 -0.2661 -0.4012 -0.6370
 9857TIP3   OH250985   3.493   0.710   2.523  0.5542  0.0266  0.1538
 9857TIP3    H150986   3.588   0.717   2.513  0.6252 -0.7539  0.2166
 9857TIP3    H250987   3.469   0.785   2.578  0.7752  1.6889 -1.9819
 9858TIP3   OH250988   3.485   4.428   3.188  0.1764  0.3930 -0.4828
 9858TIP3    H150989   3.411   4.381   3.226 -0.3830 -0.3359 -2.4267
 9858TIP3    H250990   3.509   4.377   3.110  0.5475  2.4649 -1.7655
 9859TIP3   OH250991   1.140   6.323   1.941  0.6049  0.1055  0.6039
 9859TIP3    H150992   1.087   6.264   1.995 -0.4297  2.1270  1.8346
 9859TIP3    H250993   1.078   6.365   1.883  1.3298  0.0775 -0.1964
 9860TIP3   OH250994   3.363   5.156  11.593 -0.8698 -0.3745  0.7674
 9860TIP3    H150995   3.298   5.160  11.663 -0.0788  0.3195  1.4565
 9860TIP3    H250996   3.414   5.077  11.612 -2.8319 -2.1687 -0.9695
 9861TIP3   OH250997   3.337   4.025  10.592  0.0047  0.5348 -0.3701
 9861TIP3    H150998   3.334   3.942  10.544 -0.8351 -0.2227  0.9623
 9861TIP3    H250999   3.404   4.076  10.547  2.1938 -1.7438  0.1794
 9862TIP3   OH251000   5.261   2.967  15.736  0.2471 -0.0145  0.4654
 9862TIP3    H151001   5.321   2.894  15.716 -1.3517 -1.5265  1.0204
 9862TIP3    H251002   5.202   2.970  15.661  1.5786  2.1211 -0.5455
 9863TIP3   OH251003   0.551   3.086   0.728  0.3671  0.0977 -0.4459
 9863TIP3    H151004   0.576   3.112   0.817 -1.6360  1.3775 -0.2164
 9863TIP3    H251005   0.559   2.990   0.728  1.6028  0.1820  0.7058
 9864TIP3   OH251006   5.684   3.501  16.254  0.1826  0.4021  0.1189
 9864TIP3    H151007   5.646   3.537  16.174 -0.3484  0.5855  0.4504
 9864TIP3    H251008   5.774   3.478  16.230 -0.9896 -2.7884 -1.4805
 9865TIP3   OH251009   1.611   0.012  11.564  0.5282 -0.1154  0.3838
 9865TIP3    H151010   1.579   0.050  11.647  0.6226 -0.0727  0.4016
 9865TIP3    H251011   1.699  -0.020  11.585  1.3085  1.5987 -0.1809
 9866TIP3   OH251012   6.521   1.072   0.163  0.0179 -0.3107  0.1912
 9866TIP3    H151013   6.426   1.059   0.158  0.2170 -1.5752 -0.5412
 9866TIP3    H251014   6.555   1.029   0.084  1.2272 -0.1959  0.6404
 9867TIP3   OH251015   0.678   2.470  11.950 -0.2037  0.2731  0.0157
 9867TIP3    H151016   0.646   2.538  11.891 -0.3878  2.3470  2.3939
 9867TIP3    H251017   0.767   2.497  11.971  0.2375 -1.0276 -0.1419
 9868TIP3   OH251018   1.700   6.331  14.766 -0.0795 -0.0794  0.3902
 9868TIP3    H151019   1.624   6.273  14.761  0.0172 -0.2443  0.7936
 9868TIP3    H251020   1.742   6.323  14.681 -0.4244 -0.1119  0.2222
 9869TIP3   OH251021   2.256   6.738  15.301 -0.8578  0.4576 -0.6225
 9869TIP3    H151022   2.304   6.756  15.220 -0.9867  1.5536 -0.4726
 9869TIP3    H251023   2.170   6.709  15.271 -0.2978 -0.9529 -0.8876
 9870TIP3   OH251024   5.997   2.028  14.304 -0.5136  0.8248  0.1657
 9870TIP3    H151025   5.904   2.018  14.283 -0.7314 -0.2582  1.5059
 9870TIP3    H251026   6.016   1.952  14.359  1.3049  0.7623 -0.5443
 9871TIP3   OH251027   1.902   3.194  14.635  0.8154 -0.2403 -0.6647
 9871TIP3    H151028   1.822   3.199  14.583  0.0245  0.0219  0.5661
 9871TIP3    H251029   1.965   3.150  14.578  0.5312  1.7071 -2.5358
 9872TIP3   OH251030   6.551   5.509   4.370 -0.2656 -0.3506 -0.2302
 9872TIP3    H151031   6.641   5.506   4.404 -0.4766 -0.9661  0.2828
 9872TIP3    H251032   6.522   5.418   4.372 -1.2739 -0.0234  0.6044
 9873TIP3   OH251033   2.615   1.951   2.031  0.0054 -0.8881  0.1411
 9873TIP3    H151034   2.665   2.024   1.996 -1.1835 -1.0392 -1.9412
 9873TIP3    H251035   2.678   1.880   2.041  0.3230 -0.9285 -1.9936
 9874TIP3   OH251036   4.722   5.459   0.444 -0.0002  0.5396 -0.0380
 9874TIP3    H151037   4.773   5.524   0.395 -0.8498  1.4136  0.2032
 9874TIP3    H251038   4.735   5.483   0.536 -2.8214  2.3646 -0.0424
 9875TIP3   OH251039   5.055   0.576   3.689 -0.1543  0.0623  0.1061
 9875TIP3    H151040   5.025   0.491   3.722 -0.4143  0.2677  0.4041
 9875TIP3    H251041   5.147   0.582   3.717  0.2708 -0.7200 -1.1134
 9876TIP3   OH251042   4.253   1.648  13.462 -0.2112 -0.4030  0.1229
 9876TIP3    H151043   4.178   1.668  13.406 -0.2628 -0.9231  0.0055
 9876TIP3    H251044   4.260   1.553  13.460 -0.2314 -0.4263  1.0255
 9877TIP3   OH251045   3.387   0.957   3.717  0.0838 -0.9623 -0.3716
 9877TIP3    H151046   3.397   1.051   3.728 -1.9286 -0.5544 -1.7462
 9877TIP3    H251047   3.447   0.918   3.781  2.2593  1.2349 -0.9881
 9878TIP3   OH251048   4.147   4.631  17.009 -0.7660 -0.6321 -0.2375
 9878TIP3    H151049   4.177   4.653  16.921  0.7328 -1.2990  0.0789
 9878TIP3    H251050   4.077   4.693  17.028  0.7735  1.3198 -0.8339
 9879TIP3   OH251051   6.713   4.148   2.107  0.4398  0.2189 -0.1029
 9879TIP3    H151052   6.727   4.068   2.056  0.3639  0.2669 -0.2002
 9879TIP3    H251053   6.618   4.148   2.124  0.1458  1.2146 -1.6355
 9880TIP3   OH251054   2.732   0.768  13.710 -0.0051  0.2179 -0.8808
 9880TIP3    H151055   2.737   0.794  13.618 -0.6183 -2.1286 -1.6155
 9880TIP3    H251056   2.667   0.827  13.748  0.9531  1.8434 -1.6994
 9881TIP3   OH251057   5.319   0.335   0.738  0.0298 -0.2429  0.6080
 9881TIP3    H151058   5.385   0.301   0.678 -0.7486  1.6522 -1.3709
 9881TIP3    H251059   5.355   0.318   0.825  3.3885  1.2171 -0.4218
 9882TIP3   OH251060   2.815   3.657   1.336 -0.3027 -0.0922 -0.5862
 9882TIP3    H151061   2.872   3.731   1.359  0.3270 -0.8572  0.3173
 9882TIP3    H251062   2.830   3.644   1.243  0.2839  0.3243 -0.5524
 9883TIP3   OH251063   4.228   4.996  12.096  0.0750 -0.3528 -0.0224
 9883TIP3    H151064   4.229   4.965  12.005  2.8470 -0.5828  0.0385
 9883TIP3    H251065   4.278   5.078  12.093  0.9296 -0.8146  1.4384
 9884TIP3   OH251066   2.472   6.460  15.271 -0.4084 -0.4580 -0.4495
 9884TIP3    H151067   2.460   6.457  15.366 -0.0474 -0.2709 -0.3985
 9884TIP3    H251068   2.399   6.408  15.236 -0.4803 -0.6125 -0.0665
 9885TIP3   OH251069   6.559   0.260  13.706 -0.2774 -0.2579 -1.0298
 9885TIP3    H151070   6.601   0.194  13.650  1.6681  0.3710 -0.3631
 9885TIP3    H251071   6.500   0.307  13.647  0.9019 -0.3288 -2.3023
 9886TIP3   OH251072   1.585   0.374  16.603 -0.1802  0.2082  0.3366
 9886TIP3    H151073   1.528   0.439  16.643  0.7304  0.7210  0.8210
 9886TIP3    H251074   1.547   0.290  16.628 -1.0053  0.5512  0.2292
 9887TIP3   OH251075   2.889   3.729   5.689  0.5031  0.3268  0.2296
 9887TIP3    H151076   2.874   3.648   5.641 -1.3335  0.2161  0.9293
 9887TIP3    H251077   2.978   3.720   5.724 -0.1281 -1.9679  1.3683
 9888TIP3   OH251078   5.486   1.610  11.342  0.0916 -0.3670  0.1756
 9888TIP3    H151079   5.469   1.657  11.261  1.1477 -1.5745 -0.7658
 9888TIP3    H251080   5.515   1.678  11.403 -0.1710  0.4733 -0.6205
 9889TIP3   OH251081   5.945   1.256  13.408  0.0785 -0.0473  0.6355
 9889TIP3    H151082   5.914   1.346  13.415 -0.8550 -0.4809  2.4516
 9889TIP3    H251083   5.869   1.207  13.376 -0.5092 -0.7448  2.9895
 9890TIP3   OH251084   5.431   2.596  12.789  0.5152 -0.3570 -0.1603
 9890TIP3    H151085   5.366   2.656  12.825  1.2410  0.1375  0.3465
 9890TIP3    H251086   5.426   2.608  12.694 -0.8821 -1.1165 -0.1940
 9891TIP3   OH251087   4.396   3.546   0.679 -0.1673 -0.7272  0.7611
 9891TIP3    H151088   4.361   3.458   0.665 -0.0842 -0.5242 -0.9438
 9891TIP3    H251089   4.318   3.601   0.689 -0.3646 -0.4313 -2.0209
 9892TIP3   OH251090   2.740   1.079   1.805 -0.0520  0.3538  0.3646
 9892TIP3    H151091   2.784   0.995   1.818 -0.1641  0.2464  0.0680
 9892TIP3    H251092   2.647   1.059   1.815 -0.0063  0.6725  1.4596
 9893TIP3   OH251093   3.086   6.067   1.250 -0.0972  0.0609  0.0591
 9893TIP3    H151094   3.162   6.009   1.253 -0.2774 -0.1586  0.3468
 9893TIP3    H251095   3.087   6.103   1.161  0.2569 -0.0560  0.0150
 9894TIP3   OH251096   5.524   3.232  10.827  0.5916 -0.4740  0.5257
 9894TIP3    H151097   5.440   3.192  10.805  0.9798 -0.4741 -1.0235
 9894TIP3    H251098   5.561   3.257  10.743  0.2704  3.3367  1.4378
 9895TIP3   OH251099   5.691   2.795   2.722  0.2726 -0.5533  0.7615
 9895TIP3    H151100   5.602   2.811   2.753 -0.0134 -1.7160  0.5521
 9895TIP3    H251101   5.721   2.880   2.688 -1.3793 -0.5425 -0.7239
 9896TIP3   OH251102   4.037   1.225  11.077  0.0597  0.4560 -0.1004
 9896TIP3    H151103   3.959   1.176  11.050  0.1045  0.2792  0.0965
 9896TIP3    H251104   4.070   1.264  10.996 -0.4839  0.8906 -0.1174
 9897TIP3   OH251105   4.686   1.285  15.477  0.0429  0.6551  0.4946
 9897TIP3    H151106   4.644   1.299  15.392 -0.1846 -0.2082  0.4597
 9897TIP3    H251107   4.661   1.196  15.502  0.2202  0.8548  1.4038
 9898TIP3   OH251108   5.316   3.312   0.243  0.4890 -0.8981  0.3467
 9898TIP3    H151109   5.368   3.254   0.300  0.2771 -1.2686  0.1636
 9898TIP3    H251110   5.352   3.399   0.259 -0.5847 -0.7733  2.2274
 9899TIP3   OH251111   2.557   0.119  11.535  0.3429 -0.4376 -0.2840
 9899TIP3    H151112   2.598   0.035  11.517  4.9373  0.8643  3.2594
 9899TIP3    H251113   2.578   0.173  11.459  1.7622 -1.0296 -0.3226
 9900TIP3   OH251114   2.976   5.420  15.247  0.1391 -0.2829 -0.2956
 9900TIP3    H151115   2.915   5.351  15.219 -0.1956 -0.4864  0.9085
 9900TIP3    H251116   2.981   5.479  15.172  0.2291 -1.4807 -1.2466
 9901TIP3   OH251117   5.391   4.065  11.131  0.1399  0.0832 -0.1105
 9901TIP3    H151118   5.329   4.060  11.204 -1.3434  0.1781 -1.3274
 9901TIP3    H251119   5.477   4.053  11.172 -0.6295  0.4432  1.6839
 9902TIP3   OH251120   4.686   0.786   0.849 -0.4154  0.1573  0.0670
 9902TIP3    H151121   4.759   0.762   0.792  0.7851  3.2543  0.1990
 9902TIP3    H251122   4.611   0.795   0.790  0.3086  1.1721 -0.7080
 9903TIP3   OH251123   2.766   0.312  12.764  0.1934  0.2725  0.1989
 9903TIP3    H151124   2.841   0.262  12.794  0.7064  0.2707 -1.0661
 9903TIP3    H251125   2.717   0.251  12.708  0.8094  1.1628 -1.3290
 9904TIP3   OH251126   4.678   6.635  13.356  0.3491 -0.0500 -0.0112
 9904TIP3    H151127   4.668   6.602  13.266 -2.3429  1.4897 -0.3076
 9904TIP3    H251128   4.757   6.690  13.352 -0.2269  0.6891 -1.6448
 9905TIP3   OH251129   5.025   5.381   0.017 -0.0186 -0.3255 -0.8357
 9905TIP3    H151130   5.063   5.358  -0.068 -1.4506 -2.2107 -1.0072
 9905TIP3    H251131   4.956   5.444  -0.004  0.8393  0.6061 -0.8699
 9906TIP3   OH251132   5.293   5.261   1.021 -0.1446  0.0134 -0.2060
 9906TIP3    H151133   5.197   5.267   1.017 -0.3377 -2.1087  0.4116
 9906TIP3    H251134   5.324   5.338   0.975 -2.1868 -0.9017 -3.2873
 9907TIP3   OH251135   6.346   6.744  11.246 -0.0532  0.0113 -0.2883
 9907TIP3    H151136   6.294   6.815  11.210  0.3118  0.1053 -0.6363
 9907TIP3    H251137   6.290   6.703  11.312 -0.3805  0.4176 -0.3186
 9908TIP3   OH251138   4.360   6.034  15.318  0.3906  0.1971  0.1107
 9908TIP3    H151139   4.385   6.073  15.234  0.5174  0.2973  0.1965
 9908TIP3    H251140   4.439   6.035  15.371  0.2860  0.2276  0.2694
 9909TIP3   OH251141   4.609   1.170  12.646 -0.5662 -0.5367 -0.3544
 9909TIP3    H151142   4.595   1.264  12.647  1.2815 -0.2570 -0.1554
 9909TIP3    H251143   4.525   1.133  12.673 -0.7344  1.1210  1.4468
 9910TIP3   OH251144   6.758   4.591   0.076  0.4417  0.1166  0.5691
 9910TIP3    H151145   6.694   4.642   0.028  0.1631 -0.0206  0.7904
 9910TIP3    H251146   6.782   4.520   0.017  1.6395  1.1039 -0.1619
 9911TIP3   OH251147   1.965   4.647  12.059 -0.0303 -0.3582  0.3125
 9911TIP3    H151148   1.896   4.712  12.071  0.9811  0.9666 -0.8014
 9911TIP3    H251149   2.042   4.687  12.099  0.7235 -0.6370 -0.8443
 9912TIP3   OH251150   3.275   3.290   1.725  0.3844  0.3538  0.0485
 9912TIP3    H151151   3.296   3.363   1.667 -0.3906  0.0447 -0.6330
 9912TIP3    H251152   3.283   3.326   1.813  1.3190  0.8943 -0.2508
 9913TIP3   OH251153   4.317   2.997  14.067 -0.4385  0.1439 -0.8041
 9913TIP3    H151154   4.319   3.022  14.159 -1.9394 -0.7605 -0.5076
 9913TIP3    H251155   4.357   3.071  14.021 -2.4403  1.9675  0.2759
 9914TIP3   OH251156   3.415   1.822   4.074  0.2298 -0.4072 -0.0397
 9914TIP3    H151157   3.384   1.899   4.121  3.1308  1.2088 -0.6376
 9914TIP3    H251158   3.421   1.850   3.983 -1.0832 -2.1550 -0.7024
 9915TIP3   OH251159   3.913   2.014  16.218  0.4428 -0.0395 -0.1735
 9915TIP3    H151160   3.971   1.982  16.149  0.4216 -2.4706  0.9059
 9915TIP3    H251161   3.972   2.056  16.281  0.4808  2.0065 -1.5313
 9916TIP3   OH251162   0.099   5.871   1.629  0.2617  0.2464  0.5767
 9916TIP3    H151163   0.086   5.794   1.574 -0.1594  1.9202 -1.7527
 9916TIP3    H251164   0.012   5.907   1.641  0.7696  1.9613 -0.7651
 9917TIP3   OH251165   4.143   5.557  11.324 -0.0681  0.1032 -0.0906
 9917TIP3    H151166   4.120   5.529  11.235 -0.8033  0.3154  0.0324
 9917TIP3    H251167   4.068   5.531  11.377  0.4794 -0.2533  0.5175
 9918TIP3   OH251168   1.958   5.649   5.511 -0.2202 -0.6244  0.8473
 9918TIP3    H151169   1.930   5.648   5.602 -0.8875 -1.0012  0.6431
 9918TIP3    H251170   2.053   5.660   5.515 -0.2971 -0.2188  1.5725
 9919TIP3   OH251171   0.195   4.601   4.321 -0.4746 -0.0913 -0.0048
 9919TIP3    H151172   0.166   4.667   4.259 -0.8567  0.4045  0.6935
 9919TIP3    H251173   0.233   4.651   4.394 -2.0912 -0.5730  1.1998
 9920TIP3   OH251174   6.361   1.271   5.064 -0.3528  0.4064  0.2404
 9920TIP3    H151175   6.271   1.249   5.038 -0.5473  0.7606  0.6078
 9920TIP3    H251176   6.354   1.292   5.158  0.0843  0.5932  0.2303
 9921TIP3   OH251177   2.371   4.192   4.281  0.1131  0.0677  0.6902
 9921TIP3    H151178   2.336   4.227   4.363  0.2475 -1.5438  1.4667
 9921TIP3    H251179   2.296   4.151   4.238  0.1205  0.5857  0.1709
 9922TIP3   OH251180   5.154   4.587   2.393  0.0029  0.0028  0.3597
 9922TIP3    H151181   5.134   4.558   2.483 -3.3938  1.5197  0.1682
 9922TIP3    H251182   5.165   4.682   2.401 -0.4224  0.1534 -0.8293
 9923TIP3   OH251183   4.380   2.317   0.367 -0.1081 -0.0157 -0.1398
 9923TIP3    H151184   4.465   2.320   0.411 -0.2836  0.4692  0.1630
 9923TIP3    H251185   4.397   2.269   0.286  0.5730  0.5901 -0.3536
 9924TIP3   OH251186   2.451   2.742  15.796 -0.2955 -0.0949 -0.1270
 9924TIP3    H151187   2.396   2.711  15.724 -0.4505  1.2627 -0.6002
 9924TIP3    H251188   2.403   2.815  15.834  2.1111  2.5333 -1.9113
 9925TIP3   OH251189   0.009   2.476  13.645 -0.4991  0.4418  0.2321
 9925TIP3    H151190   0.004   2.563  13.685 -0.0090  0.5121  0.1531
 9925TIP3    H251191  -0.026   2.488  13.557 -0.1007  0.6440  0.0965
 9926TIP3   OH251192   2.947   5.975  12.458  0.0159  0.1582 -0.5737
 9926TIP3    H151193   2.953   6.069  12.442 -0.5805  0.2222 -0.4184
 9926TIP3    H251194   2.861   5.963  12.497  0.7411 -0.2436  0.9170
 9927TIP3   OH251195   3.602   3.591   2.281 -0.6494 -0.2765  0.5486
 9927TIP3    H151196   3.599   3.496   2.269 -0.5560 -0.2464  0.2708
 9927TIP3    H251197   3.695   3.613   2.274 -0.7535 -0.0615 -0.2431
 9928TIP3   OH251198   5.807   2.189   6.385  0.0653  0.6614  0.3127
 9928TIP3    H151199   5.729   2.215   6.335  0.9252  1.4458 -0.6359
 9928TIP3    H251200   5.819   2.260   6.448 -0.1934  0.3595  0.7062
 9929TIP3   OH251201   3.660   1.209  15.684 -0.2171 -0.9115 -0.2524
 9929TIP3    H151202   3.655   1.114  15.671  2.6035 -1.0951 -0.2786
 9929TIP3    H251203   3.744   1.233  15.646 -1.1420  1.7027 -0.6994
 9930TIP3   OH251204   5.632   2.747  11.918 -0.0069  0.0664  0.0520
 9930TIP3    H151205   5.706   2.722  11.973 -0.2527  1.2618  0.9406
 9930TIP3    H251206   5.593   2.664  11.892 -0.0319 -0.5133  1.8886
 9931TIP3   OH251207   0.645   5.325  14.607  0.7264 -0.4695 -0.5208
 9931TIP3    H151208   0.616   5.399  14.555 -1.6784  0.5547  2.1639
 9931TIP3    H251209   0.609   5.248  14.562 -0.5835  0.3225 -0.8292
 9932TIP3   OH251210   4.813   4.220   1.689  0.0553  0.2368 -0.4621
 9932TIP3    H151211   4.818   4.133   1.650 -0.2596 -1.0050  2.1237
 9932TIP3    H251212   4.723   4.249   1.671  0.3784  0.3181 -1.9278
 9933TIP3   OH251213   0.603   1.115   2.862 -0.1245  0.3195  0.1942
 9933TIP3    H151214   0.573   1.111   2.771 -2.4709  0.9499  0.9022
 9933TIP3    H251215   0.536   1.167   2.907  0.9051 -0.1430  2.3150
 9934TIP3   OH251216   3.361   4.375   0.933  0.0288 -0.0703 -0.4633
 9934TIP3    H151217   3.349   4.412   0.845 -0.2535  0.5765 -0.1590
 9934TIP3    H251218   3.340   4.448   0.992 -0.9500 -0.8536  0.1579
 9935TIP3   OH251219   4.854   4.131   0.762  0.1264 -0.4035  0.1773
 9935TIP3    H151220   4.858   4.180   0.845  0.6210  1.3533 -0.8455
 9935TIP3    H251221   4.921   4.173   0.707 -0.5679 -1.1924 -1.2900
 9936TIP3   OH251222   1.093   1.622  15.859 -0.0560  0.0846 -0.2933
 9936TIP3    H151223   1.168   1.677  15.883 -1.3528  1.2853  1.0890
 9936TIP3    H251224   1.120   1.580  15.777  1.7679  1.1869 -0.3008
 9937TIP3   OH251225   6.272   3.138   1.488 -0.3611  0.3146  0.2218
 9937TIP3    H151226   6.314   3.168   1.408  0.4661 -1.1651  0.0839
 9937TIP3    H251227   6.317   3.056   1.510 -2.4608 -0.7712  0.6356
 9938TIP3   OH251228   2.610   0.125   0.582 -0.0934 -0.0571 -0.0616
 9938TIP3    H151229   2.592   0.110   0.674  0.9600 -0.0811  0.1471
 9938TIP3    H251230   2.570   0.050   0.537  1.6556 -1.4294  0.6193
 9939TIP3   OH251231   4.763   6.578  14.886  0.1715 -0.5798  0.1341
 9939TIP3    H151232   4.789   6.535  14.805  4.4635  1.6580  0.1828
 9939TIP3    H251233   4.691   6.636  14.861  2.4412  1.2175 -2.4718
 9940TIP3   OH251234   3.724   0.310  15.407 -0.1939 -0.5134  0.0778
 9940TIP3    H151235   3.718   0.310  15.502 -0.4904 -1.7454  0.0691
 9940TIP3    H251236   3.641   0.348  15.378  0.9804  2.3556  0.3394
 9941TIP3   OH251237   0.969   4.627   2.886  0.1413 -0.8840  0.3604
 9941TIP3    H151238   1.064   4.630   2.874  0.1715 -0.0057  0.8022
 9941TIP3    H251239   0.935   4.689   2.821 -0.1720 -1.5510 -0.1261
 9942TIP3   OH251240   1.905   4.371  13.046 -0.0699  0.3020  0.8108
 9942TIP3    H151241   1.856   4.372  13.129 -1.8934  1.6182 -0.2346
 9942TIP3    H251242   1.880   4.453  13.003  1.6325  0.0994 -0.6052
 9943TIP3   OH251243   5.681   4.328   3.762  0.8564 -0.0733 -0.4607
 9943TIP3    H151244   5.724   4.376   3.690  0.5485  1.1509  0.1522
 9943TIP3    H251245   5.588   4.346   3.750  0.4736 -2.8134 -1.8500
 9944TIP3   OH251246   4.535   2.070   0.910  0.3252  1.0473  0.0204
 9944TIP3    H151247   4.556   1.981   0.882  1.9501  1.8716 -1.5132
 9944TIP3    H251248   4.613   2.099   0.957  0.3191  2.0909 -0.6016
 9945TIP3   OH251249   2.101   4.271  12.869 -0.6128  0.1248 -0.0182
 9945TIP3    H151250   2.025   4.299  12.920  0.2771  1.0488  0.8304
 9945TIP3    H251251   2.155   4.350  12.862  1.0178 -0.9118  0.7501
 9946TIP3   OH251252   3.389   0.607   1.031  1.0366 -0.4429 -0.5687
 9946TIP3    H151253   3.405   0.526   1.081  0.9194 -0.2227 -0.1675
 9946TIP3    H251254   3.371   0.673   1.098 -0.2639 -0.3963 -0.9486
 9947TIP3   OH251255   6.152   6.255   4.222  0.8198 -0.3272  0.0560
 9947TIP3    H151256   6.149   6.163   4.195  2.8001 -1.1341  2.3310
 9947TIP3    H251257   6.080   6.264   4.285  0.8563 -0.4358  0.1138
 9948TIP3   OH251258   5.431   5.783   4.632  0.5154 -0.0872 -0.4905
 9948TIP3    H151259   5.468   5.793   4.544 -0.5620 -1.0883 -1.0801
 9948TIP3    H251260   5.368   5.711   4.623 -0.8065  0.8981  0.7215
 9949TIP3   OH251261   2.412   1.483  16.917  0.0068  0.0334 -0.0594
 9949TIP3    H151262   2.372   1.545  16.978 -0.5368 -0.0954 -0.2866
 9949TIP3    H251263   2.501   1.516  16.905 -0.2697  0.7566 -0.1565
 9950TIP3   OH251264   4.683   5.881   4.254 -0.5530  0.6767  0.2676
 9950TIP3    H151265   4.768   5.888   4.296 -0.7163  2.5418  0.3064
 9950TIP3    H251266   4.621   5.912   4.320 -1.2761 -0.6786  0.2405
 9951TIP3   OH251267   2.244   3.770   4.471 -0.0138 -0.2865 -0.0695
 9951TIP3    H151268   2.291   3.804   4.395 -0.5776 -0.7499 -0.6313
 9951TIP3    H251269   2.208   3.687   4.442  0.4633 -0.8667  0.9731
 9952TIP3   OH251270   3.137   3.448  10.995  0.3526 -0.8829  0.3207
 9952TIP3    H151271   3.084   3.496  11.059  0.3101 -1.0763  0.4317
 9952TIP3    H251272   3.107   3.480  10.910 -0.7061 -1.7746  0.3458
 9953TIP3   OH251273   2.022   6.152   1.417  0.0162  0.4730  0.2832
 9953TIP3    H151274   1.975   6.106   1.486 -1.6722  0.2225 -1.0069
 9953TIP3    H251275   1.957   6.165   1.348  1.1685  2.4034 -0.4890
 9954TIP3   OH251276   3.050   1.372   1.406  0.1520 -0.0785  0.4353
 9954TIP3    H151277   2.973   1.429   1.408 -1.3522 -1.9882 -1.4064
 9954TIP3    H251278   3.122   1.430   1.383 -0.6433  1.7875  2.4286
 9955TIP3   OH251279   4.210   6.243   4.784  1.1159 -0.0239  0.0757
 9955TIP3    H151280   4.198   6.152   4.759  0.0345 -0.2582  1.4472
 9955TIP3    H251281   4.134   6.264   4.838  0.7799  2.0253 -1.1413
 9956TIP3   OH251282   0.409   4.823   2.158  0.1761 -0.5369  0.1512
 9956TIP3    H151283   0.430   4.730   2.170 -0.5221 -0.6976  0.1278
 9956TIP3    H251284   0.336   4.839   2.218 -2.2216 -0.9206 -2.5447
 9957TIP3   OH251285   2.698   6.432   4.158 -0.3364 -0.4467 -0.1275
 9957TIP3    H151286   2.642   6.354   4.155 -2.2251  0.9091 -1.2851
 9957TIP3    H251287   2.726   6.438   4.249 -1.8388 -1.3286  0.4133
 9958TIP3   OH251288   3.584   5.349  16.941 -1.2869  0.2294  0.2750
 9958TIP3    H151289   3.534   5.287  16.994 -3.6383  0.6683 -1.3313
 9958TIP3    H251290   3.641   5.294  16.887 -0.7327 -0.3278  1.4194
 9959TIP3   OH251291   5.910   4.480  12.414 -0.2618 -0.6340  0.4910
 9959TIP3    H151292   5.885   4.449  12.327 -1.0434 -1.5497  1.0386
 9959TIP3    H251293   5.902   4.404  12.470  1.4040 -0.3413  1.1522
 9960TIP3   OH251294   2.628   3.533  17.215  0.1125  0.3683  0.3816
 9960TIP3    H151295   2.659   3.610  17.167 -1.0278  0.4915 -0.1711
 9960TIP3    H251296   2.535   3.549  17.229  0.5242  0.6227  3.2063
 9961TIP3   OH251297   6.042   4.000   4.878 -0.0515  0.0783  0.5464
 9961TIP3    H151298   5.957   3.995   4.835 -0.5668  0.0587  1.5597
 9961TIP3    H251299   6.105   4.003   4.806 -0.8475 -0.8927 -0.2079
 9962TIP3   OH251300   1.066   4.577  15.671  0.6466 -0.2516  0.3925
 9962TIP3    H151301   1.091   4.547  15.759 -2.3224 -2.2192  0.6485
 9962TIP3    H251302   1.054   4.496  15.621 -0.9847  0.7425 -0.8626
 9963TIP3   OH251303   1.071   2.385   1.750  0.3970  0.0590  0.2031
 9963TIP3    H151304   1.153   2.430   1.772  1.1350  0.2117 -2.7305
 9963TIP3    H251305   1.030   2.369   1.835  2.3754  2.0216  1.6041
 9964TIP3   OH251306   1.445   5.142  13.259 -0.4340  0.6207  0.0734
 9964TIP3    H151307   1.461   5.201  13.185  2.1070 -0.3536 -0.2084
 9964TIP3    H251308   1.451   5.198  13.336 -0.3864  1.1586 -0.3133
 9965TIP3   OH251309   4.980   3.983  13.401 -0.3200 -0.4784  0.1543
 9965TIP3    H151310   4.982   3.990  13.305  2.0772 -1.2183  0.1206
 9965TIP3    H251311   4.928   3.905  13.418  1.0741 -1.6112 -0.6480
 9966TIP3   OH251312   1.095   3.056  13.304  0.1644  0.5478  0.0209
 9966TIP3    H151313   1.108   3.098  13.389  1.7402  0.5390 -0.2076
 9966TIP3    H251314   1.070   2.966  13.326 -0.5536  0.8503  0.4791
 9967TIP3   OH251315   1.023   0.851  15.642 -0.3028 -0.1786  0.0617
 9967TIP3    H151316   1.065   0.892  15.566  0.3963 -3.0821 -1.1802
 9967TIP3    H251317   1.086   0.862  15.713  0.3608 -0.0716 -0.5359
 9968TIP3   OH251318   0.477   0.120   2.379 -0.2931  0.0043 -0.1172
 9968TIP3    H151319   0.504   0.113   2.470 -3.1698 -1.2253  0.7126
 9968TIP3    H251320   0.517   0.045   2.335  2.0366  1.2307 -0.1677
 9969TIP3   OH251321   5.543   0.454   4.915 -0.5031  0.2034 -0.1889
 9969TIP3    H151322   5.528   0.394   4.988  0.0418 -0.6894 -0.8039
 9969TIP3    H251323   5.477   0.430   4.850 -1.7278  1.7460  0.4529
 9970TIP3   OH251324   3.477   2.682   1.271 -0.1551 -0.0921  0.0138
 9970TIP3    H151325   3.566   2.659   1.297 -0.4687 -0.1204  1.0978
 9970TIP3    H251326   3.454   2.754   1.330 -1.2980 -0.9182  0.5887
 9971TIP3   OH251327   2.413   1.733  12.494  0.2541  0.1060 -0.2508
 9971TIP3    H151328   2.409   1.813  12.546  1.4689 -0.1896  0.3085
 9971TIP3    H251329   2.324   1.721  12.462  0.1246  1.8764 -0.6380
 9972TIP3   OH251330   4.989   0.529  16.130  0.6370 -0.2015 -0.4291
 9972TIP3    H151331   5.036   0.605  16.095  0.0464  0.5105  0.2942
 9972TIP3    H251332   4.952   0.561  16.213 -0.4535 -0.9917 -0.6164
 9973TIP3   OH251333   0.169   0.402   4.600  0.4322 -0.1286 -0.0159
 9973TIP3    H151334   0.132   0.479   4.643  0.3764 -0.0101 -0.2758
 9973TIP3    H251335   0.185   0.340   4.671 -2.7152 -1.2040 -0.1540
 9974TIP3   OH251336   3.640   5.517  15.578  0.1717 -0.4042 -0.0677
 9974TIP3    H151337   3.730   5.485  15.583 -0.6229 -2.3937  3.4409
 9974TIP3    H251338   3.625   5.561  15.662 -1.7352  1.0281 -1.1179
 9975TIP3   OH251339   1.880   0.376  11.255 -0.2512  0.0559  0.0902
 9975TIP3    H151340   1.929   0.458  11.265  1.9026 -1.1956  0.1561
 9975TIP3    H251341   1.819   0.375  11.329  1.2548  0.5590  1.3600
 9976TIP3   OH251342   4.072   6.637  12.322  0.6951 -0.7679 -0.3310
 9976TIP3    H151343   4.156   6.634  12.276  0.3069 -0.9843 -1.0227
 9976TIP3    H251344   4.015   6.577  12.273 -0.1311  0.0489 -0.3892
 9977TIP3   OH251345   0.826   1.939  13.341  0.1183  0.2175  0.2166
 9977TIP3    H151346   0.832   1.845  13.362  1.7982  0.2406 -0.0416
 9977TIP3    H251347   0.863   1.945  13.253 -0.2193  1.1022  0.1379
 9978TIP3   OH251348   5.790   4.974  13.352 -0.1418 -0.4241 -0.4240
 9978TIP3    H151349   5.811   4.888  13.316 -1.4388 -0.5777 -0.8201
 9978TIP3    H251350   5.864   4.994  13.410  0.6647 -1.3435 -1.1175
 9979TIP3   OH251351   4.935   6.143  15.534  0.1837  0.9782 -0.4311
 9979TIP3    H151352   4.988   6.200  15.478 -1.0299  2.0743 -0.4918
 9979TIP3    H251353   4.872   6.202  15.575 -1.4850 -0.4186 -0.9474
 9980TIP3   OH251354   2.714   6.477  12.449  0.3271  0.0793  0.6172
 9980TIP3    H151355   2.691   6.415  12.380  0.6847 -0.9676  1.4325
 9980TIP3    H251356   2.699   6.429  12.531  0.8077  0.9955  1.2541
 9981TIP3   OH251357   1.314   6.264   5.481 -0.0873  0.6279 -0.1404
 9981TIP3    H151358   1.388   6.293   5.427  0.6527 -0.3735  0.3197
 9981TIP3    H251359   1.326   6.308   5.565  0.8345 -0.6779  0.4359
 9982TIP3   OH251360   4.154   4.958  15.076 -0.0116  0.1299  0.4998
 9982TIP3    H151361   4.208   5.007  15.139 -0.8000  0.4551  0.9275
 9982TIP3    H251362   4.204   4.959  14.995  0.1778  1.2737  0.6272
 9983TIP3   OH251363   5.807   2.091   1.658 -0.0766 -0.1990  0.6654
 9983TIP3    H151364   5.756   2.124   1.584  1.2842 -0.0031 -0.2059
 9983TIP3    H251365   5.873   2.034   1.618 -1.5313 -2.9504  2.0258
 9984TIP3   OH251366   0.891   5.136  12.938  0.3185 -0.4509  0.1070
 9984TIP3    H151367   0.872   5.075  13.009  3.2754 -1.1485  0.3642
 9984TIP3    H251368   0.973   5.178  12.963  0.2287  0.9713 -1.8245
 9985TIP3   OH251369   4.552   5.496   1.875 -1.2894  0.2570  0.5646
 9985TIP3    H151370   4.593   5.554   1.939  1.3154 -0.4363 -0.4198
 9985TIP3    H251371   4.499   5.555   1.821 -2.0184  1.0998  2.1545
 9986TIP3   OH251372   5.570   3.307   1.642  0.4248  0.0701  0.5473
 9986TIP3    H151373   5.664   3.319   1.656  0.3008  0.8598  0.6967
 9986TIP3    H251374   5.560   3.312   1.547  0.4367  0.6551  0.5789
 9987TIP3   OH251375   3.674   1.654  13.376 -0.2982  0.6398  0.5068
 9987TIP3    H151376   3.619   1.579  13.397 -1.2958  0.8192 -1.3860
 9987TIP3    H251377   3.743   1.619  13.319  0.0050  0.9102  0.7041
 9988TIP3   OH251378   2.071   1.179  15.021 -0.2352  0.1664 -0.0097
 9988TIP3    H151379   2.030   1.248  14.968 -0.9988 -0.0926  0.2269
 9988TIP3    H251380   2.062   1.209  15.111 -0.5115 -0.1980  0.0900
 9989TIP3   OH251381   0.164   2.536  12.382  0.8123 -0.1115 -0.0520
 9989TIP3    H151382   0.078   2.500  12.406  0.2224 -0.1690 -2.1248
 9989TIP3    H251383   0.176   2.610  12.441 -0.8509  0.1366  0.0091
 9990TIP3   OH251384   3.072   4.804   1.283 -0.0078  0.3474 -0.2571
 9990TIP3    H151385   3.125   4.874   1.320 -0.5428 -0.2834  1.7575
 9990TIP3    H251386   3.046   4.836   1.196  0.2262  2.3722  0.4063
 9991TIP3   OH251387   0.294   0.319   4.873 -0.1885  0.6663 -0.4055
 9991TIP3    H151388   0.379   0.277   4.888 -0.8042  0.0867  1.6202
 9991TIP3    H251389   0.231   0.257   4.909 -1.3228  2.0239 -0.0341
 9992TIP3   OH251390   0.686   1.669  12.385 -0.6364 -0.4458  0.0264
 9992TIP3    H151391   0.728   1.697  12.467  1.8128  2.1631 -2.0119
 9992TIP3    H251392   0.734   1.591  12.358 -0.3149 -0.3032  0.1869
 9993TIP3   OH251393   0.070   0.805   5.604  0.1499  0.1558  0.9881
 9993TIP3    H151394  -0.018   0.835   5.625  0.1188  0.1426  0.8768
 9993TIP3    H251395   0.094   0.747   5.676 -0.0274 -0.0330  0.8952
 9994TIP3   OH251396   0.879   3.620  15.534 -0.2791 -0.2707  0.1044
 9994TIP3    H151397   0.868   3.616  15.629 -0.9963  1.9545  0.1378
 9994TIP3    H251398   0.843   3.537  15.502 -0.4856 -0.8113  1.7241
 9995TIP3   OH251399   4.386   4.920   1.915 -0.2169  0.3931 -0.6211
 9995TIP3    H151400   4.312   4.902   1.858  0.9453  0.7187 -2.2650
 9995TIP3    H251401   4.463   4.911   1.858  1.0744 -0.8032  1.2371
 9996TIP3   OH251402   3.974   4.165   4.146  0.4865  0.7343 -0.0019
 9996TIP3    H151403   3.980   4.177   4.051 -0.8033 -1.6777 -0.4304
 9996TIP3    H251404   3.906   4.227   4.174  0.0909  0.6704 -0.8163
 9997TIP3   OH251405   6.499   1.245  15.911  0.0733  0.1523  0.2901
 9997TIP3    H151406   6.516   1.339  15.920  1.8682  0.0850 -1.9892
 9997TIP3    H251407   6.549   1.205  15.983  1.1453  0.7832 -0.0873
 9998TIP3   OH251408   4.926   5.149  12.320 -0.0810  0.6785 -0.1558
 9998TIP3    H151409   4.967   5.076  12.273 -1.4599  0.9347 -1.8288
 9998TIP3    H251410   4.859   5.108  12.375 -0.4995  0.6304 -0.6973
 9999TIP3   OH251411   6.688   6.334   2.957  0.1395  0.5806 -0.4068
 9999TIP3    H151412   6.771   6.376   2.982  0.6443 -1.2058  1.0286
 9999TIP3    H251413   6.634   6.339   3.035 -2.0184  3.7203 -1.9852
10000TIP3   OH251414   0.005   1.007  12.319 -0.2701 -0.1819  0.6275
10000TIP3    H151415  -0.008   1.094  12.280 -1.8778 -1.2767 -1.4000
10000TIP3    H251416   0.098   0.987  12.302 -0.1298  0.7415  0.2627
10001TIP3   OH251417   4.261   1.686  15.020  0.3018  0.3135  0.7206
10001TIP3    H151418   4.263   1.594  15.047  0.0045 -0.0866 -0.5865
10001TIP3    H251419   4.307   1.687  14.936 -0.7339  1.1656  0.1582
10002TIP3   OH251420   5.286   3.152  13.526  0.1741  0.6131 -1.0640
10002TIP3    H151421   5.328   3.233  13.497  0.0755  1.0099 -0.0891
10002TIP3    H251422   5.287   3.156  13.621 -1.9904  0.5924 -1.0009
10003TIP3   OH251423   2.268   0.154   3.205 -0.0860  0.3399  0.5931
10003TIP3    H151424   2.326   0.145   3.281 -1.4135 -0.3819  1.5515
10003TIP3    H251425   2.319   0.205   3.142  0.6248  1.9202  2.3988
10004TIP3   OH251426   5.129   1.264   6.268 -0.5986  0.4376 -0.1511
10004TIP3    H151427   5.148   1.222   6.352 -0.6552 -0.9188 -0.8035
10004TIP3    H251428   5.034   1.279   6.270 -0.5350  0.7856  0.1999
10005TIP3   OH251429   3.609   5.208  13.327 -0.0673 -0.3530  0.3643
10005TIP3    H151430   3.582   5.203  13.236 -0.8619  0.4622  0.5479
10005TIP3    H251431   3.612   5.117  13.357  1.3596 -0.7058 -0.8018
10006TIP3   OH251432   2.142   0.962  12.670 -0.0495  0.0054 -0.0932
10006TIP3    H151433   2.057   0.922  12.647 -0.3110  1.2892 -1.4875
10006TIP3    H251434   2.207   0.899  12.640 -0.4964 -0.4385 -0.1309
10007TIP3   OH251435   5.280   3.237   2.277  0.6380  0.1386 -0.3148
10007TIP3    H151436   5.196   3.271   2.305  0.2466 -0.9564 -0.1261
10007TIP3    H251437   5.313   3.301   2.213  0.5601  1.5504  1.0470
10008TIP3   OH251438   0.773   3.734   0.141 -0.2612  0.1247 -0.4762
10008TIP3    H151439   0.718   3.722   0.218  1.1436 -3.9440  0.0636
10008TIP3    H251440   0.854   3.772   0.176 -0.3149  0.0043 -0.2154
10009TIP3   OH251441   6.305   1.163   5.787 -0.1586  0.2103 -0.2902
10009TIP3    H151442   6.211   1.180   5.790 -0.3038 -0.4699 -0.7511
10009TIP3    H251443   6.346   1.248   5.801 -0.8444  0.4122  0.4959
10010TIP3   OH251444   0.091   3.826   0.299  0.1796 -0.1991  0.1588
10010TIP3    H151445   0.074   3.817   0.393  1.2232 -0.2055  0.3589
10010TIP3    H251446   0.007   3.811   0.257 -0.2492 -0.4038  1.0870
10011TIP3   OH251447   5.202   1.903   4.400 -0.4272 -0.3900  0.1416
10011TIP3    H151448   5.152   1.838   4.351 -0.4879 -0.5890  0.4636
10011TIP3    H251449   5.136   1.963   4.435 -0.3093  0.2973 -0.8095
10012TIP3   OH251450   5.748   0.327   0.226 -0.2808 -0.0350 -0.0911
10012TIP3    H151451   5.785   0.378   0.154 -0.6963  1.2206  0.5743
10012TIP3    H251452   5.706   0.253   0.183 -0.6727  0.7956 -1.1624
10013TIP3   OH251453   2.256   1.280  12.585 -0.5937  0.1465  0.0894
10013TIP3    H151454   2.265   1.371  12.615 -0.9649 -0.1691  1.1768
10013TIP3    H251455   2.208   1.236  12.655 -2.4037 -0.3738 -1.4167
10014TIP3   OH251456   1.046   5.518   2.851  0.5549  0.0531 -0.4480
10014TIP3    H151457   1.018   5.469   2.928  0.0783  1.2705  0.1676
10014TIP3    H251458   0.993   5.598   2.852  0.2738 -0.0859 -2.2557
10015TIP3   OH251459   4.467   4.319  12.031  0.3861  0.4789 -0.4983
10015TIP3    H151460   4.507   4.365  11.957 -0.1083  0.4086 -0.8034
10015TIP3    H251461   4.513   4.354  12.107 -0.3241  1.8394 -0.6857
10016TIP3   OH251462   2.598   2.465  16.265 -0.5290 -0.4817  0.0344
10016TIP3    H151463   2.552   2.504  16.190  0.8948 -0.7556 -1.0097
10016TIP3    H251464   2.615   2.375  16.238 -2.1217 -1.3043  1.6797
10017TIP3   OH251465   1.442   5.468  11.140 -0.2244  0.1549  0.2177
10017TIP3    H151466   1.506   5.468  11.211 -1.5183 -1.5863  1.4043
10017TIP3    H251467   1.393   5.549  11.151 -0.7201 -0.3237  1.5958
10018TIP3   OH251468   2.020   1.926  11.459 -0.1073  0.3493 -0.0427
10018TIP3    H151469   2.068   1.937  11.540  0.2918  1.2753 -0.3937
10018TIP3    H251470   1.976   2.011  11.445 -0.5688  0.0371 -0.5305
10019TIP3   OH251471   6.632   0.071   6.059 -0.0816  0.5793 -0.1436
10019TIP3    H151472   6.571   0.006   6.092  1.5400 -1.0161 -0.1906
10019TIP3    H251473   6.666   0.114   6.137  1.4574 -1.0808  0.1456
10020TIP3   OH251474   1.456   6.762  17.216 -0.6438 -0.0494 -0.3627
10020TIP3    H151475   1.463   6.688  17.277 -1.1779 -0.0310 -0.2806
10020TIP3    H251476   1.387   6.736  17.155 -1.1535  0.5782 -0.0595
10021TIP3   OH251477   2.635   4.024   3.754 -0.1019  0.0930 -0.2401
10021TIP3    H151478   2.649   4.113   3.786  0.4225  0.2087 -0.7796
10021TIP3    H251479   2.650   4.030   3.660  1.3687 -0.8525 -0.0808
10022TIP3   OH251480   2.226   5.968   1.401 -0.2589  0.8529 -0.5434
10022TIP3    H151481   2.278   6.014   1.335  1.4039  1.2698  1.0353
10022TIP3    H251482   2.154   6.028   1.420 -0.2768  1.0983 -1.3413
10023TIP3   OH251483   6.119   3.144  15.773 -0.1128  0.1549 -0.0131
10023TIP3    H151484   6.043   3.131  15.717  0.1126  0.3527 -0.3643
10023TIP3    H251485   6.083   3.156  15.860 -0.4247 -1.0285  0.0286
10024TIP3   OH251486   2.292   4.035  13.997 -0.0850 -0.1546 -0.1870
10024TIP3    H151487   2.266   3.943  13.995 -0.0009 -0.2244  1.2496
10024TIP3    H251488   2.350   4.042  14.073 -1.8726  1.5324  1.0657
10025TIP3   OH251489   2.052   3.856  12.680  0.6700 -0.5945  0.7161
10025TIP3    H151490   2.059   3.866  12.585  1.0920 -3.6672  0.3801
10025TIP3    H251491   1.969   3.811  12.693  0.0699  0.7975  1.9303
10026TIP3   OH251492   2.043   3.901  15.049  0.4543 -0.1349 -0.5164
10026TIP3    H151493   2.026   3.812  15.019  0.5033 -0.0828 -0.7014
10026TIP3    H251494   2.116   3.892  15.110  1.4061 -0.0515 -1.6167
10027TIP3   OH251495   6.567   4.383   2.144  0.3213 -0.5067  0.0173
10027TIP3    H151496   6.587   4.384   2.237  0.6590 -1.3957 -0.0436
10027TIP3    H251497   6.650   4.360   2.102 -0.1701 -1.5433 -0.4048
10028TIP3   OH251498   5.411   4.814  15.643  0.0150 -0.3415  0.2102
10028TIP3    H151499   5.492   4.863  15.633  0.8597 -1.4584  1.3168
10028TIP3    H251500   5.347   4.879  15.672  0.8517  0.2946  0.6546
10029TIP3   OH251501   6.492   0.950  10.314 -0.5116 -0.3301  0.4586
10029TIP3    H151502   6.466   0.900  10.391  0.2552 -0.2996  0.7346
10029TIP3    H251503   6.438   0.914  10.243 -0.9583 -0.5994  0.9352
10030TIP3   OH251504   1.473   4.867   5.929 -0.1457 -0.1588  0.7704
10030TIP3    H151505   1.437   4.810   5.998  0.7036 -1.1728  0.3914
10030TIP3    H251506   1.396   4.897   5.881 -0.8324  1.2553  2.6644
10031TIP3   OH251507   1.488   3.405   2.930 -0.1534 -0.4738  0.2029
10031TIP3    H151508   1.402   3.381   2.894  0.1743 -0.6813 -0.4333
10031TIP3    H251509   1.545   3.331   2.910  0.3096 -0.1123  0.1729
10032TIP3   OH251510   0.414   6.769  15.007  0.0449 -0.2020  0.0917
10032TIP3    H151511   0.485   6.728  14.958 -1.1071 -1.4366 -0.5998
10032TIP3    H251512   0.415   6.725  15.092 -0.5084 -0.9160 -0.2679
10033TIP3   OH251513   1.468   1.664   1.378 -0.2412  0.0358  0.4643
10033TIP3    H151514   1.486   1.594   1.316 -0.3937  1.5970 -1.3746
10033TIP3    H251515   1.393   1.632   1.429  1.9334 -2.6694  2.1474
10034TIP3   OH251516   6.574   1.052  13.178  0.7103  0.1421 -0.1782
10034TIP3    H151517   6.488   1.074  13.143  0.2861 -0.1200  0.6974
10034TIP3    H251518   6.630   1.043  13.101  0.0612  0.7627 -0.7222
10035TIP3   OH251519   1.864   4.577  14.730 -0.1983  0.3450  0.0935
10035TIP3    H151520   1.781   4.537  14.753 -0.0660  0.6067  1.0462
10035TIP3    H251521   1.869   4.655  14.785  1.7276 -0.8893  1.7312
10036TIP3   OH251522   1.997   1.308   1.454 -0.6217  0.2044 -0.3084
10036TIP3    H151523   1.995   1.341   1.544 -0.2425 -1.0749  0.1769
10036TIP3    H251524   2.055   1.369   1.408 -2.2569  1.9458 -0.1445
10037TIP3   OH251525   3.082   4.356   2.997 -0.0313  0.1642 -0.1836
10037TIP3    H151526   3.135   4.414   2.941 -0.2119  0.5852  0.0862
10037TIP3    H251527   3.042   4.414   3.061  0.1367 -0.3191  0.3593
10038TIP3   OH251528   3.582   0.391  14.943 -0.2275 -0.1955 -0.7164
10038TIP3    H151529   3.570   0.299  14.963 -1.4500  0.2520  0.7504
10038TIP3    H251530   3.672   0.411  14.969  0.1165 -1.0355 -1.2801
10039TIP3   OH251531   4.447   1.986   6.109  0.6443 -0.2798 -0.7328
10039TIP3    H151532   4.358   1.955   6.090  0.8038 -0.9153 -0.4284
10039TIP3    H251533   4.495   1.908   6.137  1.2759  0.0801 -0.8019
10040TIP3   OH251534   3.804   6.235  17.152  0.2487  0.2337  0.4282
10040TIP3    H151535   3.734   6.193  17.101  1.1827  1.5875 -2.0936
10040TIP3    H251536   3.846   6.163  17.199 -2.5933 -0.6373  1.7135
10041TIP3   OH251537   5.101   5.321  13.026  0.6355 -0.2331  0.8103
10041TIP3    H151538   5.187   5.307  13.066 -0.5946 -3.2606  2.5715
10041TIP3    H251539   5.057   5.236  13.033 -2.1984  1.0207 -0.8345
10042TIP3   OH251540   0.494   4.834  12.090  0.2678  0.6695 -0.1813
10042TIP3    H151541   0.579   4.834  12.133  1.4553 -0.5402 -2.4370
10042TIP3    H251542   0.456   4.919  12.111  2.0773  1.2814  0.7145
10043TIP3   OH251543   4.551   4.717   5.413  0.6131 -0.5725  0.4269
10043TIP3    H151544   4.585   4.656   5.478  1.0855 -1.7279 -0.8949
10043TIP3    H251545   4.561   4.803   5.454  1.9412 -1.1866  1.4247
10044TIP3   OH251546   0.603   3.457  12.744 -0.0997 -0.4623  0.2831
10044TIP3    H151547   0.605   3.552  12.741 -0.1076 -0.4900 -0.7791
10044TIP3    H251548   0.535   3.436  12.808  0.0164  0.2410  0.6362
10045TIP3   OH251549   5.722   0.920  14.382 -0.3299 -0.0895 -0.2973
10045TIP3    H151550   5.649   0.972  14.349  0.7434  0.7053 -1.4790
10045TIP3    H251551   5.787   0.986  14.408  0.9609 -0.8223 -1.6096
10046TIP3   OH251552   3.417   4.894  11.315 -0.0724 -0.6085  0.8207
10046TIP3    H151553   3.399   4.804  11.286  0.7546 -0.5001 -0.0311
10046TIP3    H251554   3.351   4.910  11.382 -1.4407 -1.1709 -0.3627
10047TIP3   OH251555   2.379   1.939   3.231  0.2142  0.1384 -0.4307
10047TIP3    H151556   2.331   1.988   3.165 -0.3258  0.8772  0.4958
10047TIP3    H251557   2.466   1.980   3.233  0.4151 -0.2445 -1.0603
10048TIP3   OH251558   1.928   4.950  17.052 -0.1602  0.0094 -0.1675
10048TIP3    H151559   1.970   5.031  17.025 -1.3483 -0.0690 -2.3436
10048TIP3    H251560   1.846   4.979  17.093  0.1548 -0.0325  0.5045
10049TIP3   OH251561   5.686   3.269   2.995  0.3468 -0.0139 -0.2047
10049TIP3    H151562   5.677   3.305   2.907 -0.6514  1.4876  0.4935
10049TIP3    H251563   5.611   3.305   3.044  1.1148 -0.4946  1.3638
10050TIP3   OH251564   5.291   1.129  13.125 -0.3196  0.0377 -0.3341
10050TIP3    H151565   5.230   1.074  13.174  0.8613 -0.9079  0.1178
10050TIP3    H251566   5.347   1.167  13.192 -0.6835  1.2378 -0.7095
10051TIP3   OH251567   6.269   0.169  10.501 -0.3186 -0.4170  0.2294
10051TIP3    H151568   6.296   0.081  10.526 -0.8234 -0.0378  2.1666
10051TIP3    H251569   6.287   0.222  10.578 -0.0594  1.1858 -0.9058
10052TIP3   OH251570   6.629   2.117   0.282  0.0654  0.0020  0.2286
10052TIP3    H151571   6.700   2.146   0.225 -1.4136  1.7161 -0.8007
10052TIP3    H251572   6.656   2.030   0.312  1.4075 -0.4417 -2.1650
10053TIP3   OH251573   5.006   2.248   2.777  0.1141 -0.8024 -0.0926
10053TIP3    H151574   5.006   2.330   2.728 -0.4097 -0.4839  0.4368
10053TIP3    H251575   5.011   2.180   2.710  1.8769 -0.3119 -0.4953
10054TIP3   OH251576   3.225   0.039   1.622  0.5123 -0.3378 -0.1949
10054TIP3    H151577   3.254  -0.043   1.662 -1.9813 -0.1396  2.1760
10054TIP3    H251578   3.280   0.106   1.660 -0.6431 -0.3747  1.6067
10055TIP3   OH251579   2.447   4.884  13.065  0.3737 -0.1284  0.0809
10055TIP3    H151580   2.378   4.931  13.017  0.9770 -1.0220 -1.7270
10055TIP3    H251581   2.495   4.953  13.112  0.1625  0.8690 -1.1305
10056TIP3   OH251582   4.291   0.109  15.774  0.0530  0.3503  0.0171
10056TIP3    H151583   4.238   0.170  15.723  1.8470  1.1646 -0.9144
10056TIP3    H251584   4.303   0.151  15.859 -0.2304  0.4684 -0.0028
10057TIP3   OH251585   1.025   1.931  13.136  0.2742 -0.0565  0.1833
10057TIP3    H151586   1.043   1.994  13.066 -0.5383  0.8763  0.7930
10057TIP3    H251587   1.096   1.867  13.131  0.7221  0.5242 -0.8962
10058TIP3   OH251588   3.161   4.334   4.512  0.4567 -0.0750  0.0616
10058TIP3    H151589   3.112   4.414   4.532  1.2553  0.2865  0.5866
10058TIP3    H251590   3.161   4.285   4.594  1.2570  0.0828  0.1636
10059TIP3   OH251591   5.081   1.016   4.579  0.5160 -0.3248  0.1838
10059TIP3    H151592   5.030   1.001   4.658  1.0641 -0.7465  0.4607
10059TIP3    H251593   5.171   1.029   4.610  0.2207  2.7817 -0.0923
10060TIP3   OH251594   4.667   6.313  14.382 -0.4788  0.4111 -0.2111
10060TIP3    H151595   4.736   6.268  14.431 -0.4065 -0.7147 -1.3419
10060TIP3    H251596   4.590   6.257  14.389  0.1402 -0.9137 -3.2534
10061TIP3   OH251597   3.604   2.301   5.467 -0.2292 -0.1846  0.0907
10061TIP3    H151598   3.577   2.389   5.495 -1.2096  0.2686 -2.1889
10061TIP3    H251599   3.693   2.291   5.501  0.6151  2.4349 -1.2440
10062TIP3   OH251600   0.256   2.368   0.003 -0.5101  0.0948 -0.2912
10062TIP3    H151601   0.248   2.405  -0.085  1.0262  3.2627  0.8577
10062TIP3    H251602   0.336   2.315  -0.001  0.7965  2.0289 -0.2112
10063TIP3   OH251603   3.687   1.472  16.205  0.9877  0.1659  0.0951
10063TIP3    H151604   3.680   1.403  16.139  1.3159 -0.2527  0.4944
10063TIP3    H251605   3.712   1.550  16.156  0.1159  0.1252 -0.4280
10064TIP3   OH251606   5.182   3.940  16.526 -0.1633  0.0181  0.0828
10064TIP3    H151607   5.207   4.012  16.467 -0.1527 -1.0497 -1.2398
10064TIP3    H251608   5.090   3.924  16.506 -0.0042 -0.7282 -0.0601
10065TIP3   OH251609   1.589   2.086   3.290 -0.9466  0.3810 -0.0600
10065TIP3    H151610   1.604   2.039   3.372 -0.8860 -2.5066 -1.6704
10065TIP3    H251611   1.659   2.057   3.232 -1.2376  2.0578 -1.2881
10066TIP3   OH251612   2.742   6.733  16.715  0.5706  0.0040  0.4527
10066TIP3    H151613   2.716   6.646  16.685 -1.4112 -0.5579  3.5572
10066TIP3    H251614   2.838   6.729  16.718  0.4875 -2.2315  0.9708
10067TIP3   OH251615   3.382   0.496   0.181  0.0022  0.5932 -0.5641
10067TIP3    H151616   3.394   0.555   0.255  0.2303  0.4670 -0.4984
10067TIP3    H251617   3.437   0.420   0.202  1.6231  1.3978 -1.7694
10068TIP3   OH251618   6.129   4.519   4.219 -0.2555  0.1079  0.0192
10068TIP3    H151619   6.079   4.438   4.224  0.9794 -0.8123 -1.6770
10068TIP3    H251620   6.130   4.540   4.125  0.7140  1.2598  0.2761
10069TIP3   OH251621   3.845   3.010   0.372 -0.1190  0.2673 -0.0970
10069TIP3    H151622   3.769   3.062   0.348 -0.3167  0.1546  0.2778
10069TIP3    H251623   3.852   3.020   0.467  0.5795  0.6101 -0.1854
10070TIP3   OH251624   4.727   5.598  11.586  0.2295 -0.3410 -0.7232
10070TIP3    H151625   4.654   5.549  11.548  1.2342 -1.4480 -1.2431
10070TIP3    H251626   4.805   5.562  11.544  1.1997 -0.1040  0.8208
10071TIP3   OH251627   6.206   1.734   0.799 -0.0461  0.6539  0.6375
10071TIP3    H151628   6.130   1.745   0.856  0.7527 -1.1582  2.1033
10071TIP3    H251629   6.206   1.640   0.778  0.0739  1.1676 -1.7974
10072TIP3   OH251630   6.563   1.795  17.235 -0.5287 -0.2582  0.4147
10072TIP3    H151631   6.554   1.850  17.313 -1.3400 -0.4087  0.4382
10072TIP3    H251632   6.536   1.852  17.163 -0.5650 -0.3690  0.3401
10073TIP3   OH251633   4.116   1.853  15.511  0.0682  0.8040 -0.5590
10073TIP3    H151634   4.078   1.940  15.495 -1.5980  0.2897  0.4501
10073TIP3    H251635   4.165   1.833  15.432 -0.3082  2.2789 -1.1804
10074TIP3   OH251636   0.759   1.737  14.952 -0.2104  0.8431 -0.2301
10074TIP3    H151637   0.714   1.656  14.973  0.7407  0.2869 -0.3206
10074TIP3    H251638   0.814   1.716  14.876  0.3092  1.4691 -0.0392
10075TIP3   OH251639   2.387   0.965  16.822 -0.0477 -0.3708  0.3747
10075TIP3    H151640   2.375   0.975  16.917 -0.0058  1.3380  0.2142
10075TIP3    H251641   2.441   0.886  16.813  0.4208 -0.2353  1.8027
10076TIP3   OH251642   4.340   4.487   4.815 -0.0816 -0.1004  0.2583
10076TIP3    H151643   4.420   4.453   4.855  0.5693 -0.2308 -1.1151
10076TIP3    H251644   4.336   4.578   4.843  1.9882  0.6741 -1.7717
10077TIP3   OH251645   5.710   6.093  15.668  0.2536  0.2748  0.0041
10077TIP3    H151646   5.751   6.178  15.653  0.6427  0.0620 -0.1372
10077TIP3    H251647   5.626   6.099  15.620  0.1945  0.6429  0.1528
10078TIP3   OH251648   4.266   5.405  13.947 -0.1483 -0.3607  0.3284
10078TIP3    H151649   4.245   5.456  14.026 -1.8382  0.7477 -0.8102
10078TIP3    H251650   4.326   5.461  13.898 -0.7505 -0.1350 -0.1600
10079TIP3   OH251651   5.963   2.253  16.671 -0.3004  0.5990 -0.1479
10079TIP3    H151652   5.954   2.309  16.594 -1.6079  0.6015 -0.0043
10079TIP3    H251653   5.980   2.165  16.635 -1.4317  0.4996 -0.4627
10080TIP3   OH251654   3.399   0.230  13.078 -0.7506  0.1147 -0.1780
10080TIP3    H151655   3.374   0.273  13.160 -1.2301  1.6244 -1.0919
10080TIP3    H251656   3.442   0.299  13.027  2.8494 -1.6943  0.2157
10081TIP3   OH251657   0.666   0.908  16.260  0.0465 -0.0518 -0.9391
10081TIP3    H151658   0.725   0.982  16.249 -0.0044 -0.1541 -1.8884
10081TIP3    H251659   0.723   0.833  16.278  0.2569 -0.2949 -2.5662
10082TIP3   OH251660   4.439   6.532   3.149  0.0102 -0.1201  0.8088
10082TIP3    H151661   4.365   6.588   3.173  0.3171  0.6018  0.0786
10082TIP3    H251662   4.515   6.576   3.187  0.2793  0.0706  0.0436
10083TIP3   OH251663   2.184   2.781   3.715  0.4654  0.0909 -0.7364
10083TIP3    H151664   2.106   2.746   3.673  1.0044 -0.0308 -1.6616
10083TIP3    H251665   2.238   2.704   3.734  0.3529  0.1716 -0.0885
10084TIP3   OH251666   0.432   2.493  14.251 -0.1368 -0.2230 -0.3481
10084TIP3    H151667   0.363   2.538  14.299  0.2956 -0.3296  0.3801
10084TIP3    H251668   0.425   2.402  14.281  0.4113 -0.2040 -0.1736
10085TIP3   OH251669   5.275   6.614   2.822 -0.1450  0.0467  1.3739
10085TIP3    H151670   5.296   6.707   2.809  0.1568 -0.1705  0.2706
10085TIP3    H251671   5.309   6.594   2.908 -0.8602  1.1508  1.9348
10086TIP3   OH251672   2.250   1.552  12.695  0.0625 -0.5563 -0.2161
10086TIP3    H151673   2.283   1.604  12.768 -0.1352  1.1107 -1.3074
10086TIP3    H251674   2.223   1.616  12.629 -0.7575 -2.0141 -1.3305
10087TIP3   OH251675   6.351   1.173  16.261 -0.5246 -0.4449  0.3244
10087TIP3    H151676   6.415   1.104  16.242 -0.0664  0.1883 -0.4632
10087TIP3    H251677   6.269   1.126  16.276  0.6203 -1.4698  3.9430
10088TIP3   OH251678   0.895   5.458   0.581  0.2129  0.8336 -0.2197
10088TIP3    H151679   0.876   5.364   0.580  0.7962  0.7165 -0.5990
10088TIP3    H251680   0.855   5.490   0.662  0.8182  0.0896  0.3678
10089TIP3   OH251681   1.653   3.262  14.475 -0.4986  0.0113  0.4979
10089TIP3    H151682   1.643   3.327  14.544  0.0009  0.4850  0.1267
10089TIP3    H251683   1.576   3.273  14.420 -1.4517 -1.0996  1.5727
10090TIP3   OH251684   3.093   3.935   1.681  0.8841  0.3477 -0.3622
10090TIP3    H151685   3.154   3.999   1.647  0.2639  1.9518  1.4678
10090TIP3    H251686   3.063   3.972   1.764 -2.2951 -0.5492 -1.0450
10091TIP3   OH251687   1.231   5.924  16.185  0.2156  0.2632  0.4218
10091TIP3    H151688   1.165   5.942  16.118 -1.1780  1.1462  2.0120
10091TIP3    H251689   1.276   6.007  16.196  2.1017 -0.4992 -1.1401
10092TIP3   OH251690   1.223   3.589  13.209 -0.4247 -0.3955  0.2543
10092TIP3    H151691   1.199   3.498  13.226  0.5075 -0.4233  1.5919
10092TIP3    H251692   1.301   3.584  13.154  0.2200 -0.4457  1.1531
10093TIP3   OH251693   6.462   2.226   0.828  0.5763 -0.1674  0.3367
10093TIP3    H151694   6.448   2.314   0.863  1.0631  0.1312 -0.2065
10093TIP3    H251695   6.376   2.200   0.794  0.6888  0.5446 -0.5059
10094TIP3   OH251696   0.836   5.129  12.454  0.5134  0.3348  0.1026
10094TIP3    H151697   0.894   5.094  12.521 -0.7972 -1.1785  0.4653
10094TIP3    H251698   0.863   5.220  12.444  3.9269 -0.7019 -0.7846
10095TIP3   OH251699   1.828   1.031   4.213  0.4562 -0.4185  0.1770
10095TIP3    H151700   1.885   0.958   4.239  1.7517  0.7611  0.6879
10095TIP3    H251701   1.777   0.996   4.140  0.3045 -2.1789  1.0783
10096TIP3   OH251702   4.842   0.668  12.951  0.5747  0.3815  0.2395
10096TIP3    H151703   4.895   0.635  12.878  1.0525  0.1971  0.6669
10096TIP3    H251704   4.784   0.733  12.912 -0.1184 -0.6901 -0.5562
10097TIP3   OH251705   0.032   0.718  12.669 -0.6619  0.2523  0.1729
10097TIP3    H151706   0.052   0.694  12.578 -3.2708 -0.7901 -0.1673
10097TIP3    H251707   0.118   0.728  12.711  0.6239  2.3495 -2.7885
10098TIP3   OH251708   4.824   5.039  11.068  1.2972  0.6743  0.3037
10098TIP3    H151709   4.799   5.064  11.157  0.3796 -0.5218  0.3906
10098TIP3    H251710   4.915   5.067  11.060  0.5172  3.4258  0.6301
10099TIP3   OH251711   1.181   5.557   0.691  0.7588 -0.2046  0.2074
10099TIP3    H151712   1.105   5.575   0.748  1.1055  0.7591  0.3595
10099TIP3    H251713   1.195   5.638   0.643  0.6353 -0.9363 -1.0815
10100TIP3   OH251714   1.497   5.265  15.960 -0.2914  0.5872  0.8655
10100TIP3    H151715   1.525   5.204  16.028  2.2394  0.4489 -0.2699
10100TIP3    H251716   1.405   5.241  15.943 -0.0383 -1.3353  2.0853
10101TIP3   OH251717   2.324   4.645  16.943  0.4722 -0.3296  0.1699
10101TIP3    H151718   2.279   4.727  16.958  0.0602 -0.0813 -2.3002
10101TIP3    H251719   2.392   4.666  16.879 -0.4017 -2.1350 -1.3922
10102TIP3   OH251720   1.697   4.409  11.289  0.2370  0.0329 -0.6432
10102TIP3    H151721   1.616   4.430  11.335  0.0067 -0.2049 -0.9440
10102TIP3    H251722   1.745   4.353  11.350  1.5501  2.6411  0.8360
10103TIP3   OH251723   3.079   0.167  13.986 -0.3610 -0.5601  0.2258
10103TIP3    H151724   3.016   0.237  14.005 -1.8240 -1.8329  0.1853
10103TIP3    H251725   3.142   0.171  14.057 -0.8006  0.3702  0.5713
10104TIP3   OH251726   5.153   3.025   3.926  0.1023  0.0984 -0.2216
10104TIP3    H151727   5.079   3.027   3.986 -1.5261  0.6200 -2.1807
10104TIP3    H251728   5.119   2.982   3.847  1.7770  0.6834 -1.3031
10105TIP3   OH251729   3.380   1.757  16.042 -0.1791 -0.3343  0.1332
10105TIP3    H151730   3.308   1.779  16.101  0.2890 -0.3683  0.7223
10105TIP3    H251731   3.345   1.772  15.954 -1.3489 -1.6904  0.3581
10106TIP3   OH251732   1.584   5.912  13.525 -0.2013  0.5249 -0.4388
10106TIP3    H151733   1.609   5.871  13.442 -0.0339  0.3909 -0.3225
10106TIP3    H251734   1.495   5.881  13.541 -0.9168  1.9592 -1.4699
10107TIP3   OH251735   3.134   2.641  16.929 -0.5858 -0.8789 -0.1889
10107TIP3    H151736   3.106   2.676  17.014  0.1659  1.1457 -0.7595
10107TIP3    H251737   3.219   2.599  16.948 -0.8712 -1.2705  0.2363
10108TIP3   OH251738   4.778   2.784   4.427 -0.2589 -0.1954  0.3851
10108TIP3    H151739   4.740   2.805   4.341 -0.6243 -1.6048  0.1961
10108TIP3    H251740   4.850   2.724   4.408  0.1684  0.1123  1.0097
10109TIP3   OH251741   4.196   1.219  11.316 -0.4711 -0.2299 -0.4728
10109TIP3    H151742   4.133   1.177  11.375 -0.4381  0.7371  0.2739
10109TIP3    H251743   4.152   1.219  11.231 -0.4518 -1.7850 -0.4889
10110TIP3   OH251744   3.840   5.379   0.719 -0.7689 -0.1801  0.1056
10110TIP3    H151745   3.845   5.316   0.648 -1.9768 -1.6166  1.2566
10110TIP3    H251746   3.751   5.368   0.754 -0.1932  0.4909  1.8333
10111TIP3   OH251747   3.115   2.412  11.097 -0.5614  0.1462  0.4556
10111TIP3    H151748   3.064   2.369  11.029  0.7842  0.3432 -0.6887
10111TIP3    H251749   3.064   2.489  11.121 -1.3926 -0.3277  0.2044
10112TIP3   OH251750   6.646   0.438  12.524 -0.4025  0.7780  0.0344
10112TIP3    H151751   6.719   0.383  12.552 -2.3451 -1.3761  1.0421
10112TIP3    H251752   6.686   0.521  12.500  2.8552 -1.4900 -2.9469
10113TIP3   OH251753   4.049   4.237   2.092  0.5923 -0.2931 -0.7528
10113TIP3    H151754   4.025   4.180   2.165  2.5112 -1.9114 -1.3301
10113TIP3    H251755   4.115   4.295   2.128  0.3377  0.0207 -0.7866
10114TIP3   OH251756   3.562   5.504   2.725  0.2507 -0.2657  0.0642
10114TIP3    H151757   3.551   5.488   2.631  1.7386 -1.2739  0.0257
10114TIP3    H251758   3.622   5.579   2.730 -0.5968  0.4041  0.2163
10115TIP3   OH251759   5.237   3.732   2.664  0.1927 -0.1350  0.2369
10115TIP3    H151760   5.176   3.779   2.721 -0.3324  0.6832 -0.9562
10115TIP3    H251761   5.246   3.788   2.587  0.6147 -1.3595 -0.6344
10116TIP3   OH251762   4.447   3.000  17.008  0.7513 -0.0378  0.6329
10116TIP3    H151763   4.423   3.016  17.099 -1.0089 -0.0752  0.1910
10116TIP3    H251764   4.466   2.906  17.004 -0.0134 -0.2008  0.7796
10117TIP3   OH251765   3.340   2.594   0.920  0.2352 -0.1377  0.2465
10117TIP3    H151766   3.289   2.571   0.998  0.1825  1.9583  0.8624
10117TIP3    H251767   3.308   2.681   0.896  1.2751 -0.1576 -1.2608
10118TIP3   OH251768   4.245   0.148   5.570  0.0508 -0.6643  0.3996
10118TIP3    H151769   4.287   0.213   5.626 -1.6047  1.4913 -0.7860
10118TIP3    H251770   4.266   0.176   5.481  0.0440 -2.2687 -0.1306
10119TIP3   OH251771   1.992   0.851   4.333  0.2614  0.6509 -0.6725
10119TIP3    H151772   1.971   0.761   4.359 -2.0563  1.4339  0.3563
10119TIP3    H251773   2.024   0.891   4.413 -2.0272  1.6583 -0.2067
10120TIP3   OH251774   5.420   3.521  17.173 -0.2397 -0.3180 -0.2066
10120TIP3    H151775   5.440   3.526  17.267 -0.2952  0.6620 -0.2442
10120TIP3    H251776   5.401   3.611  17.148  0.2908 -0.5051 -1.2814
10121TIP3   OH251777   5.492   0.221  15.084  0.0375 -0.0114  0.5859
10121TIP3    H151778   5.570   0.186  15.126 -0.5682  0.0236  1.7468
10121TIP3    H251779   5.525   0.270  15.009  0.9902 -1.7919 -0.1834
10122TIP3   OH251780   6.033   1.267   3.257  0.0743  0.2260 -0.6620
10122TIP3    H151781   6.044   1.261   3.163 -0.6023  0.7945 -0.7818
10122TIP3    H251782   5.988   1.350   3.271  0.3619  0.2534  0.1777
10123TIP3   OH251783   1.679   4.546  11.801 -0.2856 -0.0893  0.0427
10123TIP3    H151784   1.610   4.586  11.853  0.7023  1.0926  0.4768
10123TIP3    H251785   1.634   4.483  11.745 -1.4308 -0.9519  1.9016
10124TIP3   OH251786   6.533   3.769  13.746  0.0501  0.3262  0.4010
10124TIP3    H151787   6.537   3.836  13.678  0.5045  0.4340  0.5301
10124TIP3    H251788   6.508   3.689  13.700 -0.2719  0.5365  0.2084
10125TIP3   OH251789   2.016   2.549   0.660  0.4745 -0.1530 -0.5742
10125TIP3    H151790   2.085   2.612   0.679  1.4715 -1.6128  0.7718
10125TIP3    H251791   1.937   2.588   0.698 -0.0725  2.7939 -4.4416
10126TIP3   OH251792   6.747   3.738  15.720 -0.5754  0.3069  0.0169
10126TIP3    H151793   6.801   3.808  15.682  0.1359 -0.7799 -1.0037
10126TIP3    H251794   6.810   3.671  15.748 -1.1908  0.4071  1.7376
10127TIP3   OH251795   4.635   5.611  14.039  0.5264  0.0570  0.0833
10127TIP3    H151796   4.600   5.524  14.060  0.4774  0.3829  1.3922
10127TIP3    H251797   4.654   5.607  13.945  2.5713 -2.0671  0.5568
10128TIP3   OH251798   3.674   4.007  13.365 -0.4096  0.1789 -0.2982
10128TIP3    H151799   3.583   3.994  13.394 -0.3927 -0.1895 -0.4094
10128TIP3    H251800   3.695   3.927  13.317 -0.3461  0.6808 -1.1082
10129TIP3   OH251801   6.578   1.978   6.396  0.1625  0.0428 -0.6322
10129TIP3    H151802   6.611   2.066   6.411  0.9868 -0.3461 -0.0974
10129TIP3    H251803   6.598   1.931   6.477 -2.7338  0.0791  0.1587
10130TIP3   OH251804   0.409   6.731   6.378  0.3805 -0.4246 -0.5275
10130TIP3    H151805   0.472   6.798   6.406 -0.7381  0.1671  0.6330
10130TIP3    H251806   0.406   6.739   6.282  0.1188  1.3175 -0.3825
10131TIP3   OH251807   4.869   0.069  11.844 -0.7973  0.6334 -0.3204
10131TIP3    H151808   4.959   0.097  11.827 -0.8272  0.3788 -0.9216
10131TIP3    H251809   4.821   0.150  11.859 -0.1632  0.6848  1.5142
10132TIP3   OH251810   4.779   3.190  12.326 -0.4657  0.0330  0.2439
10132TIP3    H151811   4.796   3.111  12.275 -2.1245 -1.3014  1.6990
10132TIP3    H251812   4.735   3.159  12.405  0.7804  2.1893  1.8642
10133TIP3   OH251813   5.284   6.733  16.218  0.5518 -0.1199 -0.0351
10133TIP3    H151814   5.302   6.746  16.312 -1.1540  0.1303  0.2759
10133TIP3    H251815   5.271   6.639  16.208 -1.4386  0.0824  0.4110
10134TIP3   OH251816   2.955   1.703   4.191 -0.1328  0.0936  0.2264
10134TIP3    H151817   2.964   1.790   4.230 -0.4909 -0.1162  0.7895
10134TIP3    H251818   2.884   1.712   4.127  0.9184  0.6080 -0.8751
10135TIP3   OH251819   5.937   5.810  15.990 -0.2002  0.6829 -0.4513
10135TIP3    H151820   5.967   5.770  16.072  1.2343  1.4530 -0.5855
10135TIP3    H251821   6.017   5.846  15.951 -0.7856 -0.0774 -2.4129
10136TIP3   OH251822   1.439   3.219   4.956  0.0075 -0.1063  0.0733
10136TIP3    H151823   1.450   3.243   4.864 -1.1280  0.7315  0.1496
10136TIP3    H251824   1.524   3.239   4.996  0.2547  0.2782 -0.6291
10137TIP3   OH251825   1.950   1.492   4.600 -0.6596 -0.7782  0.7180
10137TIP3    H151826   2.002   1.412   4.603  0.0044 -0.3637  0.3840
10137TIP3    H251827   1.965   1.534   4.685  0.4994 -0.0668  0.1632
10138TIP3   OH251828   3.677   1.806  11.999  0.3369  0.3215 -0.3065
10138TIP3    H151829   3.734   1.808  11.922  2.3039  2.6191  1.1406
10138TIP3    H251830   3.632   1.890  11.998  0.8848  0.6597  1.4131
10139TIP3   OH251831   4.227   2.757  15.500  0.1563 -0.9534 -0.0686
10139TIP3    H151832   4.292   2.792  15.438 -1.0192  0.3124 -0.6010
10139TIP3    H251833   4.171   2.701  15.447  0.5640 -1.7492  0.3242
10140TIP3   OH251834   4.295   0.959  13.676 -0.3126 -0.3493  0.4792
10140TIP3    H151835   4.335   1.030  13.726  0.9174 -0.1914 -0.6867
10140TIP3    H251836   4.237   0.915  13.738 -0.2783  1.0263  1.4950
10141TIP3   OH251837   2.957   6.229   0.594  0.2237 -0.5674  0.6675
10141TIP3    H151838   2.957   6.307   0.539 -0.8530 -0.8173  0.2942
10141TIP3    H251839   2.914   6.162   0.540  2.5329 -1.8735  0.3619
10142TIP3   OH251840   3.363   5.000  13.650 -0.2387 -0.0631  0.0382
10142TIP3    H151841   3.454   4.998  13.621 -0.1274 -0.6621  0.4112
10142TIP3    H251842   3.325   5.078  13.608  0.6495  0.6255  0.4969
10143TIP3   OH251843   6.401   2.290  10.983 -0.0694  0.6223 -0.4398
10143TIP3    H151844   6.388   2.213  10.928  1.8776  0.5006 -0.7462
10143TIP3    H251845   6.402   2.364  10.921  0.6295  0.6281 -0.4298
10144TIP3   OH251846   4.702   1.849  13.306  0.0167 -0.1244  0.2532
10144TIP3    H151847   4.622   1.801  13.282 -1.5081  2.0903  0.7159
10144TIP3    H251848   4.702   1.849  13.402  0.7722 -0.4457  0.2522
10145TIP3   OH251849   3.356   2.566  16.556 -0.1595  0.7334 -0.4950
10145TIP3    H151850   3.275   2.517  16.569 -0.1374  1.2733  1.8414
10145TIP3    H251851   3.425   2.504  16.579  0.1173  0.2653 -2.5103
10146TIP3   OH251852   1.359   2.360  15.281 -0.6433  0.5741 -0.3774
10146TIP3    H151853   1.399   2.430  15.228  1.0332  0.3965  0.6247
10146TIP3    H251854   1.402   2.280  15.251 -0.1108  0.3992  0.8391
10147TIP3   OH251855   4.903   6.690   1.384  0.5731  0.0685  0.3432
10147TIP3    H151856   4.931   6.777   1.357  0.1728  0.6957  1.9057
10147TIP3    H251857   4.807   6.693   1.378  0.5608 -0.2766  0.3462
10148TIP3   OH251858   2.902   0.698   2.466 -0.5400  0.0088 -0.0954
10148TIP3    H151859   2.857   0.738   2.541 -1.0979  1.2622 -1.0792
10148TIP3    H251860   2.981   0.751   2.454  1.2893 -2.1773  1.6218
10149TIP3   OH251861   1.636   2.038   2.046  0.3442  0.9946 -0.2647
10149TIP3    H151862   1.621   2.132   2.041  1.7095  1.2164 -0.3135
10149TIP3    H251863   1.670   2.023   2.134  0.6101  0.6138 -0.4302
10150TIP3   OH251864   3.894   2.025   5.575 -0.5499 -0.5675  0.1495
10150TIP3    H151865   3.950   1.949   5.588 -0.2502 -0.2516  0.7042
10150TIP3    H251866   3.808   1.997   5.606 -0.2838 -0.4607  1.0002
10151TIP3   OH251867   0.392   3.721  16.430  0.1891  0.4016  0.1437
10151TIP3    H151868   0.378   3.694  16.521  0.1639  1.8953  0.6012
10151TIP3    H251869   0.344   3.657  16.378 -2.0293  1.0482  1.3293
10152TIP3   OH251870   0.362   4.584   3.022 -0.0096  0.0552 -0.4121
10152TIP3    H151871   0.340   4.495   2.993  0.4697  0.0698 -0.8215
10152TIP3    H251872   0.297   4.639   2.979  1.4029  0.2019 -2.3926
10153TIP3   OH251873   4.769   1.524   2.546  0.2503  0.4927  0.5030
10153TIP3    H151874   4.736   1.568   2.625 -0.3751 -0.5510  0.8262
10153TIP3    H251875   4.747   1.584   2.474 -0.2194  0.9049  0.9839
10154TIP3   OH251876   4.076   0.040  16.325 -0.4445 -0.0960  0.4955
10154TIP3    H151877   4.118  -0.046  16.331  0.5530  0.4051  0.7446
10154TIP3    H251878   4.132   0.090  16.266 -0.9461  0.4401  0.4746
10155TIP3   OH251879   5.679   0.517  11.883 -0.4502 -0.6269 -0.0408
10155TIP3    H151880   5.593   0.547  11.852  0.2905  1.6848  0.0264
10155TIP3    H251881   5.738   0.589  11.862  0.9131 -0.9168  2.6298
10156TIP3   OH251882   1.522   6.539   4.183 -0.0316 -0.0291 -0.3562
10156TIP3    H151883   1.502   6.548   4.090 -1.1519 -1.7441 -0.3062
10156TIP3    H251884   1.452   6.483   4.218  1.9247 -1.7658  0.9174
10157TIP3   OH251885   1.266   4.083  13.423 -0.4349 -0.3234  0.4814
10157TIP3    H151886   1.234   3.994  13.414  0.5696 -0.6097 -0.3796
10157TIP3    H251887   1.221   4.132  13.354  0.5655 -0.6101 -0.3805
10158TIP3   OH251888   2.508   6.203  17.010 -0.0119 -0.2857  0.6777
10158TIP3    H151889   2.537   6.198  16.919  1.4695 -0.4129  1.1374
10158TIP3    H251890   2.414   6.217  17.005 -0.4740 -3.4095 -0.8834
10159TIP3   OH251891   0.251   1.052  17.121 -0.1373 -0.0390 -0.1696
10159TIP3    H151892   0.236   0.992  17.195  0.4737 -0.9287 -0.7483
10159TIP3    H251893   0.238   1.139  17.158 -0.5821 -0.5089  0.8127
10160TIP3   OH251894   5.678   1.124  16.350 -0.2392  0.1433  0.5426
10160TIP3    H151895   5.612   1.077  16.401 -0.4258 -0.1448  0.0496
10160TIP3    H251896   5.635   1.142  16.266  0.2473  0.1101  0.2813
10161TIP3   OH251897   1.558   5.077  11.274 -0.0801 -0.5213 -0.0943
10161TIP3    H151898   1.560   5.169  11.302 -0.6089 -1.2848  2.6080
10161TIP3    H251899   1.614   5.074  11.196  1.1045  1.8260  0.6322
10162TIP3   OH251900   4.986   1.047   1.582 -0.4431  0.7187 -0.0124
10162TIP3    H151901   5.033   1.083   1.507 -0.4022 -0.1112 -0.3854
10162TIP3    H251902   4.906   1.010   1.545 -0.6256  0.6837  0.4089
10163TIP3   OH251903   5.286   4.372   4.332  0.5718  0.6973 -0.5083
10163TIP3    H151904   5.292   4.326   4.248  0.5298 -2.5738  1.1911
10163TIP3    H251905   5.377   4.389   4.356  0.6138  0.9907 -0.8679
10164TIP3   OH251906   3.082   6.420   6.327 -0.9722  0.2673  0.2079
10164TIP3    H151907   3.161   6.379   6.293 -1.1241 -0.6692  0.9550
10164TIP3    H251908   3.075   6.503   6.280 -0.2455 -0.2290 -0.7736
10165TIP3   OH251909   6.269   5.707   5.769 -0.0759 -0.1594  0.5034
10165TIP3    H151910   6.242   5.685   5.859 -3.9042 -0.2450 -0.5693
10165TIP3    H251911   6.234   5.795   5.754  1.2744  0.2043 -0.6443
10166TIP3   OH251912   3.066   0.101  14.636  0.1031  0.2097 -0.2652
10166TIP3    H151913   3.045   0.174  14.694 -2.1176 -1.4363  1.1033
10166TIP3    H251914   3.016   0.119  14.556  0.1248  0.5336 -0.2083
10167TIP3   OH251915   0.144   6.621  12.618 -0.3001  0.2184 -0.2920
10167TIP3    H151916   0.182   6.596  12.702 -3.6870 -1.1295  0.9276
10167TIP3    H251917   0.058   6.657  12.640 -0.4738  1.6413 -3.0457
10168TIP3   OH251918   5.752   1.620   4.674 -0.3008 -0.2759 -0.4461
10168TIP3    H151919   5.754   1.677   4.751 -0.3042  0.3471 -0.9059
10168TIP3    H251920   5.792   1.539   4.705 -1.5776 -0.5276  0.5986
10169TIP3   OH251921   3.528   3.239   1.398  0.5655 -0.4817  0.0355
10169TIP3    H151922   3.503   3.331   1.405  2.3255  0.0736 -0.8596
10169TIP3    H251923   3.466   3.203   1.334  0.7042  0.3760 -0.5837
10170TIP3   OH251924   1.458   5.153   5.775  0.3682 -0.3395  0.4832
10170TIP3    H151925   1.467   5.227   5.835 -0.2269  0.5521 -0.5207
10170TIP3    H251926   1.373   5.115   5.796  0.7154 -0.8111  1.0642
10171TIP3   OH251927   3.703   4.737   5.672  0.2336 -0.3119  0.0784
10171TIP3    H151928   3.610   4.735   5.697  0.0426 -1.4102 -0.6665
10171TIP3    H251929   3.738   4.815   5.716 -1.2574  0.6474 -0.3868
10172TIP3   OH251930   6.191   3.648  15.821 -0.5323 -0.0364 -0.1906
10172TIP3    H151931   6.098   3.644  15.843 -0.6293 -0.0883 -0.5971
10172TIP3    H251932   6.202   3.581  15.754 -0.7908  1.8974 -2.2203
10173TIP3   OH251933   5.346   1.071  17.183  0.2309 -0.3576  0.0721
10173TIP3    H151934   5.368   1.012  17.110 -1.5212  0.3047 -1.0372
10173TIP3    H251935   5.323   1.012  17.255 -1.7210 -1.0812 -1.0987
10174TIP3   OH251936   5.690   5.328   4.897  0.1170 -0.3635 -0.0230
10174TIP3    H151937   5.741   5.408   4.911  1.6422 -1.4862  1.0168
10174TIP3    H251938   5.755   5.258   4.896 -1.3881 -1.8387  1.4759
10175TIP3   OH251939   4.178   2.270  12.013  0.0659  0.0538 -0.0344
10175TIP3    H151940   4.144   2.350  11.973  2.4609  0.9281 -0.4608
10175TIP3    H251941   4.109   2.241  12.073 -0.7743  2.5657  0.2663
10176TIP3   OH251942   3.499   5.753   4.146 -0.3176  0.0357 -0.0491
10176TIP3    H151943   3.455   5.682   4.193  0.1495 -0.2928 -0.1016
10176TIP3    H251944   3.509   5.720   4.057  1.7535 -0.6645  0.4279
10177TIP3   OH251945   1.467   5.244  12.869  0.0663 -0.0954 -0.4042
10177TIP3    H151946   1.462   5.156  12.833  0.3516 -1.0122  1.7123
10177TIP3    H251947   1.542   5.242  12.928 -1.2148  0.9102  1.3214
10178TIP3   OH251948   5.872   2.805  11.754  0.3938 -0.1803 -0.0460
10178TIP3    H151949   5.825   2.884  11.779 -0.3152 -0.7800  0.5503
10178TIP3    H251950   5.811   2.733  11.772  0.7435 -0.8098 -1.3170
10179TIP3   OH251951   3.852   4.532  16.899  0.3847  0.0406  0.2326
10179TIP3    H151952   3.821   4.476  16.827 -1.5814 -0.6147  1.5619
10179TIP3    H251953   3.918   4.480  16.944  1.3348  0.2977 -0.8379
10180TIP3   OH251954   4.748   1.685  12.534 -0.1894  0.2822 -0.0403
10180TIP3    H151955   4.723   1.776  12.515 -0.8754 -0.2985 -2.0763
10180TIP3    H251956   4.755   1.681  12.629 -0.0687  2.4944  0.0597
10181TIP3   OH251957   2.401   1.263  14.150 -0.5267 -0.5252  0.4707
10181TIP3    H151958   2.336   1.309  14.096  1.1909 -1.3333 -2.4115
10181TIP3    H251959   2.457   1.332  14.185 -1.8569  0.0374  1.5287
10182TIP3   OH251960   2.640   6.655  15.182  0.0728 -0.1238  0.5019
10182TIP3    H151961   2.666   6.710  15.256  0.9621  0.6515 -0.3594
10182TIP3    H251962   2.579   6.592  15.219 -0.3206  0.9178  1.6838
10183TIP3   OH251963   6.108   2.626   5.905 -0.1983 -0.0809 -0.0329
10183TIP3    H151964   6.032   2.604   5.852 -0.5611  0.8341  0.0952
10183TIP3    H251965   6.072   2.647   5.991  0.3819 -1.5163  0.5870
10184TIP3   OH251966   0.933   0.236  15.421  0.0961 -0.1677 -0.1189
10184TIP3    H151967   0.979   0.153  15.407 -0.8418 -0.7764  0.3549
10184TIP3    H251968   0.908   0.235  15.514  0.5897  0.9147  0.0402
10185TIP3   OH251969   1.553   0.699  11.071  0.1759  0.3718 -0.7018
10185TIP3    H151970   1.560   0.759  11.144 -0.2296  0.4177 -0.7007
10185TIP3    H251971   1.540   0.755  10.994 -0.4137  0.2783 -0.6716
10186TIP3   OH251972   4.883   5.654   4.496  0.2162 -0.3769 -0.4924
10186TIP3    H151973   4.942   5.603   4.440 -0.2237  0.2557 -1.5570
10186TIP3    H251974   4.796   5.637   4.460  0.0233  0.7654 -0.5786
10187TIP3   OH251975   0.383   4.979  14.209  0.1057  0.2656 -0.1453
10187TIP3    H151976   0.471   4.996  14.176 -0.3440 -1.0739 -2.1503
10187TIP3    H251977   0.341   4.927  14.140 -1.6839 -0.5823  1.5227
10188TIP3   OH251978   5.092   3.160  11.948 -0.2620  0.1548 -0.0375
10188TIP3    H151979   5.057   3.188  11.864  0.8228  0.1008 -0.5102
10188TIP3    H251980   5.017   3.120  11.993 -0.9600  0.6303 -0.7698
10189TIP3   OH251981   2.044   3.142  13.688 -0.1268 -0.6088 -0.6337
10189TIP3    H151982   2.139   3.144  13.684 -0.1526 -1.9826 -2.0628
10189TIP3    H251983   2.024   3.120  13.779  0.8617  1.8971  0.2414
10190TIP3   OH251984   4.943   5.062   1.581  0.1283  0.4688  0.2436
10190TIP3    H151985   5.036   5.073   1.602  1.0143  0.8771 -3.4927
10190TIP3    H251986   4.940   4.985   1.525 -1.3385  2.0752 -2.0025
10191TIP3   OH251987   0.477   2.230  14.276  0.4078 -0.3534  0.3719
10191TIP3    H151988   0.563   2.230  14.317  1.2271  0.3390 -1.3142
10191TIP3    H251989   0.459   2.137  14.259  0.2040 -0.6252  1.9116
10192TIP3   OH251990   1.951   1.509   1.979 -0.3391  0.5883  0.5761
10192TIP3    H151991   2.011   1.564   2.030  0.9623 -2.0529  2.0091
10192TIP3    H251992   1.904   1.458   2.044 -0.4331 -1.0765 -0.7610
10193TIP3   OH251993   6.765   0.901   3.794 -1.0131 -0.0341 -0.8168
10193TIP3    H151994   6.753   0.806   3.794  0.4491 -0.2403 -2.2761
10193TIP3    H251995   6.787   0.922   3.884 -0.4466 -1.2127 -0.6646
10194TIP3   OH251996   0.364   5.949  16.953  0.3710 -0.0528 -0.3588
10194TIP3    H151997   0.424   5.910  17.018  1.1847 -0.7908 -1.5437
10194TIP3    H251998   0.412   6.025  16.920  0.1440  0.0546 -0.4395
10195TIP3   OH251999   6.128   6.244   5.287  0.1757  0.3841 -0.1942
10195TIP3    H152000   6.077   6.249   5.368  0.0145  0.5961 -0.3069
10195TIP3    H252001   6.088   6.172   5.238  1.0759 -0.5823  0.4632
10196TIP3   OH252002   2.023   4.561   2.609 -0.1153 -0.3489 -0.0551
10196TIP3    H152003   2.067   4.645   2.619 -1.3923  0.2469  0.6930
10196TIP3    H252004   2.081   4.510   2.552 -0.1561  1.6586 -1.9560
10197TIP3   OH252005   3.875   3.173   2.384  0.6376 -0.0454 -0.0385
10197TIP3    H152006   3.836   3.109   2.324 -0.4643  1.2586 -0.7462
10197TIP3    H252007   3.801   3.208   2.433  1.6195 -1.7243  2.7745
10198TIP3   OH252008   4.976   0.468   1.663 -0.1555  0.1188 -0.4681
10198TIP3    H152009   5.058   0.427   1.635  0.5857  1.7887 -0.7873
10198TIP3    H252010   4.963   0.540   1.601 -2.1692 -0.4541 -0.7814
10199TIP3   OH252011   3.676   0.339   2.477 -0.2334 -0.3589  0.7618
10199TIP3    H152012   3.669   0.271   2.410  0.9736  0.9859 -0.7540
10199TIP3    H252013   3.761   0.379   2.462  0.0937 -0.0993  3.1784
10200TIP3   OH252014   5.182   0.079   5.124 -0.3763 -0.8831  0.0982
10200TIP3    H152015   5.128   0.158   5.128 -1.9852 -1.9479  0.0089
10200TIP3    H252016   5.248   0.097   5.057 -1.7606 -0.2325 -1.1013
10201TIP3   OH252017   2.268   2.977  14.388  0.7328  0.4429 -0.5436
10201TIP3    H152018   2.277   2.941  14.300 -1.3793 -0.0701 -0.5828
10201TIP3    H252019   2.213   3.055  14.377 -1.0829 -0.6455  0.5397
10202TIP3   OH252020   6.365   1.041   4.253  0.1433  0.6681  0.4012
10202TIP3    H152021   6.404   0.956   4.274  2.5298  0.8715 -2.7990
10202TIP3    H252022   6.272   1.030   4.269  0.7405 -1.6988  2.5680
10203TIP3   OH252023   1.215   6.042   6.197 -0.5331 -0.6502 -0.6677
10203TIP3    H152024   1.274   5.994   6.140  0.9487  0.5995 -0.2109
10203TIP3    H252025   1.199   5.984   6.271 -0.1918 -1.1398 -0.9745
10204TIP3   OH252026   5.099   4.820  11.686  0.3899 -0.2881  0.4024
10204TIP3    H152027   5.049   4.738  11.683 -0.4152  0.1529  1.2411
10204TIP3    H252028   5.175   4.800  11.740  0.4933 -0.6431  0.1254
10205TIP3   OH252029   0.384   2.200  11.693  0.5708  0.5924 -0.3179
10205TIP3    H152030   0.419   2.142  11.625 -0.6133 -0.8067  0.2258
10205TIP3    H252031   0.461   2.231  11.740  1.1389 -2.3211  0.7831
10206TIP3   OH252032   3.588   0.184   1.173 -0.0403 -0.3515  0.2486
10206TIP3    H152033   3.667   0.135   1.150  0.1698 -0.6623  1.5931
10206TIP3    H252034   3.566   0.154   1.260 -2.5171 -1.3666 -0.6852
10207TIP3   OH252035   3.183   6.081   1.552  0.0493 -0.5747 -0.3471
10207TIP3    H152036   3.140   6.000   1.580  0.5151 -1.2329 -1.5105
10207TIP3    H252037   3.145   6.100   1.466 -0.3172  0.6443  0.0684
10208TIP3   OH252038   2.064   5.949  13.714 -0.3931  0.7438  0.1529
10208TIP3    H152039   1.979   5.919  13.683  0.5864 -2.1521  0.1152
10208TIP3    H252040   2.043   6.004  13.790 -2.2935 -0.1879  0.3434
10209TIP3   OH252041   0.403   5.533   5.117  0.0645  0.4288  0.0119
10209TIP3    H152042   0.444   5.618   5.134  0.7723 -0.1951  1.4597
10209TIP3    H252043   0.368   5.505   5.202  1.6253 -1.6558  0.0254
10210TIP3   OH252044   0.150   3.981  16.600 -0.8772 -0.1399 -0.3910
10210TIP3    H152045   0.124   4.001  16.511  0.0966  0.1212 -0.6236
10210TIP3    H252046   0.145   3.885  16.606 -0.6856 -0.1752 -0.8003
10211TIP3   OH252047   2.543   1.380   3.588 -0.6255 -0.1966 -0.1462
10211TIP3    H152048   2.621   1.342   3.629 -0.0326  0.7745 -0.3421
10211TIP3    H252049   2.541   1.342   3.501  1.1337  1.7411 -1.0716
10212TIP3   OH252050   2.214   3.269  12.304  0.0843  0.0338 -0.5969
10212TIP3    H152051   2.133   3.269  12.354  0.0290 -1.0942 -0.6623
10212TIP3    H252052   2.260   3.348  12.332 -0.8961  0.5164 -0.3368
10213TIP3   OH252053   1.799   5.737   0.945  0.4867  0.8226  0.2489
10213TIP3    H152054   1.722   5.789   0.967 -0.0444 -0.7546  2.2360
10213TIP3    H252055   1.871   5.800   0.942  0.1258  1.4868  4.0518
10214TIP3   OH252056   4.858   6.300  14.645  0.2604 -0.1290 -0.0570
10214TIP3    H152057   4.946   6.283  14.679 -0.6652 -0.3257  2.3755
10214TIP3    H252058   4.812   6.343  14.718 -1.7503 -0.2959 -1.1810
10215TIP3   OH252059   4.570   6.602  11.569 -0.3346  0.1868 -0.1894
10215TIP3    H152060   4.538   6.677  11.520 -1.2874  1.6505  2.5842
10215TIP3    H252061   4.494   6.543  11.576 -0.8213  0.9513  1.2789
10216TIP3   OH252062   5.479   0.144   4.530 -0.3151  0.3003  0.3222
10216TIP3    H152063   5.471   0.226   4.481  1.4282 -1.1040 -2.4194
10216TIP3    H252064   5.519   0.170   4.613  0.4828  2.2108 -0.6328
10217TIP3   OH252065   4.040   5.837   2.316 -0.2017  0.1080 -0.1548
10217TIP3    H152066   4.086   5.919   2.299 -1.8122  0.8343 -1.1795
10217TIP3    H252067   4.098   5.769   2.281  2.1636  0.5683  2.6566
10218TIP3   OH252068   3.610   1.255   4.990 -0.3964  0.5675 -0.2516
10218TIP3    H152069   3.556   1.178   4.970 -1.1835  0.7857  0.9622
10218TIP3    H252070   3.676   1.222   5.051 -0.9254  0.9189  0.5132
10219TIP3   OH252071   3.332   5.522   4.152  0.2600 -0.3441  0.9025
10219TIP3    H152072   3.345   5.519   4.057  1.5549 -0.0642  1.0540
10219TIP3    H252073   3.238   5.510   4.164  0.3735 -2.7245 -0.2951
10220TIP3   OH252074   2.033   1.803   2.718 -0.1972  0.0295  0.4068
10220TIP3    H152075   1.990   1.882   2.685  2.2754  0.8494 -0.9343
10220TIP3    H252076   2.090   1.775   2.646 -0.1816 -2.3358  1.2944
10221TIP3   OH252077   0.275   0.241   1.620 -0.3637 -0.1384  0.1537
10221TIP3    H152078   0.340   0.271   1.683 -2.9111  3.5874  1.1909
10221TIP3    H252079   0.224   0.175   1.668 -1.0130  1.2050  1.3566
10222TIP3   OH252080   3.609   5.712   3.793  0.3943 -0.2975  0.0905
10222TIP3    H152081   3.613   5.699   3.698 -0.3364 -0.5857  0.0980
10222TIP3    H252082   3.523   5.680   3.818  0.2411  0.6043  0.7260
10223TIP3   OH252083   1.963   0.360  15.479  0.3019  0.4623 -0.2889
10223TIP3    H152084   2.048   0.395  15.452  0.5725  0.2431  0.2721
10223TIP3    H252085   1.954   0.387  15.570 -0.8520  1.6536 -0.7521
10224TIP3   OH252086   4.984   4.329  11.911  0.0458 -0.0382 -0.0458
10224TIP3    H152087   5.045   4.398  11.883 -1.3000  0.6386 -1.4223
10224TIP3    H252088   5.020   4.298  11.994  1.6101  1.1527 -0.2334
10225TIP3   OH252089   5.004   1.359   4.531 -0.4706 -0.0691  0.2730
10225TIP3    H152090   4.976   1.311   4.609 -0.0727 -2.4330 -0.9762
10225TIP3    H252091   5.100   1.356   4.535 -0.4469 -0.6411 -0.5399
10226TIP3   OH252092   3.282   2.047   4.153 -0.2429  0.1182 -0.1725
10226TIP3    H152093   3.350   2.111   4.173 -1.7144  1.3940  0.8552
10226TIP3    H252094   3.208   2.099   4.121 -0.6807 -1.2695 -1.4618
10227TIP3   OH252095   5.156   1.040   6.095 -0.0519 -0.1805 -0.1817
10227TIP3    H152096   5.249   1.018   6.084 -0.0989 -0.2074 -0.5116
10227TIP3    H252097   5.157   1.122   6.144  0.1058 -1.9383  2.9421
10228TIP3   OH252098   4.128   3.357   5.318 -0.2658  0.4217  0.2930
10228TIP3    H152099   4.132   3.288   5.252  0.8396  1.4564 -0.7577
10228TIP3    H252100   4.055   3.412   5.291  0.4488  1.0808 -0.3196
10229TIP3   OH252101   5.772   1.292  12.275  0.1695 -0.8811 -0.2360
10229TIP3    H152102   5.746   1.249  12.356 -0.3791  0.0427  0.0948
10229TIP3    H252103   5.801   1.222  12.218  0.8641 -1.5069  0.8837
10230TIP3   OH252104   1.351   1.468  13.161 -0.5835  0.1070  0.7489
10230TIP3    H152105   1.268   1.420  13.164 -0.4082 -0.4464 -1.6717
10230TIP3    H252106   1.336   1.537  13.096 -0.0745  1.8615  2.4761
10231TIP3   OH252107   6.509   0.060   0.905 -0.3544 -0.1804 -0.0355
10231TIP3    H152108   6.513   0.089   0.996  1.8071 -0.2388 -0.0877
10231TIP3    H252109   6.555  -0.025   0.905  0.3958  0.2133 -1.3067
10232TIP3   OH252110   5.623   4.004  12.178 -0.1190 -0.0341 -0.4342
10232TIP3    H152111   5.703   4.035  12.222  0.7976 -0.8811 -1.4730
10232TIP3    H252112   5.645   4.006  12.085 -0.1617 -3.4059 -0.5627
10233TIP3   OH252113   4.356   4.750  15.321 -0.4096  0.0271 -0.2165
10233TIP3    H152114   4.289   4.757  15.253 -0.5259  1.1587  0.0079
10233TIP3    H252115   4.412   4.826  15.308  1.7477 -1.6971 -1.3382
10234TIP3   OH252116   5.301   3.814   6.562  0.0588 -0.1324 -0.2383
10234TIP3    H152117   5.379   3.761   6.578 -1.0734 -1.9336 -0.6069
10234TIP3    H252118   5.232   3.771   6.612 -0.9301  0.8332 -0.7613
10235TIP3   OH252119   1.527   2.288   6.191  0.0058 -0.4281 -0.2935
10235TIP3    H152120   1.535   2.242   6.275 -0.1884  0.4458  0.2177
10235TIP3    H252121   1.593   2.248   6.135 -0.2097 -1.3718  0.1159
10236TIP3   OH252122   4.830   1.032   2.541  0.5738 -0.2490  0.2814
10236TIP3    H152123   4.830   1.058   2.634  0.6978 -0.0165  0.2172
10236TIP3    H252124   4.882   1.100   2.497 -0.6340  0.3976 -0.1623
10237TIP3   OH252125   2.046   0.859  16.254  0.9770  0.4385  0.6772
10237TIP3    H152126   2.036   0.887  16.163 -0.0019 -1.1954  0.2676
10237TIP3    H252127   2.139   0.873  16.274  1.1803  0.8494 -0.5514
10238TIP3   OH252128   1.398   4.242   0.751 -0.4796 -0.6820 -0.2946
10238TIP3    H152129   1.389   4.147   0.756 -1.8571 -0.5572 -0.2278
10238TIP3    H252130   1.380   4.264   0.660 -1.8622 -0.3291  0.0473
10239TIP3   OH252131   5.518   0.749   1.204  0.3134 -0.0410  0.0118
10239TIP3    H152132   5.449   0.739   1.270  0.2966 -2.1566 -0.2769
10239TIP3    H252133   5.587   0.688   1.231  0.9932  0.2448 -1.0320
10240TIP3   OH252134   1.781   6.012  15.626  0.3563  0.1136 -0.2045
10240TIP3    H152135   1.694   5.990  15.658  0.4639 -1.7481 -1.1074
10240TIP3    H252136   1.767   6.086  15.567 -0.4817  0.4273  0.3763
10241TIP3   OH252137   3.626   5.163   5.336 -0.6716  0.8660 -0.0591
10241TIP3    H152138   3.695   5.180   5.399  0.3479  0.6903 -1.1162
10241TIP3    H252139   3.666   5.105   5.271 -1.5611  1.4196 -1.1299
10242TIP3   OH252140   1.804   5.174  12.097 -0.0648  0.1473  0.3026
10242TIP3    H152141   1.719   5.138  12.120 -0.0823  1.0818  1.7982
10242TIP3    H252142   1.799   5.266  12.123  1.2579  0.3077  0.0428
10243TIP3   OH252143   2.234   1.890   2.121 -0.7330  0.3068  0.2365
10243TIP3    H152144   2.325   1.866   2.141 -1.1983 -0.6618  1.2364
10243TIP3    H252145   2.229   1.983   2.141  0.0734  0.4014  0.0356
10244TIP3   OH252146   1.560   2.782   0.753 -0.0304  0.3245 -0.5936
10244TIP3    H152147   1.494   2.796   0.685 -0.6535  1.7084  0.2804
10244TIP3    H252148   1.519   2.812   0.834  0.6659 -1.4096  0.4469
10245TIP3   OH252149   3.182   3.497  15.666 -0.1960  0.0132  0.3661
10245TIP3    H152150   3.258   3.457  15.623  0.1819  1.9243 -0.8128
10245TIP3    H252151   3.107   3.470  15.612 -0.2283 -0.9442  0.8802
10246TIP3   OH252152   6.306   4.290  14.289  0.0233  0.4018 -0.0806
10246TIP3    H152153   6.354   4.310  14.209 -1.3098  2.9060 -0.3207
10246TIP3    H252154   6.247   4.365  14.300 -1.9557 -1.3593  1.5951
10247TIP3   OH252155   6.689   5.448   3.768  0.5291 -0.0155 -0.0407
10247TIP3    H152156   6.644   5.453   3.683  0.7084  0.4699 -0.1068
10247TIP3    H252157   6.622   5.417   3.829 -0.5009  2.7304  0.2943
10248TIP3   OH252158   0.037   3.644  15.120 -0.4120 -0.1161  0.4293
10248TIP3    H152159   0.067   3.646  15.029  0.1697  0.5411  0.6318
10248TIP3    H252160  -0.055   3.673  15.115  0.0282  1.3129  0.2012
10249TIP3   OH252161   2.815   4.661   2.878  0.2237 -0.4228  0.0005
10249TIP3    H152162   2.759   4.720   2.828  1.6577  0.3883 -0.6919
10249TIP3    H252163   2.769   4.577   2.876 -1.1405  0.3183 -0.2207
10250TIP3   OH252164   2.333   0.249   2.186 -0.5397 -0.2330 -0.1850
10250TIP3    H152165   2.374   0.164   2.203 -2.4770 -1.2348 -0.3961
10250TIP3    H252166   2.404   0.312   2.195  0.2696 -1.5229  3.3701
10251TIP3   OH252167   3.784   1.110  11.017  0.0525 -0.0593 -0.1122
10251TIP3    H152168   3.711   1.166  11.044  0.7508  0.6670  0.2921
10251TIP3    H252169   3.745   1.048  10.955 -1.1826 -0.5343  1.1062
10252TIP3   OH252170   3.703   6.493  11.529 -0.5423 -0.0305  0.2032
10252TIP3    H152171   3.701   6.401  11.505 -1.3012 -0.0374  0.2860
10252TIP3    H252172   3.627   6.531  11.485  1.5813  1.2220 -2.5175
10253TIP3   OH252173   6.201   6.255  15.496 -0.0230 -0.4246  0.1823
10253TIP3    H152174   6.161   6.232  15.412 -0.9879 -2.3322  1.1486
10253TIP3    H252175   6.290   6.219  15.491  0.7463  1.4700 -0.8832
10254TIP3   OH252176   2.670   3.933   2.630  0.0112  0.6623  0.1966
10254TIP3    H152177   2.673   3.858   2.689  5.2373  0.0728 -0.5453
10254TIP3    H252178   2.638   3.897   2.547 -1.4532  0.1828  0.9545
10255TIP3   OH252179   1.572   4.133  12.077 -0.2927  0.3118  0.2722
10255TIP3    H152180   1.568   4.160  12.168  0.8206  1.6975 -0.0776
10255TIP3    H252181   1.482   4.137  12.046 -0.8248 -1.1462  1.5698
10256TIP3   OH252182   1.917   1.524  14.692 -0.1966 -0.4011  0.4336
10256TIP3    H152183   1.831   1.489  14.668  0.3576 -0.3477 -1.6991
10256TIP3    H252184   1.898   1.609  14.733 -1.0850  0.5256 -1.8044
10257TIP3   OH252185   1.386   4.230   5.085  0.0887  0.1912 -0.1224
10257TIP3    H152186   1.477   4.259   5.089 -0.3629  1.8887 -1.5588
10257TIP3    H252187   1.340   4.289   5.144 -0.0254 -0.9894  0.9984
10258TIP3   OH252188   2.798   1.609   3.970 -0.1944  0.2347 -0.4549
10258TIP3    H152189   2.849   1.528   3.966 -1.4130 -0.5534 -0.2803
10258TIP3    H252190   2.708   1.582   3.950 -0.4733  1.6774 -1.2354
10259TIP3   OH252191   2.960   0.819  10.383 -0.5043  0.0744  0.7754
10259TIP3    H152192   3.029   0.884  10.375 -0.0221 -0.5346 -0.0618
10259TIP3    H252193   2.890   0.864  10.431 -0.0562  1.1066  0.4691
10260TIP3   OH252194   3.212   5.654  15.696  0.2016 -0.1628  0.3110
10260TIP3    H152195   3.279   5.649  15.628 -0.8622  2.6285 -1.0082
10260TIP3    H252196   3.135   5.613  15.656 -0.1018  0.4978  0.2041
10261TIP3   OH252197   0.067   2.349   1.294  0.0765  0.0069 -0.0598
10261TIP3    H152198   0.125   2.359   1.370  1.1898  0.1928 -0.9112
10261TIP3    H252199   0.015   2.271   1.314  1.2391 -0.6886  0.3415
10262TIP3   OH252200   3.386   3.701  15.654 -0.0640 -0.4827 -0.0380
10262TIP3    H152201   3.421   3.667  15.571 -0.3825 -0.4389 -0.1917
10262TIP3    H252202   3.315   3.641  15.677 -1.1906  0.5434 -0.7559
10263TIP3   OH252203   4.135   6.537   0.465  0.1897 -0.0070 -0.2223
10263TIP3    H152204   4.104   6.467   0.523 -0.4611 -0.0010 -0.5669
10263TIP3    H252205   4.152   6.494   0.382  0.1264  0.1822 -0.3334
10264TIP3   OH252206   1.759   5.621  13.188 -0.5608 -0.6727  0.5409
10264TIP3    H152207   1.721   5.708  13.176 -0.7556 -0.8455 -0.0947
10264TIP3    H252208   1.721   5.589  13.270 -1.1765 -0.5181  0.3177
10265TIP3   OH252209   2.555   4.485   0.133  0.3101 -0.2025  0.0829
10265TIP3    H152210   2.517   4.503   0.047  0.4112 -1.1317 -0.1633
10265TIP3    H252211   2.649   4.488   0.119  0.3254 -0.6792  0.0981
10266TIP3   OH252212   5.000   1.638  13.688  0.1000 -0.0595 -0.0105
10266TIP3    H152213   4.986   1.604  13.777 -0.0367 -0.4681 -0.1845
10266TIP3    H252214   4.957   1.573  13.631 -0.0655  0.3493 -0.3544
10267TIP3   OH252215   1.171   3.228  11.131 -0.1436  0.2303  0.8916
10267TIP3    H152216   1.142   3.307  11.086 -1.6080 -0.2206  1.0170
10267TIP3    H252217   1.217   3.178  11.064 -0.2418  0.6389  0.5140
10268TIP3   OH252218   2.816   2.044  14.048 -0.0452  0.7139  0.0907
10268TIP3    H152219   2.780   1.960  14.019 -1.6425  1.5879 -0.5369
10268TIP3    H252220   2.776   2.059  14.134  0.2941  0.7890  0.2360
10269TIP3   OH252221   3.296   1.728   2.985  0.2102 -0.0299 -0.2249
10269TIP3    H152222   3.347   1.784   2.925 -0.1607  1.7195  1.0495
10269TIP3    H252223   3.231   1.686   2.929 -0.5220  2.0514 -0.9960
10270TIP3   OH252224   3.671   5.995   5.387  0.5784 -0.3043 -0.1038
10270TIP3    H152225   3.648   5.925   5.326  1.7426  0.1513 -1.0901
10270TIP3    H252226   3.609   5.985   5.460  0.5568 -2.1712 -0.3565
10271TIP3   OH252227   0.551   2.214  12.172  0.3464  0.0172  0.5766
10271TIP3    H152228   0.607   2.155  12.221 -1.8804 -0.9226  2.0483
10271TIP3    H252229   0.506   2.266  12.238 -2.0361 -0.6569 -0.4423
10272TIP3   OH252230   5.994   3.129  10.953  0.3480  0.2350  0.0584
10272TIP3    H152231   6.080   3.086  10.949  1.1010  1.3826  2.6415
10272TIP3    H252232   5.987   3.176  10.870  1.7394 -0.7409 -0.6429
10273TIP3   OH252233   0.066   4.960   0.356  0.3739 -0.0509  0.1019
10273TIP3    H152234   0.093   5.031   0.415 -0.5616  0.3972  0.0126
10273TIP3    H252235   0.030   5.006   0.280  1.4838 -0.6262 -0.7722
10274TIP3   OH252236   2.254   5.313  15.150 -0.2067 -0.1488 -0.2932
10274TIP3    H152237   2.326   5.262  15.114 -1.6213 -0.2470 -3.1656
10274TIP3    H252238   2.251   5.392  15.096 -0.3817  1.2631  1.7202
10275TIP3   OH252239   2.727   4.821  14.914  0.1094  0.2567  0.0151
10275TIP3    H152240   2.796   4.876  14.951 -0.0839  0.2123  0.4503
10275TIP3    H252241   2.766   4.783  14.835  0.9876 -0.6905  0.8834
10276TIP3   OH252242   1.602   3.150  12.248  0.2391  0.0219  0.1367
10276TIP3    H152243   1.651   3.223  12.211 -0.6716 -0.0528 -1.2534
10276TIP3    H252244   1.534   3.192  12.302  1.1668  0.1421  1.2311
10277TIP3   OH252245   4.336   3.215   2.822  0.1783 -0.8284 -0.8141
10277TIP3    H152246   4.268   3.152   2.797 -0.7541 -0.3062  0.3812
10277TIP3    H252247   4.391   3.168   2.885 -1.2038 -0.0921  0.9747
10278TIP3   OH252248   6.571   2.467   5.687 -0.1820 -0.7775 -0.8513
10278TIP3    H152249   6.599   2.501   5.773 -0.7118 -2.5158  0.0295
10278TIP3    H252250   6.477   2.481   5.686 -0.1124 -0.3445 -1.3461
10279TIP3   OH252251   4.187   1.580   5.475  0.1116  0.4763 -0.6169
10279TIP3    H152252   4.189   1.578   5.571 -0.7272  0.0523 -0.6025
10279TIP3    H252253   4.273   1.548   5.448 -0.5358 -1.8960 -0.0132
10280TIP3   OH252254   1.652   0.662   3.397 -0.1572  0.3971 -0.0018
10280TIP3    H152255   1.564   0.636   3.370 -0.0944  1.6074 -1.3895
10280TIP3    H252256   1.648   0.660   3.493 -0.9501 -1.9744 -0.0429
10281TIP3   OH252257   3.856   0.541   1.711  0.3872  0.1724 -0.9165
10281TIP3    H152258   3.778   0.521   1.660  0.5605 -1.9059 -0.4074
10281TIP3    H252259   3.892   0.620   1.670 -2.0349  1.2329 -1.0717
10282TIP3   OH252260   5.222   1.349  14.576 -0.0076  0.4771  0.5595
10282TIP3    H152261   5.237   1.256  14.562 -1.7186  0.2803 -0.0606
10282TIP3    H252262   5.157   1.353  14.646  0.3234  1.2089  0.8301
10283TIP3   OH252263   2.058   2.522  15.747  0.1190 -0.5992  0.6271
10283TIP3    H152264   2.033   2.594  15.805 -2.4123 -0.1182 -0.9998
10283TIP3    H252265   2.127   2.559  15.692 -0.7728  0.4234  0.1843
10284TIP3   OH252266   0.410   4.904   5.919 -0.2035 -0.1613  0.5391
10284TIP3    H152267   0.477   4.886   5.853 -1.0139  0.6408 -0.5284
10284TIP3    H252268   0.344   4.836   5.904 -1.3277  1.1854 -0.8119
10285TIP3   OH252269   5.300   4.362  15.114  0.6579 -0.0832 -0.4208
10285TIP3    H152270   5.287   4.270  15.094  0.1785 -0.7331  2.6670
10285TIP3    H252271   5.220   4.405  15.082 -0.0186 -1.0385 -0.0235
10286TIP3   OH252272   5.573   5.494  11.267  0.2164  0.1683 -0.1987
10286TIP3    H152273   5.599   5.530  11.351 -1.4264 -0.2357  0.5078
10286TIP3    H252274   5.522   5.416  11.289  0.1634 -0.2033 -1.5789
10287TIP3   OH252275   4.934   0.706   1.510  0.0189 -0.2819  0.2728
10287TIP3    H152276   4.999   0.773   1.529  0.4934 -0.4299 -0.7895
10287TIP3    H252277   4.895   0.733   1.427 -1.3377 -0.1488  0.9478
10288TIP3   OH252278   0.617   0.540   2.230  0.4911 -0.0479 -0.9231
10288TIP3    H152279   0.540   0.492   2.198 -0.5238  1.4666 -0.7765
10288TIP3    H252280   0.678   0.471   2.256  0.1053 -1.2848 -3.1606
10289TIP3   OH252281   5.851   3.608   2.312  0.3244  0.0366  0.1164
10289TIP3    H152282   5.818   3.618   2.223  1.3142 -0.7879 -0.3603
10289TIP3    H252283   5.790   3.657   2.367  0.5265  1.7512 -1.1757
10290TIP3   OH252284   5.020   0.390   4.703  0.3813 -0.0471  0.3637
10290TIP3    H152285   4.930   0.359   4.696 -0.3711  1.9711  0.5982
10290TIP3    H252286   5.066   0.349   4.630 -0.9859 -0.3037 -0.3647
10291TIP3   OH252287   0.165   5.589   0.417 -0.5068  0.2892 -0.0009
10291TIP3    H152288   0.101   5.542   0.365  0.5016  0.9695 -1.9041
10291TIP3    H252289   0.125   5.674   0.434 -1.1283 -0.1855  0.9749
10292TIP3   OH252290   6.457   5.776   0.805  0.0430  0.3210  0.1566
10292TIP3    H152291   6.541   5.782   0.851 -0.2151  0.9948  0.5526
10292TIP3    H252292   6.478   5.731   0.723  0.7020  0.0495  0.4706
10293TIP3   OH252293   6.486   1.037  14.699 -0.7593 -0.0115 -0.4834
10293TIP3    H152294   6.442   0.958  14.731 -1.5029  1.2141  1.6583
10293TIP3    H252295   6.579   1.019  14.712 -0.9315 -0.5282  0.0608
10294TIP3   OH252296   2.502   2.254   2.627  0.3359  0.3599  0.0805
10294TIP3    H152297   2.485   2.196   2.552 -0.0574  0.8336 -0.1965
10294TIP3    H252298   2.430   2.236   2.687  0.9972 -0.4877  0.6345
10295TIP3   OH252299   1.285   1.978  11.137  0.2089 -0.5053 -0.1023
10295TIP3    H152300   1.195   1.950  11.118 -0.2511  1.5449 -1.2330
10295TIP3    H252301   1.336   1.948  11.061  0.3523 -1.0913  0.2250
10296TIP3   OH252302   6.240   2.412   2.993 -0.0375 -0.0186  0.1268
10296TIP3    H152303   6.248   2.318   2.975  1.4614  0.0508  0.3338
10296TIP3    H252304   6.297   2.453   2.928  1.6925  0.5340  1.9497
10297TIP3   OH252305   4.272   2.245  14.331  0.4283  0.3641  0.0858
10297TIP3    H152306   4.324   2.293  14.267  0.0753  0.9655  0.2525
10297TIP3    H252307   4.200   2.208  14.280  0.5029  0.3039  0.0232
10298TIP3   OH252308   1.308   2.982  14.874 -0.4192  0.2880 -0.1204
10298TIP3    H152309   1.289   3.054  14.813  1.2141  1.0567  0.2572
10298TIP3    H252310   1.385   2.939  14.839 -0.9065 -0.7988  0.1004
10299TIP3   OH252311   3.330   1.757   0.876  0.4096  0.3028  0.1460
10299TIP3    H152312   3.264   1.736   0.810  0.2140  3.0244 -0.5787
10299TIP3    H252313   3.390   1.682   0.873 -3.0281 -2.6488  1.4577
10300TIP3   OH252314   6.445   1.792   3.185  0.1278  0.1599  0.1686
10300TIP3    H152315   6.433   1.730   3.257  1.0955  0.9008  0.9888
10300TIP3    H252316   6.362   1.788   3.136 -0.1752 -1.0651  0.7518
10301TIP3   OH252317   4.841   3.638   1.036  0.6427  0.0118  0.1165
10301TIP3    H152318   4.901   3.659   1.108 -0.6117 -1.2181  1.5486
10301TIP3    H252319   4.840   3.717   0.982  0.3189  1.5870  2.3558
10302TIP3   OH252320   0.167   1.525  14.486 -1.5039  0.3813 -0.3804
10302TIP3    H152321   0.159   1.613  14.449  0.3154  0.6273 -0.2356
10302TIP3    H252322   0.077   1.491  14.485 -2.2561  2.2515 -0.3678
10303TIP3   OH252323   1.816   6.582   3.234  0.3141  0.7311  0.5035
10303TIP3    H152324   1.789   6.674   3.226 -0.3219  0.6952  1.9860
10303TIP3    H252325   1.891   6.584   3.293 -1.6101  0.0339  3.0753
10304TIP3   OH252326   0.320   1.079   0.451 -0.3074  0.1142 -0.1784
10304TIP3    H152327   0.292   0.988   0.462  0.3826 -0.3427 -1.9582
10304TIP3    H252328   0.239   1.128   0.441 -0.6099 -0.6847 -1.7548
10305TIP3   OH252329   4.234   1.705   2.699 -0.6881 -0.2806  0.0329
10305TIP3    H152330   4.219   1.647   2.774 -0.4497 -0.9178 -0.4091
10305TIP3    H252331   4.185   1.785   2.721 -0.5618 -0.4333  0.8947
10306TIP3   OH252332   3.009   4.539   1.053  0.0602 -0.3920 -0.5641
10306TIP3    H152333   2.961   4.616   1.024  0.1530  0.0347  0.3853
10306TIP3    H252334   3.003   4.477   0.980  0.8381  0.8820 -1.7120
10307TIP3   OH252335   0.873   5.475   2.597 -0.1720 -0.5329 -0.5673
10307TIP3    H152336   0.893   5.500   2.507 -0.2060 -2.1611 -1.0483
10307TIP3    H252337   0.950   5.502   2.648 -0.3237  0.7513 -1.0066
10308TIP3   OH252338   6.743   2.513   2.106  0.2291 -0.4399 -0.0717
10308TIP3    H152339   6.746   2.600   2.146 -0.3728 -0.3481 -0.2236
10308TIP3    H252340   6.826   2.505   2.058  0.2237  0.1026 -0.1689
10309TIP3   OH252341   4.052   5.461   3.908  0.4074  0.0052  0.4361
10309TIP3    H152342   4.134   5.444   3.954  1.8260  2.1053 -1.2680
10309TIP3    H252343   4.074   5.457   3.815 -1.2356  1.3747 -0.0459
10310TIP3   OH252344   1.856   5.202   4.821  0.6450  0.1395 -0.0618
10310TIP3    H152345   1.801   5.135   4.862  0.0382  0.2321 -0.7119
10310TIP3    H252346   1.941   5.193   4.863  0.1293 -0.0107  0.9544
10311TIP3   OH252347   3.298   3.032   5.823 -0.7376  0.6598  0.5269
10311TIP3    H152348   3.347   2.982   5.888  1.4291  0.6976 -1.0166
10311TIP3    H252349   3.275   2.968   5.755 -1.1160  1.0465  0.2835
10312TIP3   OH252350   1.343   0.714   5.342  0.2952  0.3366  0.3745
10312TIP3    H152351   1.363   0.752   5.256 -1.5124 -0.4513 -0.4195
10312TIP3    H252352   1.265   0.760   5.371 -0.1406 -0.6455  0.7842
10313TIP3   OH252353   6.648   3.920  12.182  0.2004  0.1500  0.0273
10313TIP3    H152354   6.692   3.994  12.225 -0.4579  1.1190 -0.9524
10313TIP3    H252355   6.716   3.880  12.127  0.9291 -0.8345  1.6032
10314TIP3   OH252356   2.855   1.871  11.956  0.6196  0.1492 -0.6203
10314TIP3    H152357   2.869   1.801  11.893  2.3225  0.9618 -1.1798
10314TIP3    H252358   2.819   1.943  11.905 -2.9444 -0.9181  0.2933
10315TIP3   OH252359   6.501   3.983   4.232 -0.1990  0.2242  0.1629
10315TIP3    H152360   6.557   3.909   4.258  1.6037  1.3141 -0.5244
10315TIP3    H252361   6.434   3.987   4.300 -0.1578 -1.8710  0.3598
10316TIP3   OH252362   0.991   6.632  14.866  0.3037  0.0082 -0.0152
10316TIP3    H152363   0.987   6.621  14.961 -1.0812  0.9909  0.0646
10316TIP3    H252364   1.032   6.717  14.854  0.3297 -0.0458 -0.2971
10317TIP3   OH252365   5.573   5.096  11.252 -0.1279  0.1616 -0.3714
10317TIP3    H152366   5.604   5.011  11.219 -1.0352  0.0552 -0.9848
10317TIP3    H252367   5.530   5.136  11.176  0.1353  1.0927 -0.0303
10318TIP3   OH252368   5.169   0.201   4.541 -0.1985  0.5140  0.0596
10318TIP3    H152369   5.129   0.134   4.597 -0.1593 -0.3880 -0.9759
10318TIP3    H252370   5.263   0.184   4.546 -0.2010  0.3643 -0.3474
10319TIP3   OH252371   3.572   3.007  10.486 -0.7235 -0.2537 -0.9173
10319TIP3    H152372   3.575   2.925  10.537 -0.6543 -0.9456 -2.0274
10319TIP3    H252373   3.664   3.025  10.465 -0.4041  1.7625  1.9028
10320TIP3   OH252374   3.099   1.756   3.848  0.3859 -0.2103  0.1897
10320TIP3    H152375   3.163   1.689   3.873 -0.8239 -1.4359  0.0861
10320TIP3    H252376   3.021   1.736   3.901 -0.3520  0.4575 -0.6234
10321TIP3   OH252377   1.089   4.705  12.015 -0.1431  0.0873 -0.5727
10321TIP3    H152378   1.139   4.787  12.018  1.0877 -0.6000 -1.5239
10321TIP3    H252379   1.053   4.702  11.927  0.4311 -0.7317 -0.7891
10322TIP3   OH252380   6.461   2.952  16.010  0.5481 -0.3489  0.1973
10322TIP3    H152381   6.531   2.887  16.004  0.5406 -0.3674  0.3263
10322TIP3    H252382   6.384   2.903  16.039 -0.0449 -0.7252 -1.9194
10323TIP3   OH252383   5.031   4.704   5.401 -0.4163  0.3598 -0.6247
10323TIP3    H152384   4.977   4.625   5.389 -1.2820  0.9178 -0.4927
10323TIP3    H252385   5.019   4.726   5.494 -1.2910  1.4262 -0.9787
10324TIP3   OH252386   5.584   3.720  13.445 -0.8118  0.0176  0.0007
10324TIP3    H152387   5.673   3.718  13.479 -1.0662 -2.6648  0.5980
10324TIP3    H252388   5.534   3.665  13.505 -2.8812  1.4339 -0.3629
10325TIP3   OH252389   0.171   3.043  12.705  0.3665  0.8167  0.0008
10325TIP3    H152390   0.089   3.033  12.656  1.1753  1.2319 -1.4755
10325TIP3    H252391   0.159   3.122  12.757 -0.7028  0.0835  0.9017
10326TIP3   OH252392   4.593   2.600  13.990 -0.1075 -0.1783 -0.1056
10326TIP3    H152393   4.670   2.584  14.044 -0.1770  0.3510  0.1500
10326TIP3    H252394   4.627   2.612  13.901 -0.0234 -1.3837 -0.2393
10327TIP3   OH252395   2.359   6.753  15.666  0.3397 -0.0969 -0.5024
10327TIP3    H152396   2.310   6.830  15.640 -3.0493 -1.2258  2.1508
10327TIP3    H252397   2.314   6.680  15.623  1.7171 -0.8664 -0.6624
10328TIP3   OH252398   2.071   2.755   4.960  0.1903  0.1576  0.4021
10328TIP3    H152399   2.046   2.703   4.884  0.2593 -0.7437  0.9808
10328TIP3    H252400   1.987   2.784   4.998  0.0721 -1.0958  1.1345
10329TIP3   OH252401   3.848   6.619   2.458 -0.1023  0.3840 -0.3086
10329TIP3    H152402   3.928   6.568   2.471 -0.8077 -0.3849  1.1280
10329TIP3    H252403   3.868   6.677   2.385  2.2048  1.0878  0.8519
10330TIP3   OH252404   3.911   2.761  15.463  0.3342  0.6593  0.9728
10330TIP3    H152405   3.829   2.788  15.503 -0.4620 -2.1241  1.3188
10330TIP3    H252406   3.973   2.754  15.535  0.4637  1.2148  0.9199
10331TIP3   OH252407   3.141   0.268   1.410  0.6198  0.5240  0.0972
10331TIP3    H152408   3.075   0.209   1.447  1.0126 -0.1322 -0.2522
10331TIP3    H252409   3.134   0.257   1.316  0.8135  0.9058  0.0354
10332TIP3   OH252410   0.888   3.654   1.194  0.4159 -0.0117 -1.2911
10332TIP3    H152411   0.914   3.646   1.102  1.9050 -2.3442 -0.7337
10332TIP3    H252412   0.967   3.630   1.242  0.2016  2.9793  0.6455
10333TIP3   OH252413   1.775   5.613  15.073  0.4541 -0.3283  0.6581
10333TIP3    H152414   1.753   5.706  15.077 -0.6921 -0.4941 -1.2124
10333TIP3    H252415   1.871   5.612  15.079  0.5529  1.0419 -0.2986
10334TIP3   OH252416   6.786   3.599  17.238 -0.4678 -0.1490  0.4812
10334TIP3    H152417   6.821   3.664  17.176 -1.8640  1.2401  1.1020
10334TIP3    H252418   6.767   3.522  17.184  1.8487 -0.3117 -0.1581
10335TIP3   OH252419   3.934   3.974  13.436  0.1895  0.0729  0.1938
10335TIP3    H152420   3.919   3.890  13.481  0.6452 -0.4621 -0.6503
10335TIP3    H252421   3.846   4.008  13.420 -0.0000 -0.2457  0.5343
10336TIP3   OH252422   5.728   4.659   5.284  0.1803  0.4101  0.0032
10336TIP3    H152423   5.797   4.674   5.220  1.3999  2.7248  1.7610
10336TIP3    H252424   5.765   4.594   5.344  0.6133  1.1984  0.5988
10337TIP3   OH252425   4.078   5.295  13.169  0.4016  0.0403  0.1653
10337TIP3    H152426   4.011   5.322  13.106  0.6426 -1.0148 -0.5568
10337TIP3    H252427   4.088   5.201  13.155  0.4409 -0.2109  1.8139
10338TIP3   OH252428   6.531   0.109  15.725 -0.2223 -0.3065 -0.4736
10338TIP3    H152429   6.527   0.116  15.629 -0.4585  0.5343 -0.4041
10338TIP3    H252430   6.469   0.175  15.756 -3.2374 -3.3324  0.1990
10339TIP3   OH252431   3.858   6.119   4.892  0.7723  0.0780  0.1575
10339TIP3    H152432   3.799   6.061   4.941  0.0943  0.4726 -0.1895
10339TIP3    H252433   3.918   6.153   4.959  0.5111 -0.2035  0.5395
10340TIP3   OH252434   4.274   5.283   1.240 -1.2885 -0.5174 -0.4354
10340TIP3    H152435   4.228   5.199   1.236  0.3796 -1.4782 -0.1377
10340TIP3    H252436   4.243   5.324   1.321 -1.0479 -1.4909  0.1547
10341TIP3   OH252437   1.048   4.410   1.527  0.3089 -0.0956  0.2699
10341TIP3    H152438   1.042   4.410   1.623  1.8636 -0.3623  0.3712
10341TIP3    H252439   1.031   4.319   1.502 -0.9586  0.1374  0.2139
10342TIP3   OH252440   0.150   3.346  12.437  0.3866 -0.4465 -0.0344
10342TIP3    H152441   0.221   3.363  12.499 -0.8181 -0.3390  1.3677
10342TIP3    H252442   0.167   3.406  12.364  1.4275 -0.0397  0.5306
10343TIP3   OH252443   6.078   2.586   5.021  0.6260 -0.1746 -0.8143
10343TIP3    H152444   6.119   2.522   4.962  0.9718 -0.2204 -0.5281
10343TIP3    H252445   6.137   2.589   5.097  0.7662  0.7052 -0.9545
10344TIP3   OH252446   2.965   2.616   1.206  0.5124 -0.0060 -0.4556
10344TIP3    H152447   2.953   2.622   1.111 -2.8633 -2.2295 -0.2418
10344TIP3    H252448   3.047   2.567   1.216  0.1466 -1.0331 -2.2380
10345TIP3   OH252449   5.757   3.055   2.635 -0.1803  0.5399  0.1310
10345TIP3    H152450   5.839   3.070   2.588 -1.2192  2.2037 -1.2190
10345TIP3    H252451   5.741   3.137   2.681  0.5106 -0.8753  2.9592
10346TIP3   OH252452   1.658   1.168   2.257  0.5924  0.1521  0.2560
10346TIP3    H152453   1.619   1.128   2.179  0.2045  0.5651  0.2356
10346TIP3    H252454   1.666   1.095   2.319 -1.1154  0.2431  0.6028
10347TIP3   OH252455   0.352   5.093   0.228  0.0890  0.1003  0.3008
10347TIP3    H152456   0.427   5.127   0.178 -0.0527 -0.3216 -0.2015
10347TIP3    H252457   0.282   5.086   0.163 -0.2307 -0.0184  0.6605
10348TIP3   OH252458   5.824   5.494   5.555  0.1280 -0.0272  0.2870
10348TIP3    H152459   5.906   5.449   5.537 -0.4142  0.3601 -3.6128
10348TIP3    H252460   5.848   5.567   5.612  2.7072  0.8659 -1.8762
10349TIP3   OH252461   0.340   6.006   2.575  0.1143  0.0334 -0.5040
10349TIP3    H152462   0.337   5.955   2.655 -2.2598  0.4381 -0.2985
10349TIP3    H252463   0.385   6.087   2.599 -0.0736 -0.0900  0.2635
10350TIP3   OH252464   2.959   3.399  13.088  0.2303  0.6796  0.8462
10350TIP3    H152465   3.023   3.467  13.069  1.0018 -0.1033  0.6086
10350TIP3    H252466   2.912   3.431  13.165  1.9625  0.5650  1.9968
10351TIP3   OH252467   5.620   1.619  15.897  0.0959 -0.0780  0.0191
10351TIP3    H152468   5.627   1.704  15.941 -0.7610  0.5774 -1.0538
10351TIP3    H252469   5.709   1.599  15.869  0.3979  0.2058  0.7512
10352TIP3   OH252470   1.989   0.340   0.260 -0.5996  0.0165 -0.5607
10352TIP3    H152471   1.969   0.328   0.353 -1.8383 -0.4008 -0.8720
10352TIP3    H252472   1.970   0.432   0.243  2.6664  0.9240  0.3117
10353TIP3   OH252473   0.408   0.872  10.930 -0.6558  0.2909 -0.0626
10353TIP3    H152474   0.376   0.957  10.900  1.4081  0.9639 -0.4549
10353TIP3    H252475   0.451   0.834  10.853 -0.7192 -0.6811  0.3698
10354TIP3   OH252476   1.458   6.781  13.611  0.6497  0.0762 -0.0190
10354TIP3    H152477   1.376   6.802  13.565  1.0891  0.7841 -0.4867
10354TIP3    H252478   1.446   6.691  13.641 -0.7285  0.5341  0.8359
10355TIP3   OH252479   2.341   6.257  15.616  0.9815 -0.3179 -0.8553
10355TIP3    H152480   2.364   6.227  15.704  0.7430 -0.6445 -0.9047
10355TIP3    H252481   2.386   6.195  15.557  0.4281 -0.6223 -0.9563
10356TIP3   OH252482   4.659   6.540  13.015  0.5452 -0.1741 -0.4408
10356TIP3    H152483   4.731   6.595  12.984 -0.2743  0.8517 -0.5527
10356TIP3    H252484   4.580   6.590  12.994 -0.1971 -1.2369 -0.2156
10357TIP3   OH252485   6.381   0.915  15.909  0.1664  0.0359  0.1264
10357TIP3    H152486   6.302   0.945  15.864 -0.3786 -2.1364 -0.3975
10357TIP3    H252487   6.439   0.885  15.838  1.5206  1.6570  0.4982
10358TIP3   OH252488   2.908   6.530  11.047  0.2238  0.5035  0.3689
10358TIP3    H152489   2.812   6.530  11.040  0.2636  1.5744 -0.2819
10358TIP3    H252490   2.932   6.623  11.053  1.5851  0.7322 -5.4265
10359TIP3   OH252491   2.290   6.756   5.074  0.2081  0.3714  0.0899
10359TIP3    H152492   2.229   6.827   5.053 -1.2298 -1.2009 -1.1569
10359TIP3    H252493   2.259   6.722   5.157 -0.2743 -0.0305 -0.2476
10360TIP3   OH252494   1.788   4.448  12.053  0.2640  0.2362  0.1989
10360TIP3    H152495   1.765   4.452  11.960 -0.6045  0.4574  0.4150
10360TIP3    H252496   1.867   4.501  12.061  0.0912  0.5775 -0.3460
10361TIP3   OH252497   3.288   6.690   1.355 -0.0491 -0.2594  0.2599
10361TIP3    H152498   3.227   6.680   1.283  0.1014  0.4597  0.0242
10361TIP3    H252499   3.239   6.664   1.433 -0.5671  0.0581  0.0376
10362TIP3   OH252500   4.380   3.497  12.987 -0.0284 -0.8065 -0.3418
10362TIP3    H152501   4.454   3.439  13.004 -0.6357 -2.0798 -1.8966
10362TIP3    H252502   4.307   3.457  13.036  0.5683  1.1491  2.2396
10363TIP3   OH252503   3.830   3.122  11.259 -0.7715  0.4193 -0.1496
10363TIP3    H152504   3.912   3.081  11.288 -0.3057  1.5639  0.2118
10363TIP3    H252505   3.839   3.130  11.164 -0.7970 -0.1789 -0.1985
10364TIP3   OH252506   2.546   1.682   4.709 -0.4099  0.7262  0.5532
10364TIP3    H152507   2.481   1.643   4.768  0.4720 -1.4317  0.1699
10364TIP3    H252508   2.549   1.623   4.634  1.2375  1.3587  0.1013
10365TIP3   OH252509   4.617   5.736  16.191  0.0621  0.3893  0.3148
10365TIP3    H152510   4.684   5.793  16.229  1.1860  1.0513 -2.5384
10365TIP3    H252511   4.656   5.649  16.191 -0.7559 -0.0139  2.5244
10366TIP3   OH252512   1.009   5.642   0.378 -0.1713  0.0643  0.1580
10366TIP3    H152513   0.945   5.701   0.339  0.4683  1.7265  1.5707
10366TIP3    H252514   0.964   5.602   0.452 -0.4161 -0.7934 -0.4466
10367TIP3   OH252515   0.384   6.591  11.680  0.4707  0.0650  0.1914
10367TIP3    H152516   0.449   6.523  11.692 -0.2802 -0.6112  0.4252
10367TIP3    H252517   0.424   6.651  11.617  2.3886  1.0406  2.2767
10368TIP3   OH252518   1.424   0.687   0.637 -0.5618  0.0832 -0.8086
10368TIP3    H152519   1.384   0.760   0.590 -0.4369  0.1219 -0.8544
10368TIP3    H252520   1.517   0.695   0.619 -0.6325 -0.5788 -1.4975
10369TIP3   OH252521   0.733   4.528  15.491 -0.3685 -0.4984 -0.3858
10369TIP3    H152522   0.771   4.442  15.509  0.0251 -0.6425 -1.8478
10369TIP3    H252523   0.666   4.511  15.426 -2.3478 -0.1069  1.5051
10370TIP3   OH252524   6.525   0.016  16.736  0.5345  0.1126 -0.0295
10370TIP3    H152525   6.481  -0.048  16.792 -2.0861 -0.5576 -2.7190
10370TIP3    H252526   6.519   0.098  16.784 -0.0697 -0.7760  1.4426
10371TIP3   OH252527   1.630   1.889   1.470  0.5455  0.1270 -0.0159
10371TIP3    H152528   1.583   1.860   1.393 -0.0964 -0.0897  0.4517
10371TIP3    H252529   1.563   1.900   1.537  1.2392 -0.8356  0.8504
10372TIP3   OH252530   0.930   3.097   0.021  0.5249 -0.4799  0.1268
10372TIP3    H152531   0.989   3.045   0.075  0.6539  0.0988  0.5557
10372TIP3    H252532   0.958   3.188   0.036  0.5048 -0.3051 -0.8468
10373TIP3   OH252533   3.235   1.206   4.068 -0.1437  0.1739 -0.1886
10373TIP3    H152534   3.289   1.214   3.989  0.1456  1.4448  0.1353
10373TIP3    H252535   3.216   1.296   4.094  1.0602 -0.1992  2.0942
10374TIP3   OH252536   6.522   3.477   4.228 -0.1015 -0.3053  0.4929
10374TIP3    H152537   6.533   3.434   4.144  1.4278 -2.4623  1.7655
10374TIP3    H252538   6.438   3.524   4.220  0.0228 -0.4888 -2.1826
10375TIP3   OH252539   1.693   5.709   0.011  0.4531  0.2060  0.5018
10375TIP3    H152540   1.736   5.794   0.002  0.8069  0.1448  1.6220
10375TIP3    H252541   1.744   5.651  -0.045  0.8200  0.5045  0.5199
10376TIP3   OH252542   1.451   2.247  11.083  0.0364  0.2755  0.0845
10376TIP3    H152543   1.427   2.296  11.004  0.7342  0.0792 -0.2555
10376TIP3    H252544   1.537   2.211  11.063  0.2222  0.2402  0.9510
10377TIP3   OH252545   3.422   0.596  10.724  0.0175  0.1031 -0.0659
10377TIP3    H152546   3.368   0.518  10.719  1.5889 -1.0036 -0.2049
10377TIP3    H252547   3.478   0.591  10.646 -0.3803  1.7707 -0.4888
10378TIP3   OH252548   1.254   3.743  11.640  0.5971 -0.5274 -0.0566
10378TIP3    H152549   1.261   3.711  11.730  0.2906 -0.1359  0.1074
10378TIP3    H252550   1.181   3.693  11.602 -0.2783  0.4063  0.3854
10379TIP3   OH252551   2.794   0.805   2.683 -0.1056 -0.1143 -0.4986
10379TIP3    H152552   2.867   0.814   2.745 -2.1778  0.8819  1.8577
10379TIP3    H252553   2.727   0.757   2.731 -1.2572 -0.4981 -2.4442
10380TIP3   OH252554   3.234   5.364  13.354  0.1157 -0.0909  0.1851
10380TIP3    H152555   3.217   5.307  13.279  1.4443  1.0160 -0.9885
10380TIP3    H252556   3.148   5.393  13.383 -0.4644 -1.3682 -0.2558
10381TIP3   OH252557   1.712   6.491   5.588  0.2524  0.0406 -0.3428
10381TIP3    H152558   1.641   6.450   5.638  1.3633 -1.9686 -0.3518
10381TIP3    H252559   1.673   6.511   5.503 -0.2053 -1.5361 -0.5343
10382TIP3   OH252560   2.104   5.220   1.320  0.2025 -0.0879 -0.3082
10382TIP3    H152561   2.172   5.283   1.345  0.0563 -0.3771  0.8436
10382TIP3    H252562   2.151   5.137   1.309  0.4555  0.2835 -2.1969
10383TIP3   OH252563   1.058   2.803  14.208 -0.0284 -0.0755  0.2867
10383TIP3    H152564   1.107   2.880  14.179 -0.3768  0.4506  1.0980
10383TIP3    H252565   1.047   2.815  14.302 -3.1504  0.6432 -0.1234
10384TIP3   OH252566   4.075   5.959   1.839  0.3562 -0.0518  0.2485
10384TIP3    H152567   4.069   5.988   1.930 -0.0366 -0.3752  0.3267
10384TIP3    H252568   4.124   6.028   1.795 -1.4039  1.2344  0.2220
10385TIP3   OH252569   5.729   0.081   2.499  0.0055 -0.1349  0.3929
10385TIP3    H152570   5.688   0.163   2.470 -0.7979 -0.3181  0.9768
10385TIP3    H252571   5.811   0.077   2.451 -0.3190  0.6230 -0.2456
10386TIP3   OH252572   3.757   4.740  11.036 -0.0043  0.4651  0.0546
10386TIP3    H152573   3.764   4.705  11.125  1.5251 -1.0125 -0.6148
10386TIP3    H252574   3.688   4.806  11.041 -0.7568 -0.4447  2.0634
10387TIP3   OH252575   3.768   3.170   1.807 -0.2613 -0.0426  0.1644
10387TIP3    H152576   3.686   3.147   1.763 -0.3047 -1.7100  1.0547
10387TIP3    H252577   3.836   3.130   1.753 -0.1817 -0.4934  0.6027
10388TIP3   OH252578   2.654   3.263  12.294 -0.2308  0.4601 -0.2085
10388TIP3    H152579   2.606   3.234  12.217 -2.7342  0.5465  1.2630
10388TIP3    H252580   2.680   3.353  12.274 -0.2244  0.2354 -1.2330
10389TIP3   OH252581   0.513   3.699   2.005  0.1520  0.2921  0.2308
10389TIP3    H152582   0.515   3.705   2.101  2.1758  0.8320  0.1828
10389TIP3    H252583   0.484   3.785   1.976  0.8243  0.5436  0.3152
10390TIP3   OH252584   5.047   2.703   1.985  0.0519  0.0509 -0.4224
10390TIP3    H152585   4.968   2.741   2.023  0.1616 -0.6765  0.5527
10390TIP3    H252586   5.015   2.632   1.929  0.1261 -2.3042  2.3830
10391TIP3   OH252587   3.951   0.131   0.731 -0.3069 -0.1249 -0.2246
10391TIP3    H152588   3.974   0.219   0.703 -1.9595 -0.3157 -2.2795
10391TIP3    H252589   3.857   0.133   0.744 -0.3782 -1.6173 -0.3830
10392TIP3   OH252590   5.282   2.475  14.786  0.0565 -0.7150  0.1072
10392TIP3    H152591   5.365   2.441  14.755  0.4955  0.8654 -0.5102
10392TIP3    H252592   5.224   2.471  14.709 -0.0322 -0.5631  0.1636
10393TIP3   OH252593   6.236   5.759  13.162  0.4851 -0.3215 -0.4087
10393TIP3    H152594   6.293   5.827  13.127  0.5766 -0.2804 -0.1790
10393TIP3    H252595   6.227   5.780  13.255 -2.6729  1.6728 -1.0663
10394TIP3   OH252596   4.382   3.155  15.247 -0.0010  0.5973  0.0747
10394TIP3    H152597   4.299   3.198  15.228  0.1938  0.2586 -1.5645
10394TIP3    H252598   4.400   3.101  15.170  0.7007 -0.9554  1.2878
10395TIP3   OH252599   4.654   0.157  16.518 -0.0488 -0.8126  0.1060
10395TIP3    H152600   4.575   0.173  16.466  1.7496  2.1878 -1.8233
10395TIP3    H252601   4.650   0.221  16.589  0.5489 -0.7890  0.1240
10396TIP3   OH252602   0.822   4.217  12.041  0.2428 -0.4817 -0.8734
10396TIP3    H152603   0.822   4.172  12.126  2.1459  2.7643  0.9386
10396TIP3    H252604   0.732   4.245  12.028 -0.8554 -4.1156 -1.7370
10397TIP3   OH252605   6.693   6.736  10.931 -0.2709  0.3587  0.1020
10397TIP3    H152606   6.710   6.814  10.878 -2.8728  0.1394 -1.1379
10397TIP3    H252607   6.611   6.754  10.976 -0.2328 -1.1546  0.8378
10398TIP3   OH252608   2.699   1.079  15.455  0.2415  0.2259  0.2947
10398TIP3    H152609   2.672   1.145  15.519  0.1280  0.0437  0.4352
10398TIP3    H252610   2.621   1.026  15.440 -0.4234  1.7611 -1.8364
10399TIP3   OH252611   3.198   5.032  15.798  0.0979 -0.0950 -0.0609
10399TIP3    H152612   3.133   4.972  15.762  1.1343 -0.8377 -0.6918
10399TIP3    H252613   3.206   5.007  15.890 -1.8221  1.1645  0.4726
10400TIP3   OH252614   4.147   3.855  14.602  0.2150  0.0878  0.1809
10400TIP3    H152615   4.187   3.930  14.557  2.2962 -0.7874  0.5319
10400TIP3    H252616   4.056   3.882  14.617  0.9572  2.5735  0.3785
10401TIP3   OH252617   2.574   6.079  14.445  0.1189  0.2282  0.3190
10401TIP3    H152618   2.544   6.031  14.522  0.2574  2.1759  1.6103
10401TIP3    H252619   2.501   6.072  14.383  0.0225 -1.3655  0.5950
10402TIP3   OH252620   4.295   4.973  14.826  0.5963 -0.2541  0.3011
10402TIP3    H152621   4.216   4.947  14.778  0.6209  0.0661  0.0835
10402TIP3    H252622   4.365   4.919  14.788  1.2969  2.4527 -2.5228
10403TIP3   OH252623   1.591   1.377   1.686 -0.0995  0.1638  0.0042
10403TIP3    H152624   1.623   1.290   1.661 -1.2299 -0.6648  1.3809
10403TIP3    H252625   1.618   1.386   1.777  0.7068  1.6086 -0.3654
10404TIP3   OH252626   1.758   4.834   5.478 -0.0031  0.0560 -0.3022
10404TIP3    H152627   1.787   4.925   5.468 -0.5766  0.1084 -1.6055
10404TIP3    H252628   1.699   4.836   5.554 -1.1321  1.0554 -1.1864
10405TIP3   OH252629   5.864   3.121   4.668 -0.2196 -0.0462  0.2712
10405TIP3    H152630   5.859   3.203   4.718 -1.8284  0.4438 -0.6710
10405TIP3    H252631   5.954   3.120   4.634 -0.2896  1.4986 -0.0081
10406TIP3   OH252632   4.439   6.077  15.914  0.5579 -0.0324 -0.2517
10406TIP3    H152633   4.388   6.065  15.994  1.0970  0.3387  0.1549
10406TIP3    H252634   4.529   6.061  15.941  0.8156  0.7683 -0.6325
10407TIP3   OH252635   1.481   0.677   1.482 -0.3032 -0.2447  0.3199
10407TIP3    H152636   1.528   0.603   1.442  0.1517 -0.1019  0.5848
10407TIP3    H252637   1.550   0.730   1.522 -0.4704  1.2109 -1.2941
10408TIP3   OH252638   0.232   5.233   5.442 -0.0045 -0.0653  0.1183
10408TIP3    H152639   0.165   5.206   5.506  0.3325 -0.6208  0.2386
10408TIP3    H252640   0.307   5.178   5.462  0.1481 -0.1389 -0.6769
10409TIP3   OH252641   3.871   0.674   4.695 -0.0648  0.1606  0.3623
10409TIP3    H152642   3.838   0.586   4.678 -2.0666  0.8778  0.3867
10409TIP3    H252643   3.921   0.665   4.776  0.5340 -1.1406 -0.1406
10410TIP3   OH252644   3.178   3.008   5.294  0.3669  0.1218 -0.2173
10410TIP3    H152645   3.150   3.016   5.203  0.0410  2.2882  0.0399
10410TIP3    H252646   3.096   3.004   5.344  0.4999  1.9435  0.1854
10411TIP3   OH252647   2.692   0.455  15.441 -0.0354 -0.4291 -0.2309
10411TIP3    H152648   2.655   0.485  15.358 -1.0687 -0.3451  0.2455
10411TIP3    H252649   2.767   0.513  15.456 -0.3205  0.0795 -0.7165
10412TIP3   OH252650   5.970   4.801   1.172  0.0183  0.2826 -0.2996
10412TIP3    H152651   5.933   4.842   1.095 -1.2817 -0.5630 -0.1418
10412TIP3    H252652   6.058   4.773   1.145  0.2701  1.6287 -0.9004
10413TIP3   OH252653   6.061   1.452   3.596  0.4000 -0.3347  0.1107
10413TIP3    H152654   6.110   1.503   3.660  1.6316 -0.2422 -0.8855
10413TIP3    H252655   5.980   1.428   3.641 -0.1935  2.4325  0.6051
10414TIP3   OH252656   5.241   6.759   1.098  0.2720  0.2963  0.1735
10414TIP3    H152657   5.291   6.681   1.123  0.6666  0.4565 -0.1252
10414TIP3    H252658   5.307   6.825   1.078 -0.0067 -0.1891 -2.4775
10415TIP3   OH252659   6.090   5.165  16.932 -0.4346 -0.1434 -0.7440
10415TIP3    H152660   6.098   5.090  16.991 -2.0316  0.2320 -0.0188
10415TIP3    H252661   6.154   5.148  16.863  1.4314 -0.6181  1.0593
10416TIP3   OH252662   0.447   3.116   3.254  0.0862  0.2480 -0.1703
10416TIP3    H152663   0.537   3.126   3.284  0.3322  0.1976 -0.8753
10416TIP3    H252664   0.446   3.031   3.209 -0.3612  0.1548  0.0157
10417TIP3   OH252665   5.204   3.462   0.941  0.0728  0.2411  0.1199
10417TIP3    H152666   5.190   3.509   1.023  2.5204  0.1161  0.6279
10417TIP3    H252667   5.123   3.477   0.891 -1.0317  1.1507  2.1197
10418TIP3   OH252668   5.766   0.612  15.513 -0.2392  0.1093 -1.0601
10418TIP3    H152669   5.778   0.517  15.523  1.0836  0.3505 -0.2420
10418TIP3    H252670   5.769   0.626  15.419  0.7497 -0.5227 -1.1311
10419TIP3   OH252671   5.508   3.367  15.500  0.0846  0.0563 -0.0476
10419TIP3    H152672   5.426   3.320  15.514  0.2002  0.2719  1.3986
10419TIP3    H252673   5.572   3.318  15.552  0.1708  1.9201  1.6462
10420TIP3   OH252674   1.280   2.326   5.526  0.1795  0.5295 -0.5293
10420TIP3    H152675   1.299   2.236   5.498 -2.6089 -0.8261  1.7137
10420TIP3    H252676   1.295   2.379   5.448  1.5722 -1.9001 -1.9768
10421TIP3   OH252677   0.258   5.688  12.407 -0.3051 -0.0597 -0.7977
10421TIP3    H152678   0.203   5.759  12.373  1.7421  1.2753 -1.3693
10421TIP3    H252679   0.315   5.664  12.334  1.6819  0.4036  0.5631
10422TIP3   OH252680   6.088   3.354  12.880  0.4329  0.4452 -0.3267
10422TIP3    H152681   6.068   3.278  12.935  0.1210  0.6981 -0.0866
10422TIP3    H252682   6.040   3.427  12.921  3.0080  1.3901  1.1434
10423TIP3   OH252683   1.852   1.790   0.877  1.0200  0.5928 -0.6141
10423TIP3    H152684   1.947   1.795   0.889  0.9692  0.0430  0.0081
10423TIP3    H252685   1.823   1.723   0.939  0.0625  1.6708  0.1290
10424TIP3   OH252686   4.275   4.029  13.642  0.2262 -0.3854  1.2121
10424TIP3    H152687   4.312   4.013  13.729  0.6914  1.3501  1.3566
10424TIP3    H252688   4.182   4.045  13.658  0.4156  0.5049  1.4755
10425TIP3   OH252689   3.907   0.359  14.075  0.5241 -0.8014 -0.3975
10425TIP3    H152690   3.844   0.294  14.042 -3.2001  1.9971  0.8444
10425TIP3    H252691   3.938   0.324  14.158 -0.1764 -1.7595 -0.5404
10426TIP3   OH252692   0.106   4.454  16.556  0.2945  0.0305 -0.0437
10426TIP3    H152693   0.153   4.439  16.474 -1.2272  1.6545 -1.2610
10426TIP3    H252694   0.143   4.535  16.590 -0.7223  0.6702 -0.4027
10427TIP3   OH252695   0.204   5.960   5.379 -0.5893 -0.0154  0.5566
10427TIP3    H152696   0.208   6.049   5.412  0.9437  0.6849 -1.4123
10427TIP3    H252697   0.259   5.909   5.438  0.0416  0.7233  0.6110
10428TIP3   OH252698   0.954   0.590  10.784  0.1919  0.2323  0.5966
10428TIP3    H152699   0.866   0.605  10.751 -0.9769 -0.0589  3.4521
10428TIP3    H252700   0.968   0.496  10.775  0.6051  0.4101 -0.7360
10429TIP3   OH252701   2.833   1.476  11.593  0.1729  0.1972 -0.1803
10429TIP3    H152702   2.901   1.533  11.557 -0.7472  3.5668  3.1154
10429TIP3    H252703   2.752   1.506  11.553 -0.2503  0.9001  1.1736
10430TIP3   OH252704   0.052   4.523  16.144 -0.7115  0.2437 -0.6468
10430TIP3    H152705   0.015   4.481  16.067 -1.4127 -0.7412  0.2073
10430TIP3    H252706   0.142   4.492  16.148 -0.3487  1.1333 -1.6478
10431TIP3   OH252707   6.293   3.224   3.401 -0.4625  0.0128  0.1509
10431TIP3    H152708   6.310   3.261   3.488  1.6445  0.1486 -0.3021
10431TIP3    H252709   6.269   3.299   3.347  0.9940  0.3292 -0.0657
10432TIP3   OH252710   5.167   0.420  13.847 -0.2096  0.1399 -0.1094
10432TIP3    H152711   5.204   0.444  13.931  1.1526  1.3796 -1.0407
10432TIP3    H252712   5.238   0.377  13.800 -1.3452 -1.7782 -0.1389
10433TIP3   OH252713   2.434   6.275  15.003 -0.1700  0.3449 -0.3816
10433TIP3    H152714   2.364   6.276  15.068 -1.7924 -0.5064 -2.0607
10433TIP3    H252715   2.465   6.366  14.999  1.1008  0.0861  2.7418
10434TIP3   OH252716   4.214   1.121   5.148 -0.0327 -0.3960  0.7289
10434TIP3    H152717   4.232   1.211   5.122  1.5300 -0.8115  0.3349
10434TIP3    H252718   4.166   1.083   5.074 -1.8745  0.4816  1.4469
10435TIP3   OH252719   5.916   3.796  10.744  0.4185 -0.3368  0.1255
10435TIP3    H152720   5.833   3.802  10.697  0.4004 -0.4904  0.1371
10435TIP3    H252721   5.930   3.884  10.780  0.6813 -0.0869 -0.5863
10436TIP3   OH252722   5.502   3.378  14.926 -0.3238  0.9656  0.3285
10436TIP3    H152723   5.447   3.454  14.907  0.4613  0.9646 -2.0713
10436TIP3    H252724   5.443   3.303  14.921 -0.2062  0.9934 -1.9199
10437TIP3   OH252725   5.974   0.776  12.646  0.3006 -0.3034  0.7427
10437TIP3    H152726   5.942   0.696  12.603 -0.5792  0.5410 -0.1719
10437TIP3    H252727   6.067   0.778  12.626 -0.1179  0.1231 -1.1786
10438TIP3   OH252728   3.447   0.888   0.901  0.1435  0.7034  0.4989
10438TIP3    H152729   3.536   0.860   0.880 -0.2388  0.3698 -0.7375
10438TIP3    H252730   3.414   0.821   0.962 -0.7678 -1.6474 -2.4446
10439TIP3   OH252731   3.929   3.532  14.692  0.4189 -0.0194  0.2316
10439TIP3    H152732   3.834   3.535  14.677  0.3996 -0.5054  0.2671
10439TIP3    H252733   3.967   3.538  14.604  0.3363 -0.8968  0.1321
10440TIP3   OH252734   1.623   4.625   0.784 -0.0006 -0.8246  0.1380
10440TIP3    H152735   1.552   4.646   0.723 -0.7687 -0.7831  1.0285
10440TIP3    H252736   1.584   4.563   0.846  1.0641 -1.6703 -0.0108
10441TIP3   OH252737   5.712   1.058   0.082  0.3189 -0.0903  0.1093
10441TIP3    H152738   5.677   1.116   0.149  1.1338  1.4780 -0.7940
10441TIP3    H252739   5.754   1.117   0.019  1.8913 -1.7127 -0.3900
10442TIP3   OH252740   4.402   0.311   1.254  0.6377  0.0786  0.1583
10442TIP3    H152741   4.326   0.368   1.244  0.7978  0.2754  0.0336
10442TIP3    H252742   4.444   0.342   1.335 -0.0077 -0.7396  0.8182
10443TIP3   OH252743   1.309   3.460  12.948 -0.2288 -0.0395 -0.0583
10443TIP3    H152744   1.219   3.483  12.927 -0.7319 -1.4372  0.4853
10443TIP3    H252745   1.335   3.398  12.879  0.4370  0.6200 -0.4116
10444TIP3   OH252746   2.060   1.475   4.185  0.2029 -0.0288 -0.5473
10444TIP3    H152747   2.019   1.389   4.180  1.1518 -0.4695 -0.7211
10444TIP3    H252748   2.071   1.502   4.094 -1.2228  0.8218 -0.4849
10445TIP3   OH252749   4.063   0.388  15.092  0.0561  0.2312 -0.5594
10445TIP3    H152750   4.129   0.420  15.153  0.7526 -0.4482 -0.9363
10445TIP3    H252751   3.979   0.411  15.132  0.5145  0.3780  0.3273
10446TIP3   OH252752   6.359   4.540  12.925 -0.0610  0.6464  0.1040
10446TIP3    H152753   6.364   4.456  12.880 -2.4550  0.1445  0.7274
10446TIP3    H252754   6.383   4.605  12.858 -0.5487 -0.3364 -1.0270
10447TIP3   OH252755   0.333   2.964   1.745 -0.6210 -0.8225  0.0113
10447TIP3    H152756   0.357   2.968   1.652  4.5702 -2.6779  1.1426
10447TIP3    H252757   0.305   2.874   1.759 -2.5166 -0.2526  0.0780
10448TIP3   OH252758   1.324   2.070   3.291  0.2627  0.3977 -0.3018
10448TIP3    H152759   1.315   2.037   3.381  2.5314  3.1809  1.0236
10448TIP3    H252760   1.417   2.089   3.282 -0.1047  1.0659 -2.9216
10449TIP3   OH252761   1.584   0.184  15.570  0.1010  0.2741 -0.1424
10449TIP3    H152762   1.675   0.201  15.595  0.2681 -1.9576  0.8656
10449TIP3    H252763   1.538   0.176  15.653 -0.3063 -2.1984 -0.5787
10450TIP3   OH252764   1.392   2.612  11.318  0.5403  0.4937  0.3079
10450TIP3    H152765   1.318   2.573  11.271  1.2880  0.5997 -1.0091
10450TIP3    H252766   1.380   2.586  11.409  1.3769 -3.4618 -0.5981
10451TIP3   OH252767   0.072   4.755   5.192  0.0871  0.3870  0.0235
10451TIP3    H152768   0.026   4.755   5.276  0.2533 -1.0606  0.1329
10451TIP3    H252769   0.140   4.821   5.202 -0.8261  1.2651  0.5038
10452TIP3   OH252770   1.865   6.108  15.894  0.5148 -0.5960  0.2056
10452TIP3    H152771   1.810   6.051  15.840 -0.2779 -1.1856  1.6010
10452TIP3    H252772   1.952   6.070  15.887  0.6909  0.1506 -1.7591
10453TIP3   OH252773   6.717   4.034   3.296  0.5972  0.2065  0.0435
10453TIP3    H152774   6.675   4.101   3.242  0.6147  1.1400  1.1683
10453TIP3    H252775   6.671   4.039   3.380 -0.7274 -2.5353 -0.4492
10454TIP3   OH252776   1.725   3.633   1.803 -0.1211  0.9448 -0.2964
10454TIP3    H152777   1.727   3.545   1.765 -2.5016 -0.1027  1.8922
10454TIP3    H252778   1.803   3.636   1.859  0.7713  0.7806 -1.5049
10455TIP3   OH252779   4.953   5.582  16.906  0.5845  0.3573 -0.4576
10455TIP3    H152780   5.043   5.584  16.940  0.9092  0.4277 -1.3190
10455TIP3    H252781   4.927   5.674  16.903 -0.0179  0.2602  1.0809
10456TIP3   OH252782   0.792   1.979   0.820  0.8976  0.4596  0.2304
10456TIP3    H152783   0.734   1.917   0.777  0.0633  0.8786  0.7536
10456TIP3    H252784   0.786   2.059   0.768  0.7111  0.6288  0.5151
10457TIP3   OH252785   4.548   0.445   3.038  0.3917 -0.0861 -0.4780
10457TIP3    H152786   4.487   0.420   2.968 -0.6428  0.9499  0.0373
10457TIP3    H252787   4.631   0.405   3.012 -0.0381  0.0556 -2.1588
10458TIP3   OH252788   0.059   0.002   5.252  0.8814 -0.6066 -0.0872
10458TIP3    H152789   0.031  -0.086   5.230  1.5302 -0.8310 -0.0216
10458TIP3    H252790   0.154  -0.005   5.265  0.6071 -0.4173  2.3337
10459TIP3   OH252791   1.805   1.659  15.349 -0.1419  0.7479 -0.1134
10459TIP3    H152792   1.764   1.597  15.290 -0.5562  0.4004  0.5298
10459TIP3    H252793   1.894   1.670  15.315 -0.5245  0.9179 -1.0610
10460TIP3   OH252794   1.102   0.250  11.436  0.9032  0.2550 -0.3715
10460TIP3    H152795   1.088   0.285  11.524  3.4291  1.1684 -0.2978
10460TIP3    H252796   1.082   0.157  11.443  0.5150  0.4335  1.0161
10461TIP3   OH252797   5.048   6.159   0.333  0.0936 -0.0102  0.1028
10461TIP3    H152798   4.993   6.228   0.369  0.0195  0.4140 -0.8098
10461TIP3    H252799   4.989   6.108   0.277  0.0652 -1.0258  1.0444
10462TIP3   OH252800   4.809   5.888   3.104 -0.7700  0.2016  0.3026
10462TIP3    H152801   4.859   5.969   3.091  0.4604 -0.5427  0.3234
10462TIP3    H252802   4.876   5.820   3.109 -1.9336 -1.3882 -3.7635
10463TIP3   OH252803   3.454   0.037   0.089 -0.1999 -0.1836 -0.3561
10463TIP3    H152804   3.404   0.036   0.171  0.5208 -1.2978  0.0859
10463TIP3    H252805   3.445  -0.052   0.054  0.6667 -0.1143 -0.7637
10464TIP3   OH252806   0.219   6.267   2.359  0.0300  0.4060 -0.1325
10464TIP3    H152807   0.281   6.201   2.326 -0.0478 -0.2769  1.0663
10464TIP3    H252808   0.134   6.236   2.327 -0.2551 -1.1565  2.0469
10465TIP3   OH252809   5.663   5.010   2.291  0.0178  0.7880  0.1332
10465TIP3    H152810   5.644   5.091   2.244  0.5616 -0.6672 -2.7217
10465TIP3    H252811   5.602   4.946   2.253  2.7281 -1.1999 -1.0029
10466TIP3   OH252812   2.028   3.619   4.702 -0.0965 -0.7101 -0.3907
10466TIP3    H152813   2.119   3.639   4.678 -0.2616  0.1504 -0.3100
10466TIP3    H252814   2.013   3.532   4.667  0.7315 -0.8145 -0.5003
10467TIP3   OH252815   1.924   4.775   4.282  0.0835 -0.2109 -0.0203
10467TIP3    H152816   1.832   4.798   4.287 -0.0009 -0.5304 -0.0785
10467TIP3    H252817   1.961   4.805   4.365  0.0382  0.3981 -0.2215
10468TIP3   OH252818   0.459   3.310   4.865  0.5998 -0.5207  0.1611
10468TIP3    H152819   0.385   3.358   4.830  0.4309 -0.8123  0.1162
10468TIP3    H252820   0.505   3.373   4.921 -0.2434 -0.6359  0.9887
10469TIP3   OH252821   3.238   1.914   2.429  0.2428 -0.0671 -0.1459
10469TIP3    H152822   3.243   1.822   2.404  0.8075  0.4659 -2.1235
10469TIP3    H252823   3.219   1.960   2.347 -0.2282  1.5648  0.8420
10470TIP3   OH252824   5.822   6.631  15.427 -0.6017  0.3584  0.0591
10470TIP3    H152825   5.910   6.596  15.442 -1.1972 -1.1630  0.0295
10470TIP3    H252826   5.811   6.697  15.496 -0.1492 -0.7505  1.2028
10471TIP3   OH252827   4.618   5.177  11.001  0.3973  0.0936  0.2433
10471TIP3    H152828   4.624   5.246  10.935  0.5463  0.7177  0.9060
10471TIP3    H252829   4.708   5.147  11.014  0.1631 -1.2928 -1.1513
10472TIP3   OH252830   5.041   0.267  11.422 -0.2928  0.2545 -0.5217
10472TIP3    H152831   5.092   0.311  11.490 -0.0615 -0.2300 -0.3794
10472TIP3    H252832   5.033   0.332  11.352 -0.7646  0.8452  0.0761
10473TIP3   OH252833   1.062   3.476   5.115  0.0872  0.2332 -0.4731
10473TIP3    H152834   1.092   3.388   5.093  0.2484  0.2528 -0.3342
10473TIP3    H252835   1.130   3.534   5.080  1.1791  0.1872  1.5011
10474TIP3   OH252836   2.163   3.184   4.019  0.0786 -0.2032 -0.2940
10474TIP3    H152837   2.067   3.175   4.023 -0.1954  2.0080 -0.9740
10474TIP3    H252838   2.187   3.146   3.935  0.1448 -3.2094  1.0428
10475TIP3   OH252839   0.277   5.896  15.678  0.1690 -0.4217 -0.1088
10475TIP3    H152840   0.290   5.986  15.707 -2.8669 -0.7341  2.4626
10475TIP3    H252841   0.201   5.899  15.621  0.9592 -1.1730 -1.2404
10476TIP3   OH252842   1.223   5.795  17.112  0.0205  0.6802  0.0542
10476TIP3    H152843   1.312   5.821  17.089 -0.6094  2.0509 -0.9087
10476TIP3    H252844   1.196   5.736  17.042  0.2783  0.0340  0.5009
10477TIP3   OH252845   6.759   1.521   1.157  0.1532 -0.1288  0.0400
10477TIP3    H152846   6.842   1.483   1.187  0.4674  0.8303  0.4197
10477TIP3    H252847   6.703   1.446   1.140  1.5069 -0.8425 -1.3970
10478TIP3   OH252848   4.626   1.442   6.151  0.5966  0.3257 -0.0252
10478TIP3    H152849   4.713   1.476   6.171  0.3861  1.9747 -1.7603
10478TIP3    H252850   4.566   1.498   6.200  0.3552  1.1525 -1.2596
10479TIP3   OH252851   1.278   1.505   1.497  1.0009 -0.1613  0.0969
10479TIP3    H152852   1.266   1.419   1.539 -4.7849  1.2438  1.7566
10479TIP3    H252853   1.252   1.491   1.406 -3.1037  0.3593  1.0871
10480TIP3   OH252854   5.764   4.427   4.964 -0.0501  0.2340  0.2356
10480TIP3    H152855   5.830   4.434   4.895  0.0582  0.6329  0.3784
10480TIP3    H252856   5.681   4.441   4.920 -0.1378 -1.3824 -0.1466
10481TIP3   OH252857   5.340   5.082   3.384  0.1163  0.1272 -0.1474
10481TIP3    H152858   5.392   5.155   3.416  3.4903 -1.5604 -1.5704
10481TIP3    H252859   5.346   5.088   3.288 -0.8138 -1.1210 -0.2966
10482TIP3   OH252860   0.344   1.250  14.331 -0.1574  0.1330  0.2688
10482TIP3    H152861   0.439   1.254  14.320 -0.1658  1.1479  0.5089
10482TIP3    H252862   0.311   1.318  14.272 -0.7394 -0.3051  0.0924
10483TIP3   OH252863   2.315   1.556  15.237 -0.8791  0.1950 -0.0161
10483TIP3    H152864   2.285   1.545  15.147 -2.9429  0.0684  0.6826
10483TIP3    H252865   2.410   1.570  15.229 -0.8934 -0.8373 -2.1183
10484TIP3   OH252866   6.729   5.066  15.792 -0.6869  0.1243  0.2598
10484TIP3    H152867   6.648   5.110  15.817  0.5159  2.1760  0.6561
10484TIP3    H252868   6.720   5.052  15.697  0.7348  5.3280 -0.7892
10485TIP3   OH252869   0.428   3.898  14.566 -0.5781  0.0568 -0.0571
10485TIP3    H152870   0.350   3.930  14.521 -1.6764 -0.1777  1.6231
10485TIP3    H252871   0.469   3.976  14.602 -0.5258  0.0969 -0.2060
10486TIP3   OH252872   0.770   5.498  15.527 -0.0405 -0.3443 -0.3203
10486TIP3    H152873   0.861   5.489  15.557 -0.4505 -3.0251  0.2669
10486TIP3    H252874   0.741   5.582  15.563  2.0989  0.4292 -0.2992
10487TIP3   OH252875   3.394   6.704   3.577  0.2689  0.5549 -0.3170
10487TIP3    H152876   3.372   6.702   3.670 -3.0669 -0.1481 -1.0678
10487TIP3    H252877   3.364   6.790   3.547  0.0837  0.2496 -1.0127
10488TIP3   OH252878   0.100   5.510  14.499 -0.2622 -0.0567  0.2468
10488TIP3    H152879   0.155   5.564  14.556 -0.0239  0.1381 -0.1723
10488TIP3    H252880   0.011   5.522  14.533  0.1104 -1.5060  1.8561
10489TIP3   OH252881   0.790   1.638  13.847 -0.3879 -0.0777  0.0740
10489TIP3    H152882   0.767   1.700  13.917 -1.3605 -0.0718 -0.2372
10489TIP3    H252883   0.884   1.652  13.832 -0.6951  1.7372 -0.3777
10490TIP3   OH252884   2.707   1.086   3.853 -0.0174 -0.4573 -0.1782
10490TIP3    H152885   2.788   1.095   3.902 -0.0336 -0.4276 -0.1562
10490TIP3    H252886   2.648   1.038   3.911 -0.2531  0.1506  0.0900
10491TIP3   OH252887   2.074   3.486   6.039 -0.1630 -0.0125 -0.2055
10491TIP3    H152888   2.169   3.484   6.030 -0.2980 -1.9678 -1.4882
10491TIP3    H252889   2.041   3.471   5.950 -1.6681  1.2257  0.1229
10492TIP3   OH252890   5.241   0.215  14.312  0.5861 -0.1398  0.0176
10492TIP3    H152891   5.154   0.253  14.319  0.7825  0.6179 -1.4878
10492TIP3    H252892   5.225   0.121  14.304 -0.1227  0.0385 -0.6957
10493TIP3   OH252893   3.032   2.446   3.949  0.0758 -0.2261  0.3653
10493TIP3    H152894   3.109   2.467   3.897  0.3829  0.2870  1.0290
10493TIP3    H252895   3.064   2.385   4.016  0.2774  1.3776  1.7502
10494TIP3   OH252896   0.984   0.655   3.718  0.0098  1.1491  1.1481
10494TIP3    H152897   0.938   0.698   3.646 -0.5015 -1.8438 -0.3638
10494TIP3    H252898   1.068   0.628   3.682 -0.9634 -1.9901  1.0546
10495TIP3   OH252899   4.879   1.995  16.301  0.4375  0.8645 -0.0604
10495TIP3    H152900   4.857   2.052  16.227  2.2686 -0.8928 -2.0313
10495TIP3    H252901   4.956   2.036  16.341  1.6364 -0.0475 -1.3622
10496TIP3   OH252902   0.269   2.605  13.768 -0.0302 -0.2234  1.0409
10496TIP3    H152903   0.261   2.545  13.693 -0.0045  0.1919  0.7074
10496TIP3    H252904   0.179   2.620  13.797 -0.1163  0.4478  0.4363
10497TIP3   OH252905   2.298   6.213   3.287 -0.7967  0.2289  0.0652
10497TIP3    H152906   2.263   6.297   3.256 -1.7382  0.4290  1.6060
10497TIP3    H252907   2.230   6.149   3.266 -0.1133 -0.1485 -1.0353
10498TIP3   OH252908   0.954   2.373  11.810  0.1316  0.5376 -0.2982
10498TIP3    H152909   0.950   2.466  11.790  1.6907  0.5003 -0.8683
10498TIP3    H252910   0.878   2.336  11.765  0.5733  1.2657 -1.6860
10499TIP3   OH252911   3.081   2.043  11.697  0.0001 -0.0374  0.3679
10499TIP3    H152912   3.165   2.040  11.651  0.0342  1.4674  0.3152
10499TIP3    H252913   3.019   2.005  11.636  0.1086  1.6426 -0.8007
10500TIP3   OH252914   0.334   0.035   0.142  0.1597  0.1804  0.2592
10500TIP3    H152915   0.240   0.045   0.161 -0.2753 -1.1848 -1.0483
10500TIP3    H252916   0.351   0.098   0.072 -0.0888 -0.4566 -0.3864
10501TIP3   OH252917   6.316   3.427   5.398 -0.2009 -0.1340 -0.5935
10501TIP3    H152918   6.293   3.416   5.491 -0.5191  1.5425 -0.4666
10501TIP3    H252919   6.395   3.481   5.399 -0.5417  0.3748 -1.3228
10502TIP3   OH252920   2.200   5.169  17.069  0.3286 -0.4849 -0.0591
10502TIP3    H152921   2.257   5.146  16.996  1.2704 -2.1902  1.1602
10502TIP3    H252922   2.215   5.099  17.133 -0.9510  0.6330  1.4894
10503TIP3   OH252923   5.061   5.349   1.706 -0.2161 -0.0363  0.1249
10503TIP3    H152924   5.100   5.263   1.720  0.2867  0.1146 -0.3558
10503TIP3    H252925   4.975   5.343   1.749  0.5312 -0.1964  1.6138
10504TIP3   OH252926   3.141   2.017   2.185  0.2685 -0.6876  0.2206
10504TIP3    H152927   3.083   1.941   2.186 -0.1189 -0.4239 -1.0953
10504TIP3    H252928   3.217   1.988   2.134 -0.2878  0.0794 -1.0815
10505TIP3   OH252929   3.344   5.149  16.734  0.0524  0.2600  0.4087
10505TIP3    H152930   3.373   5.157  16.825  1.5620 -0.6987  0.0355
10505TIP3    H252931   3.416   5.183  16.682 -1.1508  1.5931 -0.4196
10506TIP3   OH252932   6.041   3.571   3.162 -0.0705 -0.4598  0.3132
10506TIP3    H152933   6.077   3.487   3.136 -1.1190 -1.3729  1.6881
10506TIP3    H252934   6.007   3.556   3.251  0.3628  1.5961  0.8693
10507TIP3   OH252935   6.216   1.300  12.036  0.1494 -0.3565 -0.2088
10507TIP3    H152936   6.230   1.393  12.053  0.4039 -0.2502 -0.9673
10507TIP3    H252937   6.292   1.257  12.076  0.3822 -0.1749 -0.4530
10508TIP3   OH252938   5.469   1.532  14.558  0.2595 -0.2560 -0.0570
10508TIP3    H152939   5.377   1.512  14.539  0.9964 -1.8815 -2.0679
10508TIP3    H252940   5.500   1.579  14.481  2.0056 -2.7081 -0.9076
10509TIP3   OH252941   6.383   3.569   5.871  0.2052  0.0773  0.3182
10509TIP3    H152942   6.311   3.632   5.865 -0.5215 -0.7884 -0.1914
10509TIP3    H252943   6.374   3.531   5.958 -0.1108 -0.2155  0.1580
10510TIP3   OH252944   3.462   4.605  15.086  0.0033 -0.0584  0.1905
10510TIP3    H152945   3.515   4.621  15.008  0.6306  0.3959  0.6991
10510TIP3    H252946   3.495   4.523  15.122  0.7421  0.5033  0.8101
10511TIP3   OH252947   3.735   1.156  11.328  0.1820 -0.4442  0.0936
10511TIP3    H152948   3.741   1.060  11.323  0.5707 -0.4234  0.1641
10511TIP3    H252949   3.648   1.176  11.294  0.7882 -0.6957 -1.7174
10512TIP3   OH252950   1.981   6.214   4.276 -0.2374  0.0829 -0.0775
10512TIP3    H152951   1.964   6.235   4.368  0.5399 -0.5830  0.2285
10512TIP3    H252952   1.895   6.214   4.235 -0.3527  3.2024  0.0305
10513TIP3   OH252953   0.903   0.821  13.415 -0.3896 -0.0127  0.4722
10513TIP3    H152954   0.958   0.883  13.463  0.5008 -0.3755 -0.0826
10513TIP3    H252955   0.929   0.832  13.323 -0.0346 -1.4111  0.4064
10514TIP3   OH252956   3.549   1.957   5.683  0.1332  0.0793 -0.1502
10514TIP3    H152957   3.619   1.892   5.682 -1.9570 -2.2648  0.1185
10514TIP3    H252958   3.480   1.917   5.736 -0.2231  3.6418  2.1930
10515TIP3   OH252959   3.541   6.387  11.744  0.6453  0.4433 -0.4919
10515TIP3    H152960   3.599   6.327  11.698  1.0865  0.6520 -0.2031
10515TIP3    H252961   3.479   6.330  11.789  1.0272  0.2022 -0.2691
10516TIP3   OH252962   6.332   5.631   2.834 -0.3469  0.6383  0.1757
10516TIP3    H152963   6.323   5.727   2.840  0.6310  0.8771 -1.7523
10516TIP3    H252964   6.427   5.616   2.836 -0.4633 -0.2127 -0.7223
10517TIP3   OH252965   2.544   4.264  16.827  0.3368 -0.0523  0.1317
10517TIP3    H152966   2.615   4.322  16.799 -0.5722 -0.0413 -2.2584
10517TIP3    H252967   2.563   4.246  16.919  2.4021  1.4503  0.0395
10518TIP3   OH252968   4.576   6.140   1.554  0.1956  0.0584  0.5627
10518TIP3    H152969   4.618   6.056   1.535  0.3266  0.5460 -1.4279
10518TIP3    H252970   4.575   6.146   1.650  0.8548 -1.8666  0.6992
10519TIP3   OH252971   0.849   4.658  15.034  0.0764 -0.3161  0.0024
10519TIP3    H152972   0.779   4.632  14.974 -0.7046 -1.1130  1.2061
10519TIP3    H252973   0.824   4.745  15.064 -1.0075 -1.0201  1.2395
10520TIP3   OH252974   0.963   2.240   4.948 -0.0826 -0.5590  0.5344
10520TIP3    H152975   0.985   2.329   4.976 -2.1683  0.5922 -1.3723
10520TIP3    H252976   0.905   2.207   5.017  0.4102 -0.3446  1.0643
10521TIP3   OH252977   0.625   3.991  13.682  0.0175  0.4257  0.1930
10521TIP3    H152978   0.564   4.061  13.659  0.0881  0.3086 -0.3432
10521TIP3    H252979   0.690   3.992  13.612 -0.0832 -0.3037  0.0911
10522TIP3   OH252980   2.311   2.333  15.240 -0.1257 -0.5667  0.6920
10522TIP3    H152981   2.230   2.284  15.254  0.1651 -0.9256  1.1495
10522TIP3    H252982   2.377   2.285  15.290  0.2312  0.1057  0.8833
10523TIP3   OH252983   4.905   4.247   1.028  0.0359  0.3211 -0.1319
10523TIP3    H152984   4.862   4.240   1.113 -1.6037 -1.0613 -1.0405
10523TIP3    H252985   4.992   4.209   1.042 -0.6147 -0.9022  0.6725
10524TIP3   OH252986   2.953   4.594  13.685  0.2940 -0.8638  0.0196
10524TIP3    H152987   3.012   4.522  13.705 -0.3508 -1.4070 -0.0388
10524TIP3    H252988   3.012   4.667  13.663  0.9387 -1.5202 -0.4611
10525TIP3   OH252989   1.345   2.264   0.948 -0.4064 -0.0030  0.5255
10525TIP3    H152990   1.378   2.257   1.038  2.6307 -1.9702 -0.6684
10525TIP3    H252991   1.320   2.175   0.925 -2.5187  0.7263 -0.1710
10526TIP3   OH252992   4.714   6.118  13.808  0.4182 -0.1616 -0.1008
10526TIP3    H152993   4.702   6.142  13.900  1.2351  1.5969 -0.4327
10526TIP3    H252994   4.626   6.099  13.776  0.0257  0.1016  0.8137
10527TIP3   OH252995   4.796   2.114  14.799 -0.3243 -0.8133  0.4963
10527TIP3    H152996   4.825   2.201  14.771  1.7439 -1.2759  1.1518
10527TIP3    H252997   4.705   2.109  14.770 -0.3200  1.3778  0.0086
10528TIP3   OH252998   6.344   3.531   3.781  0.3058  0.5831  0.0263
10528TIP3    H152999   6.355   3.436   3.783  2.7036  0.7969 -0.9578
10528TIP3    H253000   6.329   3.552   3.689  0.6502  1.2280  0.1108
10529TIP3   OH253001   4.183   0.316  16.541  0.1118 -0.1478  0.3690
10529TIP3    H153002   4.213   0.407  16.548 -0.3649 -0.0123  0.6485
10529TIP3    H253003   4.117   0.307  16.609 -0.7407 -0.3427 -0.4804
10530TIP3   OH253004   2.576   0.110  14.275  0.2876 -0.1815 -0.4573
10530TIP3    H153005   2.611   0.057  14.202 -0.8731  0.3083 -1.3827
10530TIP3    H253006   2.481   0.100  14.268 -0.0629  3.3464 -1.6771
10531TIP3   OH253007   3.583   0.983   2.407  0.1861 -0.3270  0.1778
10531TIP3    H153008   3.605   1.036   2.483  2.9686  0.0195 -0.8165
10531TIP3    H253009   3.489   0.993   2.397 -0.0302  0.6558  2.7814
10532TIP3   OH253010   5.350   1.205  12.652 -0.0327 -0.2463  0.7335
10532TIP3    H153011   5.437   1.245  12.646 -0.8321  1.7836  1.9829
10532TIP3    H253012   5.360   1.135  12.716  0.8177 -0.4093  0.4280
10533TIP3   OH253013   4.369   2.102   1.314  0.1375 -0.9062  0.2028
10533TIP3    H153014   4.443   2.160   1.294 -0.8110  0.2523 -0.0420
10533TIP3    H253015   4.337   2.074   1.229 -0.0871 -0.9152  0.2912
10534TIP3   OH253016   2.476   3.217  15.321 -0.2895 -0.2200 -0.0796
10534TIP3    H153017   2.428   3.269  15.386  0.3566  0.4904 -0.1697
10534TIP3    H253018   2.410   3.159  15.284 -1.1729  1.0176 -0.4775
10535TIP3   OH253019   0.048   4.500   3.483 -0.1693  0.0354  0.6056
10535TIP3    H153020   0.120   4.504   3.546  0.1327 -0.2130  0.2785
10535TIP3    H253021   0.029   4.591   3.462  2.3593  0.0325 -1.9423
10536TIP3   OH253022   6.751   5.763   2.507 -0.3415 -0.1186  0.3148
10536TIP3    H153023   6.702   5.681   2.509 -1.6718  0.6766  0.9517
10536TIP3    H253024   6.740   5.800   2.594  0.9072  0.3736  0.2794
10537TIP3   OH253025   0.504   0.808   2.177  0.5073 -0.0517  0.3434
10537TIP3    H153026   0.587   0.838   2.138  0.6897 -0.5999  0.3069
10537TIP3    H253027   0.521   0.717   2.203  0.6594  0.5752  2.5140
10538TIP3   OH253028   6.552   4.411  16.963  0.3588 -0.4500 -0.1543
10538TIP3    H153029   6.622   4.453  16.914  1.0649 -1.2278  0.1816
10538TIP3    H253030   6.472   4.432  16.915  1.0014 -0.8844 -1.4208
10539TIP3   OH253031   5.437   5.164  11.038 -0.0863 -0.2534  0.5584
10539TIP3    H153032   5.388   5.242  11.061 -0.0681 -0.4881  1.4120
10539TIP3    H253033   5.451   5.171  10.944  0.1714  0.9214  0.6701
10540TIP3   OH253034   3.493   2.643  17.194 -0.1296  0.3902  0.2842
10540TIP3    H153035   3.586   2.646  17.215  0.4185 -2.0101 -1.5240
10540TIP3    H253036   3.453   2.712  17.247  2.6435  1.3221  1.2033
10541TIP3   OH253037   3.039   5.351   3.177  0.1905 -1.0670  0.8238
10541TIP3    H153038   3.059   5.440   3.148 -1.2755 -0.8351  0.4747
10541TIP3    H253039   3.118   5.300   3.156  0.9679  0.1076  0.8723
10542TIP3   OH253040   5.440   4.222  11.736 -0.0874 -0.2233 -0.2890
10542TIP3    H153041   5.403   4.156  11.794 -0.2641 -0.5363 -0.7530
10542TIP3    H253042   5.524   4.185  11.709  0.5653  0.4824  0.7563
10543TIP3   OH253043   2.935   1.495   5.963 -0.0204  0.4258  0.0370
10543TIP3    H153044   2.984   1.541   6.031 -0.3468  0.2534  0.3930
10543TIP3    H253045   2.904   1.565   5.905 -0.5011  0.6550  0.5657
10544TIP3   OH253046   6.109   3.934  10.494 -0.3994  0.1295 -0.4040
10544TIP3    H153047   6.118   3.976  10.580  0.4776  1.1896 -0.9959
10544TIP3    H253048   6.197   3.905  10.473 -0.5682  0.0993 -1.0577
10545TIP3   OH253049   1.275   0.865   4.007 -0.1357 -0.5595  0.1074
10545TIP3    H153050   1.351   0.918   3.987 -0.8792  0.3901 -0.2572
10545TIP3    H253051   1.272   0.800   3.936 -0.2563  0.0597 -0.4669
10546TIP3   OH253052   0.050   2.620  11.542  1.1793 -0.3292  0.0740
10546TIP3    H153053   0.087   2.671  11.469 -1.8035  1.9913  0.0425
10546TIP3    H253054   0.078   2.667  11.620 -2.8428  2.4793 -0.0058
10547TIP3   OH253055   6.228   1.804  14.573 -0.5626 -0.3487  0.4451
10547TIP3    H153056   6.282   1.729  14.596  0.9441  1.4157  2.8451
10547TIP3    H253057   6.286   1.861  14.522 -1.3704 -0.3011 -0.4307
10548TIP3   OH253058   3.984   1.402  12.984 -0.0319  0.6012 -0.3944
10548TIP3    H153059   3.896   1.366  12.981  0.1240  0.3293 -1.9476
10548TIP3    H253060   3.998   1.424  13.076 -1.6931  0.5929 -0.1361
10549TIP3   OH253061   5.327   6.633   1.409 -0.2821 -0.2998 -0.5097
10549TIP3    H153062   5.357   6.720   1.383  0.5284 -0.2264  0.6605
10549TIP3    H253063   5.343   6.578   1.332  0.9837  0.1820 -0.6036
10550TIP3   OH253064   6.446   2.377   4.399  0.2684 -0.3763  0.0983
10550TIP3    H153065   6.539   2.375   4.376  0.2476  0.0114 -0.0264
10550TIP3    H253066   6.439   2.321   4.477  0.6816 -0.0398  0.3805
10551TIP3   OH253067   6.458   5.561  12.489  0.0834  0.4079 -0.3558
10551TIP3    H153068   6.545   5.600  12.487 -0.1222  0.9275  0.4476
10551TIP3    H253069   6.473   5.467  12.481  0.7430  0.4643  0.2270
10552TIP3   OH253070   6.373   3.332   4.988 -0.1638  0.0463  0.4549
10552TIP3    H153071   6.342   3.410   5.036  0.1932  0.7560 -0.4504
10552TIP3    H253072   6.435   3.291   5.048  0.9106  1.3848  0.3006
10553TIP3   OH253073   6.449   1.928  16.763 -0.4059 -0.0946 -0.0529
10553TIP3    H153074   6.405   1.924  16.678 -0.4014 -2.2188  0.0097
10553TIP3    H253075   6.475   1.837  16.780 -2.1601 -0.0755  3.1346
10554TIP3   OH253076   1.865   3.790   0.137 -0.2823 -0.4175  0.0134
10554TIP3    H153077   1.843   3.795   0.044 -1.2884 -2.4350  0.1263
10554TIP3    H253078   1.780   3.780   0.181  0.2373 -0.0724  1.1097
10555TIP3   OH253079   1.210   6.522  11.538  0.2517  0.3901  0.3276
10555TIP3    H153080   1.213   6.437  11.494  1.2907  0.3251  0.4983
10555TIP3    H253081   1.302   6.544  11.552  0.0325  2.1749 -0.9078
10556TIP3   OH253082   2.236   5.576  14.437  0.5184 -0.3024 -0.1481
10556TIP3    H153083   2.301   5.524  14.391  0.9111 -1.5469  1.7509
10556TIP3    H253084   2.172   5.512  14.470 -0.1786  0.6263  0.3351
10557TIP3   OH253085   5.438   3.635   3.356 -1.1460  0.0557  0.5237
10557TIP3    H153086   5.344   3.650   3.362 -1.8326 -3.7119  0.1880
10557TIP3    H253087   5.462   3.598   3.441 -0.3063 -0.6647 -0.0164
10558TIP3   OH253088   2.193   4.013  14.746  0.4398  0.4276 -0.2986
10558TIP3    H153089   2.237   4.098  14.737  2.5700 -0.6093 -0.1745
10558TIP3    H253090   2.258   3.957  14.790 -1.2998 -0.9844  0.5574
10559TIP3   OH253091   2.331   4.586  15.921  0.1038 -0.0357 -0.4276
10559TIP3    H153092   2.336   4.609  16.014 -0.1917  2.6909 -1.0452
10559TIP3    H253093   2.237   4.577  15.903  0.1579 -0.5113 -0.4782
10560TIP3   OH253094   0.355   6.304   3.745  0.1933  0.6502 -0.4514
10560TIP3    H153095   0.279   6.258   3.709  0.0132 -0.8891  1.8099
10560TIP3    H253096   0.324   6.393   3.761 -0.4740  0.6354 -1.5903
10561TIP3   OH253097   4.765   1.190  14.941 -0.1443 -0.2340 -0.4810
10561TIP3    H153098   4.783   1.283  14.955  0.7696 -0.4308 -0.3215
10561TIP3    H253099   4.800   1.172  14.854  1.7553 -0.9458  0.4004
10562TIP3   OH253100   0.155   4.934  13.302 -0.1806 -0.4677 -0.0753
10562TIP3    H153101   0.148   4.946  13.396 -2.9344  0.7898 -0.3990
10562TIP3    H253102   0.176   5.021  13.268  2.0859 -1.1694 -0.5349
10563TIP3   OH253103   1.321   2.634   0.110 -0.0837  0.1451  0.1613
10563TIP3    H153104   1.360   2.653   0.025 -0.1711  1.8937  0.4984
10563TIP3    H253105   1.306   2.720   0.149  0.3556 -0.6552  2.1310
10564TIP3   OH253106   1.166   5.873  14.832 -0.2801  0.2531 -0.2914
10564TIP3    H153107   1.211   5.796  14.865  0.8965  2.0095  2.3322
10564TIP3    H253108   1.090   5.884  14.890 -1.2590  0.2742 -1.5378
10565TIP3   OH253109   3.314   0.811   4.893  0.6302  0.2952  0.2013
10565TIP3    H153110   3.260   0.753   4.947  2.1233 -1.6977 -0.3841
10565TIP3    H253111   3.253   0.877   4.860 -0.6851  0.3358  2.6491
10566TIP3   OH253112   4.271   1.456   1.489 -0.4639  0.0888  0.6909
10566TIP3    H153113   4.285   1.371   1.446  1.1743 -0.3744  2.0959
10566TIP3    H253114   4.243   1.434   1.577 -0.4532  1.0075  0.9307
10567TIP3   OH253115   0.864   4.531  13.653  0.1643  0.2520  0.0826
10567TIP3    H153116   0.856   4.459  13.715 -0.8920  1.6509  1.6141
10567TIP3    H253117   0.954   4.524  13.619  0.0986 -1.7161  0.2475
10568TIP3   OH253118   2.036   4.472  13.657 -0.1651 -0.0818  0.7914
10568TIP3    H153119   2.076   4.556  13.633  0.6284 -0.6549  0.0995
10568TIP3    H253120   1.965   4.496  13.716 -1.1036  1.2228 -0.8295
10569TIP3   OH253121   2.653   1.141  10.569  0.2936 -0.3976 -0.3092
10569TIP3    H153122   2.566   1.110  10.545 -0.4494  3.0396 -2.5372
10569TIP3    H253123   2.650   1.152  10.664 -0.9471 -2.4193 -0.1014
10570TIP3   OH253124   5.455   6.345  16.469  0.2938 -0.4075  0.7765
10570TIP3    H153125   5.503   6.266  16.442  0.9106  0.9874 -2.4108
10570TIP3    H253126   5.364   6.316  16.476  0.1359 -0.9904 -2.5839
10571TIP3   OH253127   0.331   3.539  16.209 -0.0688  1.0077 -0.4544
10571TIP3    H153128   0.339   3.446  16.229  0.9285  1.0620 -0.5388
10571TIP3    H253129   0.265   3.544  16.141 -0.5395  0.4176 -0.0449
10572TIP3   OH253130   6.004   4.170  16.034 -0.6815  0.2423  0.1672
10572TIP3    H153131   5.979   4.169  15.942 -1.5704 -0.7193  0.4108
10572TIP3    H253132   5.989   4.081  16.064 -0.8684  0.6743  1.3687
10573TIP3   OH253133   0.187   6.269   1.473 -0.2933 -0.1790  0.4767
10573TIP3    H153134   0.118   6.258   1.539 -1.2210  0.5878 -0.3371
10573TIP3    H253135   0.254   6.205   1.497 -1.0561 -0.5784  1.5902
10574TIP3   OH253136   3.569   4.101   0.721 -0.3658 -0.9292  0.1117
10574TIP3    H153137   3.545   4.021   0.768  1.1289 -0.9947  0.7707
10574TIP3    H253138   3.501   4.110   0.654 -1.9905 -1.3420  1.6615
10575TIP3   OH253139   5.991   0.896   5.018  0.6681 -0.6463 -0.3641
10575TIP3    H153140   6.024   0.975   5.062  1.3795  0.0815 -2.1705
10575TIP3    H253141   5.897   0.896   5.036  1.1396 -1.1979  2.4382
10576TIP3   OH253142   5.091   3.149   3.007 -0.3234 -0.0474  0.0242
10576TIP3    H153143   5.165   3.174   3.062 -0.6279  0.3156  0.2640
10576TIP3    H253144   5.091   3.214   2.936 -0.0618 -0.3885 -0.2952
10577TIP3   OH253145   2.839   2.225   0.895  0.1344 -0.0410 -0.5675
10577TIP3    H153146   2.853   2.318   0.879 -1.2292 -0.0252 -1.7872
10577TIP3    H253147   2.779   2.223   0.970  1.0495  0.0220  0.1810
10578TIP3   OH253148   2.287   3.637   0.332  0.4554 -0.8258  0.2762
10578TIP3    H153149   2.217   3.703   0.333  0.9703 -0.2351 -0.9793
10578TIP3    H253150   2.355   3.674   0.389  0.8408 -0.1290 -0.6078
10579TIP3   OH253151   3.434   4.781  14.490  0.1732 -0.5130  0.4258
10579TIP3    H153152   3.468   4.867  14.463  1.8731 -0.5971  2.1798
10579TIP3    H253153   3.369   4.802  14.557 -0.1229 -0.5667  0.1577
10580TIP3   OH253154   2.216   2.293  11.234  0.2274  0.0326 -0.4673
10580TIP3    H153155   2.173   2.376  11.214  1.2734  0.7773  0.3103
10580TIP3    H253156   2.182   2.269  11.320  1.4084  0.6605  0.1804
10581TIP3   OH253157   5.183   2.087   0.992 -0.3032 -0.2514  0.1324
10581TIP3    H153158   5.159   2.080   1.084  0.7224 -0.7705  0.3693
10581TIP3    H253159   5.105   2.120   0.949 -1.6207 -2.3934  0.8036
10582TIP3   OH253160   3.718   6.682  16.566  0.3102 -0.6988  0.4742
10582TIP3    H153161   3.741   6.730  16.486  0.2028  0.3380  1.0601
10582TIP3    H253162   3.643   6.628  16.541  2.6564 -3.3185 -1.1742
10583TIP3   OH253163   4.552   4.512  13.177  0.4567  0.3721  0.0440
10583TIP3    H153164   4.552   4.586  13.239 -0.2391 -0.7298  1.3917
10583TIP3    H253165   4.645   4.495  13.161  0.7864 -1.4951  3.4946
10584TIP3   OH253166   6.436   4.462  11.941 -0.6372 -0.2891 -0.0561
10584TIP3    H153167   6.428   4.554  11.966  1.6649 -0.1141  0.1846
10584TIP3    H253168   6.461   4.417  12.022 -0.4928 -0.9142 -0.4376
10585TIP3   OH253169   0.540   3.785   4.903 -0.2254 -0.0037  0.1259
10585TIP3    H153170   0.616   3.842   4.916 -0.9830  1.2795 -0.9762
10585TIP3    H253171   0.470   3.828   4.952 -0.0302 -1.6779  1.9254
10586TIP3   OH253172   5.227   4.536   0.002  0.0575 -0.1804  0.5056
10586TIP3    H153173   5.160   4.586   0.049 -1.3082 -2.1572  0.7365
10586TIP3    H253174   5.239   4.583  -0.080  1.2236  2.3655  2.1014
10587TIP3   OH253175   0.555   3.471   1.035 -0.1176  0.0390  0.0958
10587TIP3    H153176   0.569   3.550   1.087  1.3869  0.8480 -1.4639
10587TIP3    H253177   0.641   3.429   1.032 -0.8339 -1.5094  0.6310
10588TIP3   OH253178   1.826   4.680   5.258  0.4206  0.0575  0.0385
10588TIP3    H153179   1.802   4.735   5.333  0.9607 -0.7092  0.7798
10588TIP3    H253180   1.802   4.591   5.285 -0.1438 -0.1166 -1.0285
10589TIP3   OH253181   0.105   5.718   4.468  0.3672 -0.2511 -0.2162
10589TIP3    H153182   0.092   5.793   4.411  0.3257 -0.1788 -0.1106
10589TIP3    H253183   0.171   5.746   4.532  0.0448 -0.1624  0.0804
10590TIP3   OH253184   5.063   0.388  16.989 -0.9247 -0.5066 -0.0829
10590TIP3    H153185   5.079   0.339  16.908  0.8745 -0.9009  0.4849
10590TIP3    H253186   4.982   0.436  16.972 -0.6145 -0.6383 -2.0920
10591TIP3   OH253187   4.135   4.139   5.213  0.0164  0.1011 -0.2385
10591TIP3    H153188   4.098   4.054   5.189  1.8740 -0.7073 -0.4086
10591TIP3    H253189   4.197   4.158   5.141 -0.4819  1.6566 -0.2637
10592TIP3   OH253190   4.237   5.950  12.176 -0.0657 -0.0418 -0.1807
10592TIP3    H153191   4.246   5.855  12.167 -0.5300 -0.1125  0.0524
10592TIP3    H253192   4.313   5.977  12.228 -0.5917 -0.4626  0.8389
10593TIP3   OH253193   1.159   1.167  12.300  0.0361 -0.2845  0.1407
10593TIP3    H153194   1.215   1.091  12.319  1.6484  0.1884 -2.3763
10593TIP3    H253195   1.216   1.227  12.252 -2.1343  1.0865 -0.8082
10594TIP3   OH253196   3.973   1.124   3.921 -0.8038  0.1962 -0.8304
10594TIP3    H153197   3.928   1.045   3.891 -0.7262  0.4411 -1.5952
10594TIP3    H253198   4.033   1.093   3.989  0.3702 -0.6470 -2.2282
10595TIP3   OH253199   1.132   1.906   5.495 -0.5373 -0.1425  0.4321
10595TIP3    H153200   1.108   1.908   5.402  1.0992 -0.8521 -0.0251
10595TIP3    H253201   1.216   1.953   5.499 -2.0791  2.5708  2.0418
10596TIP3   OH253202   3.575   5.327  13.954  0.0775 -0.2054  0.2004
10596TIP3    H153203   3.586   5.289  14.041 -0.1491 -0.3023  0.1891
10596TIP3    H253204   3.650   5.385  13.943 -0.8900  1.2841  1.2420
10597TIP3   OH253205   3.641   5.741   1.266 -0.4391 -0.3156 -0.5242
10597TIP3    H153206   3.555   5.745   1.307  0.3120 -1.2367  1.1991
10597TIP3    H253207   3.693   5.686   1.325  0.8612 -1.1284 -2.3801
10598TIP3   OH253208   4.608   0.062  13.113  0.5786 -0.6592  0.0867
10598TIP3    H153209   4.554   0.128  13.069  1.6086  0.3193  0.2622
10598TIP3    H253210   4.546   0.005  13.157 -0.3453 -0.0541 -0.4203
10599TIP3   OH253211   2.877   5.626  14.224  0.2054 -0.1445 -0.0654
10599TIP3    H153212   2.864   5.719  14.241  2.0989  0.2441 -0.6172
10599TIP3    H253213   2.791   5.586  14.239 -0.6290  1.6943  0.1199
10600TIP3   OH253214   0.889   4.086  14.341 -0.4470  0.2509 -0.1432
10600TIP3    H153215   0.865   3.998  14.368 -1.6739  0.5805 -0.1207
10600TIP3    H253216   0.888   4.137  14.422 -0.6854  0.4864 -0.2921
10601TIP3   OH253217   4.981   2.263  14.188 -0.0751  0.6433 -0.1628
10601TIP3    H153218   4.897   2.228  14.159 -1.2335  1.6129  1.9009
10601TIP3    H253219   4.984   2.351  14.150 -0.0698  0.6602 -0.1217
10602TIP3   OH253220   0.661   2.376   3.445 -0.3253  0.0031 -0.1237
10602TIP3    H153221   0.644   2.282   3.448  0.8074 -0.1796  1.6533
10602TIP3    H253222   0.637   2.407   3.533  0.1621  1.2151 -0.4098
10603TIP3   OH253223   4.418   4.666   5.146  0.2268  0.2603 -0.0681
10603TIP3    H153224   4.496   4.661   5.091  1.0788  2.6314  0.8616
10603TIP3    H253225   4.450   4.696   5.231 -1.5772  0.5238  0.5514
10604TIP3   OH253226   1.337   4.940  13.069  0.0763 -0.1644  0.4574
10604TIP3    H153227   1.257   4.890  13.055  0.6451 -1.1024  0.5417
10604TIP3    H253228   1.337   4.959  13.163  1.4587 -2.7663  1.0165
10605TIP3   OH253229   3.070   5.355   0.139  0.2506 -0.1422  0.4434
10605TIP3    H153230   3.083   5.261   0.123  1.2622 -0.0070  0.4090
10605TIP3    H253231   3.033   5.388   0.057 -2.3739 -0.9281  1.2701
10606TIP3   OH253232   0.336   1.098  15.383 -0.2344  0.0471 -0.2979
10606TIP3    H153233   0.380   1.166  15.433 -2.7079  0.3311  1.5676
10606TIP3    H253234   0.400   1.027  15.377  0.3033  0.2003  2.8549
10607TIP3   OH253235   1.807   3.108  14.864 -0.3643 -0.0588 -0.4590
10607TIP3    H153236   1.871   3.122  14.794  2.1167 -0.5221  1.6415
10607TIP3    H253237   1.779   3.017  14.853  0.5830 -0.3630 -0.3975
10608TIP3   OH253238   4.170   1.214  12.874 -0.4121  0.0816 -0.3127
10608TIP3    H153239   4.103   1.280  12.893  0.8376  1.1012  0.6656
10608TIP3    H253240   4.235   1.261  12.821  0.8417 -0.1441  0.9909
10609TIP3   OH253241   6.447   0.331   5.395 -0.0644  0.1315  0.5215
10609TIP3    H153242   6.381   0.274   5.354 -2.1518  3.2289 -0.6807
10609TIP3    H253243   6.530   0.286   5.381 -1.9087 -4.1653  2.5017
10610TIP3   OH253244   0.959   6.691  16.540  0.1590 -0.1091  0.2852
10610TIP3    H153245   1.044   6.657  16.513  0.5610  2.4550 -1.8991
10610TIP3    H253246   0.971   6.718  16.631  1.0556 -1.6851  0.6447
10611TIP3   OH253247   2.473   4.645  10.749  0.0271  0.3137  0.1014
10611TIP3    H153248   2.386   4.680  10.769  0.0812  0.3458  0.2803
10611TIP3    H253249   2.511   4.708  10.688 -0.6951 -0.5225 -1.2186
10612TIP3   OH253250   2.633   6.033   0.684 -0.0038  0.4810  0.0653
10612TIP3    H153251   2.724   6.027   0.655 -0.6502 -0.2924 -1.8635
10612TIP3    H253252   2.590   6.086   0.617 -0.8870  1.2300  1.2054
10613TIP3   OH253253   0.707   4.990  12.210  0.1396 -0.6028 -0.9533
10613TIP3    H153254   0.753   4.995  12.127  1.9897 -0.6434  0.0397
10613TIP3    H253255   0.777   4.983  12.276 -1.2151  1.5027  0.7532
10614TIP3   OH253256   5.754   4.171  15.426 -0.1801  0.4543  0.0507
10614TIP3    H153257   5.833   4.125  15.456  0.9981  1.0966 -1.9210
10614TIP3    H253258   5.723   4.119  15.352 -1.6227  0.2034  0.8257
10615TIP3   OH253259   5.295   1.285   5.022 -0.7092  0.5729 -0.7432
10615TIP3    H153260   5.310   1.248   5.109 -1.5046  0.5010 -0.6281
10615TIP3    H253261   5.380   1.318   4.995 -0.5612  1.0640  0.2830
10616TIP3   OH253262   0.418   2.762   5.088 -0.0867 -0.2472  0.0888
10616TIP3    H153263   0.369   2.838   5.118  1.1806  0.5051  0.3098
10616TIP3    H253264   0.391   2.691   5.145 -0.7579  0.2124  0.3402
10617TIP3   OH253265   5.818   2.175   2.037 -0.3383  0.1706  0.0901
10617TIP3    H153266   5.815   2.270   2.052  0.2127 -0.0522  1.7631
10617TIP3    H253267   5.788   2.137   2.120  1.5031 -1.1436  0.1986
10618TIP3   OH253268   1.892   3.018   6.786 -0.1015 -0.1061  0.0059
10618TIP3    H153269   1.879   2.972   6.703  0.4362 -0.8932  0.3533
10618TIP3    H253270   1.987   3.026   6.794 -0.1948  1.0859 -0.0577
10619TIP3   OH253271   2.973   1.743   2.657 -0.1003 -0.7896 -0.2749
10619TIP3    H153272   3.064   1.718   2.675  0.0264 -1.2684 -1.5223
10619TIP3    H253273   2.923   1.703   2.728  0.6922 -0.3108  0.5602
10620TIP3   OH253274   1.896   0.570   3.324  0.0088  0.5209 -0.1972
10620TIP3    H153275   1.890   0.474   3.322  1.5030  0.3822  0.7676
10620TIP3    H253276   1.806   0.599   3.339 -0.1459 -0.8282  1.7407
10621TIP3   OH253277   6.119   1.034  16.257 -0.1957  0.3970 -0.3766
10621TIP3    H153278   6.032   1.058  16.224  0.9144  1.0886 -2.9139
10621TIP3    H253279   6.139   0.951  16.213  0.3175  0.0791  0.4425
10622TIP3   OH253280   6.099   3.875  13.771  0.1801 -0.3882  0.3354
10622TIP3    H153281   6.139   3.886  13.857 -2.3200  0.0750  1.4988
10622TIP3    H253282   6.104   3.962  13.731  1.2612 -0.5818  0.0279
10623TIP3   OH253283   6.454   3.457   1.460 -0.0713  0.3229 -0.2855
10623TIP3    H153284   6.433   3.412   1.378  0.0851  2.0830 -1.3103
10623TIP3    H253285   6.525   3.405   1.498 -1.8239 -1.9548  0.0232
10624TIP3   OH253286   3.065   0.436  16.601 -0.1871  0.3205 -0.1595
10624TIP3    H153287   3.127   0.455  16.530 -0.4989  0.9677 -0.2585
10624TIP3    H253288   2.982   0.419  16.557 -0.7164  2.0693  0.1052
10625TIP3   OH253289   3.856   2.749  12.491  0.2534 -0.4120 -0.2731
10625TIP3    H153290   3.893   2.829  12.528 -2.3868  0.2344  1.0788
10625TIP3    H253291   3.879   2.753  12.398  1.6602  1.0050  0.1132
10626TIP3   OH253292   0.710   5.956  15.241  0.2072  0.4824 -0.3901
10626TIP3    H153293   0.689   5.869  15.275 -1.3078  0.7615 -0.5688
10626TIP3    H253294   0.767   5.995  15.307 -0.4000 -0.0551  0.4571
10627TIP3   OH253295   0.648   5.640   5.722  0.1083  0.6893  0.5471
10627TIP3    H153296   0.619   5.599   5.804  1.0117 -0.2937  0.3889
10627TIP3    H253297   0.718   5.699   5.748  0.5005  0.2617  0.4741
10628TIP3   OH253298   1.376   2.276  12.031 -0.1770 -0.2053  0.4768
10628TIP3    H153299   1.290   2.262  11.992 -1.1815 -3.1670  3.5238
10628TIP3    H253300   1.361   2.342  12.100  0.6773  1.6310 -1.0490
10629TIP3   OH253301   3.783   3.244   4.062 -0.0150  0.1423  0.0822
10629TIP3    H153302   3.871   3.280   4.048  0.0239 -0.2125 -0.5790
10629TIP3    H253303   3.798   3.158   4.102 -0.0234 -0.4892 -1.2649
10630TIP3   OH253304   5.073   2.623  13.195 -0.3509  0.2214  0.5109
10630TIP3    H153305   5.008   2.555  13.178 -0.5052  0.6028 -0.4702
10630TIP3    H253306   5.157   2.581  13.176 -0.4315  0.2240  0.1286
10631TIP3   OH253307   4.757   4.312  13.096  0.4961 -0.3855 -0.2433
10631TIP3    H153308   4.805   4.252  13.039  0.6770  0.8403 -1.4032
10631TIP3    H253309   4.823   4.375  13.126  0.8424 -2.1988  2.9933
10632TIP3   OH253310   5.317   2.196  16.013  0.2222  0.1920 -0.5291
10632TIP3    H153311   5.281   2.128  16.069  0.8564  0.1755 -0.1362
10632TIP3    H253312   5.255   2.204  15.940 -0.3437 -0.1297 -0.0779
10633TIP3   OH253313   0.807   3.715   4.025 -0.4407  0.1045  0.1113
10633TIP3    H153314   0.859   3.792   4.047 -0.4298  0.4079 -0.9791
10633TIP3    H253315   0.816   3.658   4.102  2.4472 -0.3489 -0.5078
10634TIP3   OH253316   3.281   6.235   0.243 -0.1586  0.0813 -0.4988
10634TIP3    H153317   3.310   6.322   0.270 -0.9261  0.1006  0.3061
10634TIP3    H253318   3.338   6.212   0.169  1.5983  0.2929  0.7532
10635TIP3   OH253319   6.587   1.994  14.138 -0.3052 -0.5952 -0.6054
10635TIP3    H153320   6.520   1.941  14.180  1.2343 -0.6898  1.8001
10635TIP3    H253321   6.589   2.076  14.187  0.4859 -0.1028 -1.4272
10636TIP3   OH253322   5.637   5.634   4.020  0.0675 -0.6147 -0.7810
10636TIP3    H153323   5.640   5.677   3.934  1.3503  0.3457 -0.2829
10636TIP3    H253324   5.647   5.541   4.001 -0.7377 -0.5014 -1.7522
10637TIP3   OH253325   4.173   2.269   2.115  0.8664 -0.8883  0.4722
10637TIP3    H153326   4.108   2.249   2.182 -0.0538 -3.8202 -1.2088
10637TIP3    H253327   4.122   2.273   2.034  2.3399  0.0042 -0.4144
10638TIP3   OH253328   5.091   1.168  16.798 -0.1989 -0.3061  0.3700
10638TIP3    H153329   5.133   1.204  16.876  0.5229 -1.2628  0.4374
10638TIP3    H253330   5.094   1.073  16.811 -0.8189 -0.4420 -0.4405
10639TIP3   OH253331   2.602   3.702   5.497  0.5748 -0.1468  0.4744
10639TIP3    H153332   2.635   3.618   5.528 -0.9508 -1.1016 -0.4017
10639TIP3    H253333   2.680   3.752   5.475  1.5141 -1.2343  1.2592
10640TIP3   OH253334   6.718   5.071  13.832 -0.0396  0.2207 -0.1945
10640TIP3    H153335   6.711   4.986  13.875 -0.4800  0.2760 -0.1508
10640TIP3    H253336   6.666   5.062  13.752 -0.7683  0.7035  0.2206
10641TIP3   OH253337   1.838   6.552  14.287 -0.4079  0.7173  0.3918
10641TIP3    H153338   1.745   6.573  14.292 -0.5425  0.2873 -0.2547
10641TIP3    H253339   1.855   6.538  14.194 -0.0937 -0.9351  0.6739
10642TIP3   OH253340   3.112   0.838   1.472  0.2729  0.2111 -0.3350
10642TIP3    H153341   3.158   0.921   1.485  0.2278  0.2609 -0.4924
10642TIP3    H253342   3.053   0.854   1.398 -0.1293  0.2038 -0.0215
10643TIP3   OH253343   3.401   3.439  15.159 -0.1537  0.1639  0.0213
10643TIP3    H153344   3.375   3.382  15.087 -1.1124  0.1262  0.3947
10643TIP3    H253345   3.326   3.496  15.174  0.0640  0.2161  0.9411
10644TIP3   OH253346   6.180   3.685  11.319  0.0694  0.5740  0.5230
10644TIP3    H153347   6.171   3.666  11.412  0.2217  2.7212  1.0053
10644TIP3    H253348   6.206   3.777  11.316  0.3040  0.4577 -1.6323
10645TIP3   OH253349   5.009   3.673  13.883 -0.4028  0.3501 -0.0591
10645TIP3    H153350   4.946   3.602  13.873 -1.0525  0.9610 -0.2673
10645TIP3    H253351   5.054   3.652  13.965 -1.7486  0.6015  0.7613
10646TIP3   OH253352   3.187   6.500   4.120 -0.4382  0.2863 -0.7589
10646TIP3    H153353   3.238   6.460   4.049  0.8084 -0.3241  0.4687
10646TIP3    H253354   3.116   6.438   4.135 -0.7275  0.4329 -1.4922
10647TIP3   OH253355   6.745   1.729   5.058  0.2544  0.2846  0.2669
10647TIP3    H153356   6.822   1.754   5.007 -0.2722  0.1470 -0.6043
10647TIP3    H253357   6.684   1.803   5.049 -0.2017 -0.1251 -0.0449
10648TIP3   OH253358   1.660   5.241  13.085 -0.5167 -0.0725  0.4833
10648TIP3    H153359   1.743   5.272  13.050 -0.7427 -1.4521 -1.3914
10648TIP3    H253360   1.680   5.211  13.173  1.1144 -0.9099 -0.1551
10649TIP3   OH253361   6.345   3.502   0.218  0.6218  0.1631  0.5026
10649TIP3    H153362   6.332   3.563   0.146  1.3685 -1.0760 -0.7141
10649TIP3    H253363   6.389   3.553   0.286  0.6555  1.1253 -0.2355
10650TIP3   OH253364   0.422   2.715  15.746 -0.0807 -0.0512  0.1170
10650TIP3    H153365   0.425   2.777  15.673  0.8138  0.7643  0.8290
10650TIP3    H253366   0.485   2.647  15.723  2.2554  1.6026  1.3254
10651TIP3   OH253367   0.110   1.195   2.944  0.3099 -0.0240 -0.1026
10651TIP3    H153368   0.042   1.249   2.986 -1.6155 -1.8064 -0.8121
10651TIP3    H253369   0.127   1.126   3.007 -0.8388 -1.3463 -1.2070
10652TIP3   OH253370   0.193   3.932  16.338  0.0902 -0.3197  0.4230
10652TIP3    H153371   0.231   3.960  16.255  1.9064  2.7280  2.1942
10652TIP3    H253372   0.263   3.886  16.383 -0.8592 -1.8831  0.3510
10653TIP3   OH253373   1.162   1.537   1.217  0.4686 -0.4658  0.3293
10653TIP3    H153374   1.114   1.587   1.151 -0.0672  0.0059  1.0515
10653TIP3    H253375   1.150   1.445   1.192  0.7816 -0.2666 -0.5591
10654TIP3   OH253376   4.179   4.685   5.392 -0.7067 -0.1985 -0.2234
10654TIP3    H153377   4.165   4.666   5.300  0.5452 -1.6970 -0.1144
10654TIP3    H253378   4.184   4.599   5.434 -0.3369  0.4562  1.0991
10655TIP3   OH253379   0.195   6.150   6.045  0.6717  0.5077  0.1949
10655TIP3    H153380   0.175   6.064   6.082  3.6144 -0.3317 -0.0030
10655TIP3    H253381   0.167   6.212   6.111 -0.4304 -0.6678  0.8530
10656TIP3   OH253382   4.934   4.346   1.447  0.5673  0.3440  0.5137
10656TIP3    H153383   4.964   4.268   1.401  0.2701  0.1750  0.6052
10656TIP3    H253384   4.875   4.313   1.515  0.5884  0.6325  0.6737
10657TIP3   OH253385   6.751   1.015   5.189  0.5370  0.1597 -0.3793
10657TIP3    H153386   6.703   1.038   5.109 -1.3449 -1.6188  0.1693
10657TIP3    H253387   6.699   1.053   5.260 -0.9245 -2.9239  0.3160
10658TIP3   OH253388   6.151   1.465  16.175 -0.5740 -0.3206 -0.3931
10658TIP3    H153389   6.204   1.546  16.174 -0.7797 -0.1624  0.6618
10658TIP3    H253390   6.198   1.406  16.116  0.2406  0.1614 -0.2443
10659TIP3   OH253391   4.230   1.849   6.755  0.4750  0.8725  0.2365
10659TIP3    H153392   4.224   1.943   6.737 -2.3070  0.5556 -0.6693
10659TIP3    H253393   4.264   1.813   6.673 -1.4447  0.7500 -0.5287
10660TIP3   OH253394   2.432   0.149  11.151  0.4824  0.1223  0.0146
10660TIP3    H153395   2.522   0.155  11.120  0.9508 -0.4774  1.2499
10660TIP3    H253396   2.379   0.152  11.071  1.5326  1.5581 -0.6520
10661TIP3   OH253397   4.140   4.708   5.089  0.0482  0.6686 -0.7956
10661TIP3    H153398   4.228   4.700   5.053  0.5021  0.0822  0.4282
10661TIP3    H253399   4.108   4.792   5.057  1.1838  1.0444 -0.9457
10662TIP3   OH253400   2.349   0.569   1.711  0.3184  0.3996  0.7483
10662TIP3    H153401   2.333   0.522   1.629 -0.6615 -1.3402  1.9066
10662TIP3    H253402   2.263   0.576   1.752  0.7822  1.3711  1.5722
10663TIP3   OH253403   3.111   5.390  15.891  0.1362  0.2777  0.4900
10663TIP3    H153404   3.203   5.389  15.915  0.6755  1.4945 -1.4677
10663TIP3    H253405   3.110   5.389  15.796 -1.8965 -0.5998  0.4849
10664TIP3   OH253406   0.229   4.379  13.529  0.1408  0.3231  0.7343
10664TIP3    H153407   0.240   4.453  13.469  0.7744  1.2272  1.9581
10664TIP3    H253408   0.146   4.398  13.574 -1.6482 -1.6129 -1.5904
10665TIP3   OH253409   3.457   5.319  15.516 -0.3887  0.1322 -0.2107
10665TIP3    H153410   3.533   5.377  15.522 -0.6168  0.4485 -0.3850
10665TIP3    H253411   3.434   5.320  15.423  0.3484 -1.1925 -0.4183
10666TIP3   OH253412   1.633   5.504  12.443  0.3942  0.0957 -0.3237
10666TIP3    H153413   1.579   5.481  12.519  0.7273  0.2780 -0.0301
10666TIP3    H253414   1.721   5.515  12.479  0.7749 -0.9809 -0.9356
10667TIP3   OH253415   6.378   4.461   2.507 -0.1709  0.2879  0.8128
10667TIP3    H153416   6.342   4.408   2.578 -0.7862 -3.1551 -1.9017
10667TIP3    H253417   6.304   4.513   2.476 -1.0696 -1.5384 -0.1780
10668TIP3   OH253418   4.311   6.543   6.292 -0.0459 -0.7080 -0.2781
10668TIP3    H153419   4.312   6.613   6.226  1.4288 -2.0616 -1.7325
10668TIP3    H253420   4.403   6.518   6.301 -0.2997 -0.9147  1.9253
10669TIP3   OH253421   0.348   1.380   1.724 -0.2299  0.2176 -0.0618
10669TIP3    H153422   0.267   1.342   1.690  0.4898 -1.0627 -0.3849
10669TIP3    H253423   0.355   1.345   1.813 -0.0017  0.2597 -0.0626
10670TIP3   OH253424   0.757   1.379  16.993 -0.8213  0.0678 -0.1629
10670TIP3    H153425   0.734   1.338  17.076 -2.5735 -0.4869 -0.9112
10670TIP3    H253426   0.783   1.307  16.936  3.9928  0.7417  0.9665
10671TIP3   OH253427   2.508   5.849   4.753  0.5377  0.1803 -0.1184
10671TIP3    H153428   2.514   5.911   4.680 -1.1753  2.3359  1.5091
10671TIP3    H253429   2.414   5.830   4.760  0.9924 -2.3120 -0.3167
10672TIP3   OH253430   2.897   3.396  13.670  0.2390  0.5883  0.0386
10672TIP3    H153431   2.926   3.316  13.714 -2.0800  0.1455  0.8591
10672TIP3    H253432   2.845   3.442  13.737 -0.3171  1.6817 -1.1268
10673TIP3   OH253433   4.666   6.590   3.797 -0.2650  0.0237 -0.7876
10673TIP3    H153434   4.624   6.578   3.712 -0.7101 -0.9267 -0.4445
10673TIP3    H253435   4.683   6.684   3.803  0.1716  0.0335 -2.1067
10674TIP3   OH253436   2.067   1.991   5.587  0.2499 -0.0499 -0.1105
10674TIP3    H153437   2.046   2.070   5.536 -0.5183 -0.7720 -0.9266
10674TIP3    H253438   2.133   2.020   5.649 -0.5224  1.4226  0.0540
10675TIP3   OH253439   2.299   6.041   4.638 -0.2269 -0.6025  0.3222
10675TIP3    H153440   2.353   6.095   4.580 -0.2917 -0.9631 -0.0777
10675TIP3    H253441   2.263   6.103   4.701 -1.1468  0.0055 -0.7679
10676TIP3   OH253442   0.952   1.558  16.487 -0.4900  0.7856 -0.0838
10676TIP3    H153443   1.000   1.641  16.476 -0.2819  0.6248 -0.4023
10676TIP3    H253444   1.017   1.490  16.469 -0.3359  0.5261  1.4235
10677TIP3   OH253445   3.801   2.735  15.212 -0.7035 -0.6362 -0.2073
10677TIP3    H153446   3.763   2.647  15.211 -1.4985 -0.2937  0.0698
10677TIP3    H253447   3.839   2.743  15.299  1.0795 -1.4264 -0.8783
10678TIP3   OH253448   5.154   6.251   5.429  0.0032  0.1138  0.1599
10678TIP3    H153449   5.119   6.162   5.440  1.4149 -0.4026  0.7368
10678TIP3    H253450   5.176   6.256   5.336 -0.6638  0.0862 -0.0009
10679TIP3   OH253451   2.308   2.294   4.011 -0.5419 -0.3525 -0.2065
10679TIP3    H153452   2.308   2.210   4.056 -1.5935 -0.7986 -1.0280
10679TIP3    H253453   2.221   2.330   4.027  0.1053  0.8875  0.6864
10680TIP3   OH253454   2.338   0.800   1.259  0.5875  0.2787 -0.5651
10680TIP3    H153455   2.395   0.746   1.313  0.1313  0.6999  0.3379
10680TIP3    H253456   2.333   0.753   1.175 -0.4231 -1.4857  0.4478
10681TIP3   OH253457   4.629   0.853  16.109  0.1474 -0.9144 -0.4662
10681TIP3    H153458   4.710   0.873  16.156 -0.2405  0.2426 -0.2911
10681TIP3    H253459   4.658   0.800  16.035  1.5728  2.8036 -2.6854
10682TIP3   OH253460   5.211   0.029  16.505 -0.0586  0.1298 -0.0331
10682TIP3    H153461   5.117   0.020  16.523  0.0980 -2.7471 -0.3341
10682TIP3    H253462   5.246   0.074  16.582 -1.6700  1.2598  0.0742
10683TIP3   OH253463   6.448   0.501   3.943 -0.0445 -1.0510 -0.4009
10683TIP3    H153464   6.482   0.533   4.026  1.1130 -0.2558 -1.1644
10683TIP3    H253465   6.353   0.499   3.955 -0.1419  2.0997 -0.1054
10684TIP3   OH253466   0.224   0.807   0.406  0.2524  0.1191 -0.0402
10684TIP3    H153467   0.158   0.817   0.337 -0.1721  3.9273  0.8036
10684TIP3    H253468   0.176   0.764   0.477 -0.6108  0.3827 -0.4444
10685TIP3   OH253469   3.746   4.249   1.039 -0.1969 -0.7273  0.1754
10685TIP3    H153470   3.831   4.246   1.084 -0.2259  0.3911  0.3232
10685TIP3    H253471   3.682   4.242   1.110 -0.2393 -0.9452  0.1180
10686TIP3   OH253472   2.380   4.965   4.778 -0.1861 -0.2288  0.1255
10686TIP3    H153473   2.452   5.021   4.747  0.1816 -1.3193 -1.0663
10686TIP3    H253474   2.407   4.938   4.865  1.2015 -1.1908 -0.5770
10687TIP3   OH253475   1.061   4.773   6.133  0.0677 -0.1105 -0.0585
10687TIP3    H153476   1.056   4.851   6.077 -1.3986  0.1899  0.4651
10687TIP3    H253477   1.085   4.807   6.220 -0.9036 -0.1884  0.2503
10688TIP3   OH253478   4.659   0.164   2.187  0.1717  0.0498 -0.4719
10688TIP3    H153479   4.721   0.229   2.154  0.1054 -1.0107 -2.8237
10688TIP3    H253480   4.586   0.167   2.126 -0.5271 -1.1477  0.2767
10689TIP3   OH253481   6.106   3.892   5.121  1.1619  0.1992  0.6246
10689TIP3    H153482   6.020   3.907   5.160  1.3924 -0.2823  1.3151
10689TIP3    H253483   6.099   3.932   5.034  0.7722  1.6215  1.2893
10690TIP3   OH253484   4.216   1.292   6.128 -0.0176 -0.7358 -0.4260
10690TIP3    H153485   4.183   1.202   6.130 -1.1037 -0.3777 -1.5974
10690TIP3    H253486   4.288   1.292   6.191 -0.9951 -2.0401  0.7564
10691TIP3   OH253487   4.028   1.944   2.287 -0.1892  1.0923 -0.5512
10691TIP3    H153488   3.994   1.875   2.344  0.5706  1.3971  0.2760
10691TIP3    H253489   4.123   1.932   2.288 -0.2727  0.1083 -3.0343
10692TIP3   OH253490   4.886   6.715  15.480  0.0557 -0.0107 -0.4502
10692TIP3    H153491   4.820   6.783  15.466  1.4295  1.6278  0.7691
10692TIP3    H253492   4.969   6.763  15.480  1.1773 -1.8989 -0.9896
10693TIP3   OH253493   5.922   6.667   3.923 -0.6426  0.8641 -0.0444
10693TIP3    H153494   6.003   6.626   3.891 -0.4990  0.6717  0.5572
10693TIP3    H253495   5.911   6.744   3.867 -1.0382 -0.1086 -1.3443
10694TIP3   OH253496   5.717   6.395  15.700 -0.0231 -0.3375 -0.1006
10694TIP3    H153497   5.765   6.359  15.775  2.3420  1.3207 -0.7577
10694TIP3    H253498   5.660   6.462  15.738 -1.3222 -1.7861  0.5883
10695TIP3   OH253499   0.900   4.748   2.097 -0.3722  0.3305  0.0801
10695TIP3    H153500   0.869   4.672   2.148  0.4524 -1.1361 -1.5696
10695TIP3    H253501   0.823   4.776   2.047 -0.4169 -0.0327 -0.0552
10696TIP3   OH253502   6.069   0.490   0.897  0.4773 -0.2032 -0.4875
10696TIP3    H153503   6.135   0.549   0.860 -0.2489  0.9233 -0.0228
10696TIP3    H253504   5.992   0.501   0.840 -0.6831  1.6115  1.3531
10697TIP3   OH253505   2.331   1.285   0.206  0.0488  0.7952 -0.6120
10697TIP3    H153506   2.375   1.362   0.243  0.1689 -0.2464  1.4521
10697TIP3    H253507   2.401   1.235   0.164  0.7202 -0.3512  1.8000
10698TIP3   OH253508   3.618   1.995  15.224 -0.0414 -0.4377 -0.4681
10698TIP3    H153509   3.640   1.902  15.221 -1.3231 -0.7591 -0.0044
10698TIP3    H253510   3.527   2.000  15.196  0.2908  0.7838 -1.3944
10699TIP3   OH253511   6.041   6.388  15.106 -0.3124 -0.0085 -0.0240
10699TIP3    H153512   6.105   6.458  15.095 -1.1118  0.7706  0.2020
10699TIP3    H253513   6.093   6.311  15.129  0.4514  0.8727  1.2386
10700TIP3   OH253514   0.798   5.678   1.130 -0.0838 -0.0789 -0.1028
10700TIP3    H153515   0.865   5.610   1.134 -0.2934 -0.2468  0.5656
10700TIP3    H253516   0.810   5.729   1.210 -0.1216  0.4919 -0.4546
10701TIP3   OH253517   6.751   0.517  14.329  0.0811  0.6052  0.2534
10701TIP3    H153518   6.775   0.591  14.385 -1.8261  0.1046  1.8156
10701TIP3    H253519   6.814   0.448  14.351  1.0326  1.3293 -0.2203
10702TIP3   OH253520   0.774   1.586   3.754  0.1301 -0.4012  0.1246
10702TIP3    H153521   0.838   1.534   3.705  0.0108  0.6784 -1.2010
10702TIP3    H253522   0.743   1.652   3.692 -0.5123  0.5972  1.4668
10703TIP3   OH253523   0.890   3.190  14.508 -0.0938 -0.1491 -0.2290
10703TIP3    H153524   0.921   3.108  14.471 -1.7731 -1.4155  1.0899
10703TIP3    H253525   0.850   3.237  14.435  0.8605 -0.4920 -0.9770
10704TIP3   OH253526   6.241   2.993   5.043  0.2265 -0.0474 -0.2096
10704TIP3    H153527   6.322   2.943   5.056  0.8944  0.5932 -1.7295
10704TIP3    H253528   6.235   3.050   5.120  1.5628  0.3473 -0.3858
10705TIP3   OH253529   6.661   3.882  12.677  0.2835  0.3106  0.1417
10705TIP3    H153530   6.657   3.888  12.773 -0.3839 -0.3980  0.1590
10705TIP3    H253531   6.593   3.819  12.654  0.2780  0.6650 -0.8226
10706TIP3   OH253532   6.542   0.009  13.583  0.4368  0.3694 -0.5318
10706TIP3    H153533   6.501  -0.064  13.536  0.3224  1.3622 -1.9871
10706TIP3    H253534   6.548   0.079  13.519  1.6818  1.2449  0.5176
10707TIP3   OH253535   1.099   2.205  15.787 -0.1892 -0.2277  0.3424
10707TIP3    H153536   1.010   2.221  15.754 -0.2194  1.3767  1.1543
10707TIP3    H253537   1.138   2.145  15.724 -0.8840  1.2994 -1.5760
10708TIP3   OH253538   0.852   4.425   5.803  0.3672 -0.2831  0.2395
10708TIP3    H153539   0.757   4.420   5.811  0.4168 -2.2610 -0.1103
10708TIP3    H253540   0.877   4.502   5.854 -1.2787 -0.6666  1.6629
10709TIP3   OH253541   3.872   5.794  12.555  0.3038  0.1905  0.1743
10709TIP3    H153542   3.777   5.809  12.544  0.3499  0.6741  0.4110
10709TIP3    H253543   3.888   5.710  12.512  0.1899  1.2974 -2.1064
10710TIP3   OH253544   0.631   3.133   1.333 -0.3866 -0.3211 -0.6202
10710TIP3    H153545   0.652   3.102   1.245 -1.7874 -0.1685 -1.0077
10710TIP3    H253546   0.634   3.055   1.388 -0.2487 -0.5362 -0.9335
10711TIP3   OH253547   6.754   3.480  12.272 -0.2602  0.4757  0.9202
10711TIP3    H153548   6.749   3.471  12.367  0.6928 -2.2585  0.7755
10711TIP3    H253549   6.676   3.434  12.240 -0.6080  1.4359  0.3854
10712TIP3   OH253550   3.144   6.608  14.711 -0.2688  0.6383 -0.1558
10712TIP3    H153551   3.121   6.696  14.679 -0.8760  0.1966 -0.9670
10712TIP3    H253552   3.062   6.559  14.704  0.5931 -0.6225 -1.8579
10713TIP3   OH253553   0.352   3.393   3.373 -0.2367 -0.3743 -0.1768
10713TIP3    H153554   0.362   3.409   3.467  4.0559  0.7584 -0.7029
10713TIP3    H253555   0.260   3.408   3.356 -0.7360  1.4260  3.5198
10714TIP3   OH253556   4.371   5.821  11.597  0.1324 -0.3614  0.2735
10714TIP3    H153557   4.436   5.822  11.668  0.1719 -0.7137  0.2407
10714TIP3    H253558   4.369   5.731  11.567 -1.4718 -0.6917  1.2873
10715TIP3   OH253559   3.679   4.375   3.379  0.3361 -0.0853  0.5755
10715TIP3    H153560   3.738   4.450   3.393  0.6552  0.1135 -1.5896
10715TIP3    H253561   3.619   4.405   3.311 -1.5175 -0.7402  1.8762
10716TIP3   OH253562   1.074   5.204   2.226  0.1356  0.3333  0.6802
10716TIP3    H153563   1.058   5.111   2.239  1.2612 -0.1442 -1.0754
10716TIP3    H253564   1.130   5.208   2.148  1.6894  2.3634  1.8491
10717TIP3   OH253565   1.712   3.347   0.404 -0.5282  0.9251  0.5869
10717TIP3    H153566   1.688   3.351   0.312  2.2941 -0.3675 -0.2587
10717TIP3    H253567   1.769   3.422   0.418  0.1032  0.3791  0.9575
10718TIP3   OH253568   1.170   3.482  15.465  0.2611  0.2314 -0.4149
10718TIP3    H153569   1.218   3.413  15.420 -0.1805  0.7231 -1.6805
10718TIP3    H253570   1.177   3.557  15.406 -1.7486  0.4044 -0.4649
10719TIP3   OH253571   1.063   6.260  14.044 -0.6641  0.0087  0.2843
10719TIP3    H153572   0.999   6.189  14.044  1.1256 -1.6715  2.0797
10719TIP3    H253573   1.078   6.279  14.137  0.8732  0.8788 -0.1190
10720TIP3   OH253574   4.363   2.097   4.651 -0.2493  0.1017 -0.3096
10720TIP3    H153575   4.275   2.083   4.615 -0.3832 -0.1532  0.1111
10720TIP3    H253576   4.387   2.185   4.622 -0.5029  0.0402 -0.7159
10721TIP3   OH253577   6.341   1.912  11.959  0.7534  0.7240 -0.3707
10721TIP3    H153578   6.268   1.913  12.020  0.8966 -2.6443 -0.0689
10721TIP3    H253579   6.368   2.004  11.952 -2.1548  1.7396  1.0812
10722TIP3   OH253580   5.037   6.211   3.940  0.3231 -0.3054 -0.3339
10722TIP3    H153581   5.101   6.265   3.987 -0.1714  2.1179 -2.3416
10722TIP3    H253582   4.959   6.266   3.933 -0.9588 -2.1051 -0.5265
10723TIP3   OH253583   4.446   2.983  10.936 -0.0769 -0.0135 -0.3374
10723TIP3    H153584   4.378   2.954  10.876 -0.2848 -3.2772  1.4092
10723TIP3    H253585   4.412   3.065  10.972 -1.7999 -0.1638 -1.5390
10724TIP3   OH253586   2.495   2.587  12.430  0.3069 -0.1235 -0.1973
10724TIP3    H153587   2.452   2.502  12.443 -0.7301  0.2853 -0.9283
10724TIP3    H253588   2.570   2.568  12.373  1.7555 -1.0162  1.9174
10725TIP3   OH253589   0.870   0.475  14.169 -0.0222  0.5327 -0.6163
10725TIP3    H153590   0.892   0.494  14.261 -1.0392  0.4536 -0.3423
10725TIP3    H253591   0.919   0.540  14.119  0.9663  0.2380 -0.0517
10726TIP3   OH253592   3.135   4.565  14.386  0.2468  0.3247 -0.4463
10726TIP3    H153593   3.100   4.595  14.302 -1.4404  0.6056  0.3482
10726TIP3    H253594   3.108   4.632  14.449  0.3971 -0.5335  0.5410
10727TIP3   OH253595   2.953   1.427   2.237 -0.1265 -0.1743 -0.4956
10727TIP3    H153596   3.030   1.428   2.294 -0.2697 -0.4811 -0.2999
10727TIP3    H253597   2.879   1.443   2.296 -0.3407 -1.1353 -0.4951
10728TIP3   OH253598   2.171   4.789   4.739  0.2115 -0.0152 -0.4938
10728TIP3    H153599   2.246   4.848   4.728 -0.7548  1.3543  0.2748
10728TIP3    H253600   2.158   4.783   4.833  1.5741 -3.1018 -0.4346
10729TIP3   OH253601   3.724   1.205   3.807 -0.1395  0.0964 -0.6877
10729TIP3    H153602   3.787   1.179   3.874  0.2721  0.4342 -0.9430
10729TIP3    H253603   3.765   1.279   3.762 -0.9529  0.6624 -0.5062
10730TIP3   OH253604   2.763   1.243   5.634 -0.1013  0.8293  0.6172
10730TIP3    H153605   2.728   1.313   5.689  0.8253  0.8938  1.1388
10730TIP3    H253606   2.832   1.203   5.688  0.9366  1.0097 -0.5563
10731TIP3   OH253607   0.617   2.760   2.875 -0.4217  0.1603 -0.5821
10731TIP3    H153608   0.522   2.759   2.885 -0.3481  0.7533  0.1875
10731TIP3    H253609   0.650   2.777   2.962  0.3948  0.1012 -0.8780
10732TIP3   OH253610   3.112   3.693   3.283 -0.1890 -0.1977  0.0756
10732TIP3    H153611   3.042   3.742   3.240 -1.8057 -1.3326  1.3405
10732TIP3    H253612   3.131   3.621   3.223 -1.0097 -0.6328  0.3473
10733TIP3   OH253613   5.812   4.459  12.814  0.4575 -0.0097  0.4654
10733TIP3    H153614   5.774   4.409  12.886  0.1967  0.8032  0.8953
10733TIP3    H253615   5.808   4.400  12.739  0.5392 -0.7840  1.0674
10734TIP3   OH253616   1.017   1.056  13.559 -0.5385 -0.4463 -0.4287
10734TIP3    H153617   1.112   1.063  13.553 -0.3929 -0.7783  1.2362
10734TIP3    H253618   0.985   1.091  13.475  1.1069 -1.9842 -1.7447
10735TIP3   OH253619   4.340   0.807  13.436 -0.5813 -0.4463 -0.0188
10735TIP3    H153620   4.312   0.868  13.505 -1.3170  0.3696 -1.0345
10735TIP3    H253621   4.340   0.722  13.479 -1.9797 -0.0849  0.7525
10736TIP3   OH253622   1.765   6.699  15.546  0.0019  0.1628 -0.2182
10736TIP3    H153623   1.779   6.677  15.454 -1.7478 -0.1399 -0.4278
10736TIP3    H253624   1.750   6.615  15.589 -0.3002  0.4006  0.1435
10737TIP3   OH253625   4.667   1.278   2.377  0.2478  0.4275  0.4269
10737TIP3    H153626   4.722   1.333   2.432  0.7604  1.1174 -0.7427
10737TIP3    H253627   4.700   1.293   2.288  0.5705 -1.9800  0.1207
10738TIP3   OH253628   2.728   1.820   6.338 -0.3419  0.0243  0.6867
10738TIP3    H153629   2.677   1.813   6.419 -0.7014 -1.8591  0.3049
10738TIP3    H253630   2.757   1.911   6.337 -1.0155  0.2894  2.5269
10739TIP3   OH253631   1.669   1.549  17.039  0.0391 -0.2661 -0.5546
10739TIP3    H153632   1.634   1.482  17.099  0.1175  0.2287  0.0537
10739TIP3    H253633   1.591   1.588  16.999  0.0132 -1.0608 -1.2828
10740TIP3   OH253634   1.824   0.073   5.048 -0.1549  0.1718 -0.7377
10740TIP3    H153635   1.786   0.063   4.961 -1.2473  1.4440 -0.4208
10740TIP3    H253636   1.867   0.158   5.047 -0.5555  0.3952  0.0954
10741TIP3   OH253637   6.753   1.609  11.780  0.5425 -0.1818 -0.9683
10741TIP3    H153638   6.692   1.535  11.777  0.9133 -0.5301 -0.0306
10741TIP3    H253639   6.784   1.611  11.870  0.5463  1.1157 -0.9892
10742TIP3   OH253640   3.448   5.338   0.448 -0.2167  0.3456 -0.0530
10742TIP3    H153641   3.420   5.311   0.361 -1.5010  0.8337  0.1975
10742TIP3    H253642   3.368   5.340   0.500  0.1375  2.5900  0.4668
10743TIP3   OH253643   2.408   5.028  11.899 -0.2948 -0.9088  0.0055
10743TIP3    H153644   2.425   5.099  11.961 -0.7670 -1.6905  1.0357
10743TIP3    H253645   2.320   5.046  11.866  0.0329 -0.3826 -0.5918
10744TIP3   OH253646   4.820   1.401   4.752  0.3165 -0.1525 -0.7452
10744TIP3    H153647   4.750   1.401   4.687  1.0479 -0.5503 -1.5394
10744TIP3    H253648   4.830   1.310   4.778  0.6336 -0.1160 -0.7319
10745TIP3   OH253649   5.859   3.591  14.040  0.0314 -0.1132  0.0453
10745TIP3    H153650   5.821   3.673  14.009 -2.4112 -1.4058 -0.5935
10745TIP3    H253651   5.897   3.551  13.962 -1.4730 -0.9465 -0.2907
10746TIP3   OH253652   3.755   3.678  16.864 -0.2865 -0.0511  0.4560
10746TIP3    H153653   3.720   3.611  16.807 -0.9907 -0.5945  1.5135
10746TIP3    H253654   3.790   3.745  16.804  0.1657 -1.2093 -0.5890
10747TIP3   OH253655   2.979   3.114   2.533  0.2263  0.6626 -0.4569
10747TIP3    H153656   2.951   3.038   2.583 -0.8529  1.5767  0.3473
10747TIP3    H253657   3.061   3.141   2.574 -0.4052  1.1174  0.5118
10748TIP3   OH253658   0.878   1.839   0.072  0.5163  0.1209  0.6417
10748TIP3    H153659   0.855   1.932   0.069 -0.2080 -0.0841 -0.1645
10748TIP3    H253660   0.841   1.802  -0.008  0.4099 -0.9499  1.1747
10749TIP3   OH253661   4.897   4.858  12.899  0.0983 -0.0308  0.0163
10749TIP3    H153662   4.938   4.772  12.908  1.5702  0.7963  1.4676
10749TIP3    H253663   4.835   4.863  12.972 -0.0362  0.1149 -0.1068
10750TIP3   OH253664   4.221   6.141   0.323  0.7074 -0.3830  0.3273
10750TIP3    H153665   4.170   6.080   0.377 -1.9252  2.1701  0.8430
10750TIP3    H253666   4.264   6.199   0.385  0.6602  0.2530 -0.2239
10751TIP3   OH253667   6.179   3.859  12.695 -0.2093  0.1507 -0.2165
10751TIP3    H153668   6.163   3.814  12.778 -2.1945  0.5855 -0.3399
10751TIP3    H253669   6.233   3.935  12.720  1.3778 -1.1176  0.2793
10752TIP3   OH253670   2.426   4.064  15.855  0.2857  0.0562  0.6660
10752TIP3    H153671   2.375   4.141  15.879  0.9415  0.6705  0.1090
10752TIP3    H253672   2.364   4.010  15.806 -0.1578  0.2554  1.0027
10753TIP3   OH253673   5.686   1.749   5.119  0.2754 -0.4328  0.6495
10753TIP3    H153674   5.776   1.767   5.092 -0.8635  1.0811 -2.3040
10753TIP3    H253675   5.663   1.823   5.175  0.0142  0.5425 -0.7304
10754TIP3   OH253676   3.657   3.171   0.275  0.5852 -0.0003  1.0515
10754TIP3    H153677   3.572   3.183   0.232  1.7170 -1.3099 -1.7413
10754TIP3    H253678   3.693   3.259   0.281 -0.0527  0.3381  0.2075
10755TIP3   OH253679   4.314   1.547  13.908  0.5208  0.3997  0.1428
10755TIP3    H153680   4.383   1.612  13.924  0.9912 -0.3915  1.3855
10755TIP3    H253681   4.250   1.594  13.855  1.5527  1.4422 -0.2113
10756TIP3   OH253682   5.950   5.080   5.621 -0.3577  0.3730 -0.0220
10756TIP3    H153683   5.860   5.066   5.651  0.3350 -1.2971  1.3258
10756TIP3    H253684   5.951   5.043   5.533 -0.4201 -1.6819  0.8213
10757TIP3   OH253685   4.022   5.578  13.031 -0.0228 -0.2791 -0.9016
10757TIP3    H153686   3.937   5.608  13.064  0.4064  0.5148 -0.5112
10757TIP3    H253687   4.084   5.599  13.101  0.1987 -2.7249 -0.3079
10758TIP3   OH253688   5.384   1.413  11.973 -0.0834  0.4570  0.3188
10758TIP3    H153689   5.475   1.435  11.955  0.3781 -1.0114  0.7800
10758TIP3    H253690   5.383   1.386  12.065 -1.2284  1.6725  0.6934
10759TIP3   OH253691   1.955   2.994   5.384 -0.2848  0.3246  0.1678
10759TIP3    H153692   1.898   2.948   5.322 -1.7849  1.7370  0.4523
10759TIP3    H253693   1.908   3.075   5.404  1.2595  0.9502  1.3878
10760TIP3   OH253694   5.374   5.213   0.744 -0.0510  0.0378  0.5378
10760TIP3    H153695   5.438   5.150   0.777  1.4307  2.1019  1.7552
10760TIP3    H253696   5.291   5.184   0.780  0.8550 -0.3604  2.3811
10761TIP3   OH253697   3.649   0.505   2.079 -0.7939 -0.5442  0.3323
10761TIP3    H153698   3.650   0.585   2.133 -0.7534  0.7217 -1.4831
10761TIP3    H253699   3.568   0.460   2.104 -0.2562 -0.5069  2.1815
10762TIP3   OH253700   6.364   5.864   4.508 -0.3248  0.3216 -0.0274
10762TIP3    H153701   6.400   5.900   4.427 -1.2493  0.8809 -0.2040
10762TIP3    H253702   6.270   5.882   4.502 -0.9981 -2.9694 -0.5798
10763TIP3   OH253703   4.015   4.013  10.773 -0.3783 -0.0414  1.6640
10763TIP3    H153704   4.054   4.097  10.746 -0.1402 -0.0974  1.8268
10763TIP3    H253705   4.090   3.955  10.785 -0.7629 -1.6293 -2.7789
10764TIP3   OH253706   0.581   2.886  11.633  0.1320 -0.3301 -0.0576
10764TIP3    H153707   0.551   2.809  11.585 -0.5857  0.3295 -0.6963
10764TIP3    H253708   0.663   2.911  11.590 -0.8489  0.6599 -1.4239
10765TIP3   OH253709   0.587   5.784  13.683  0.6834  0.3522  0.1924
10765TIP3    H153710   0.590   5.874  13.648 -0.0635  0.8837  1.4563
10765TIP3    H253711   0.550   5.733  13.611  1.2026  1.0333 -0.5779
10766TIP3   OH253712   3.690   6.372  14.788  0.5682  0.4247 -0.4765
10766TIP3    H153713   3.729   6.423  14.860  0.0882  0.0301  0.0720
10766TIP3    H253714   3.602   6.351  14.819  1.5119 -2.6702  0.2836
10767TIP3   OH253715   1.532   0.401   0.946 -0.6596 -0.3851  0.7075
10767TIP3    H153716   1.538   0.320   0.896  0.5671  1.6648 -2.6420
10767TIP3    H253717   1.472   0.456   0.895 -1.4478  0.8738  2.9045
10768TIP3   OH253718   0.223   5.070  15.867  0.6917  0.7570 -0.4117
10768TIP3    H153719   0.204   5.115  15.949  0.9272  1.7468 -0.9021
10768TIP3    H253720   0.138   5.047  15.831  0.6136 -1.1360  0.9101
10769TIP3   OH253721   2.722   5.302  11.090  0.4247 -0.5647 -0.2153
10769TIP3    H153722   2.707   5.240  11.018 -0.7359  0.2688 -0.6897
10769TIP3    H253723   2.815   5.326  11.081  0.3956 -0.7722 -1.1804
10770TIP3   OH253724   4.755   1.613  16.826  0.0408 -0.2645 -0.0565
10770TIP3    H153725   4.710   1.576  16.749 -0.6341 -2.3489  1.2775
10770TIP3    H253726   4.739   1.707  16.820  0.3939 -0.3301 -2.7099
10771TIP3   OH253727   2.144   4.738  14.480  0.9161  0.4918  0.4266
10771TIP3    H153728   2.052   4.764  14.474  1.2603  1.8224  0.6094
10771TIP3    H253729   2.164   4.703  14.393  0.8377  2.3311 -0.3769
10772TIP3   OH253730   4.841   2.405   2.108 -0.2723  0.0520  0.3471
10772TIP3    H153731   4.797   2.353   2.041  1.1057  0.8501 -1.1999
10772TIP3    H253732   4.826   2.496   2.081  0.0241  0.3905  1.3067
10773TIP3   OH253733   3.337   6.294  15.361 -0.1230 -0.0056  0.0895
10773TIP3    H153734   3.276   6.224  15.384  0.1499 -0.3264 -0.1537
10773TIP3    H253735   3.423   6.251  15.360  0.0990  0.4334  0.3856
10774TIP3   OH253736   0.112   5.137   1.601  0.1528 -0.2415 -0.3644
10774TIP3    H153737   0.184   5.183   1.644 -0.1589 -0.6813  0.6411
10774TIP3    H253738   0.155   5.081   1.535  0.6787 -0.0013 -0.2286
10775TIP3   OH253739   3.592   4.291   3.726  0.4927 -0.1676  0.0074
10775TIP3    H153740   3.656   4.330   3.667  1.5955  0.2323  1.4262
10775TIP3    H253741   3.641   4.273   3.807 -0.9412 -0.8034  0.7714
10776TIP3   OH253742   5.797   3.248  17.104 -0.0904 -0.5647 -0.2019
10776TIP3    H153743   5.762   3.175  17.155  0.7554 -1.6109 -1.0844
10776TIP3    H253744   5.776   3.225  17.013  0.8992 -0.1102 -0.5481
10777TIP3   OH253745   4.614   3.614   4.853  0.3088  0.6313  0.3541
10777TIP3    H153746   4.696   3.661   4.840 -0.2882  1.0353 -2.1528
10777TIP3    H253747   4.552   3.681   4.882  0.4492  0.6358  0.6453
10778TIP3   OH253748   0.411   4.525  14.136  0.0726  0.5314 -0.3024
10778TIP3    H153749   0.423   4.601  14.192 -0.7493 -0.2841  0.9963
10778TIP3    H253750   0.436   4.450  14.190 -1.7133 -0.3500 -0.6438
10779TIP3   OH253751   2.535   1.654   2.483 -0.0354 -0.2615  0.0670
10779TIP3    H153752   2.518   1.638   2.391 -0.2520  0.6762 -0.0570
10779TIP3    H253753   2.514   1.571   2.526  1.4457 -1.1612 -0.8856
10780TIP3   OH253754   2.113   4.641   3.629  0.5273  0.0531  0.3974
10780TIP3    H153755   2.056   4.691   3.687 -0.6196  0.1255 -0.7801
10780TIP3    H253756   2.066   4.637   3.546  2.2483  0.1765 -0.6230
10781TIP3   OH253757   5.400   3.056   3.214 -0.0262 -0.5999  0.4484
10781TIP3    H153758   5.488   3.043   3.249  1.0149 -1.8366 -2.4532
10781TIP3    H253759   5.410   3.043   3.119 -3.4755 -1.6230  0.1597
10782TIP3   OH253760   1.216   4.588  12.696 -0.1145 -0.3048  0.0122
10782TIP3    H153761   1.282   4.652  12.720  0.1763  0.0331 -1.5811
10782TIP3    H253762   1.264   4.520  12.649 -0.9469  0.2716 -1.7601
10783TIP3   OH253763   4.231   4.914  10.675 -0.3942 -0.0876 -0.6166
10783TIP3    H153764   4.248   4.935  10.767  2.0684 -0.8508 -0.8785
10783TIP3    H253765   4.223   5.000  10.632 -1.3558  0.2680  0.2634
10784TIP3   OH253766   2.893   3.949  14.674 -0.3005 -0.4060  0.0757
10784TIP3    H153767   2.945   4.027  14.657  1.5807 -2.2632 -3.3165
10784TIP3    H253768   2.944   3.900  14.739 -0.8146  0.5383  1.2030
10785TIP3   OH253769   5.228   6.046  11.522  0.0413 -0.2356 -0.1510
10785TIP3    H153770   5.161   5.981  11.542  0.6462 -1.3849 -1.7934
10785TIP3    H253771   5.191   6.097  11.450  0.0156  0.5860  0.4303
10786TIP3   OH253772   2.231   3.646   5.710  0.0684 -0.2764 -0.6974
10786TIP3    H153773   2.246   3.688   5.625 -0.9041  1.7784  0.1136
10786TIP3    H253774   2.304   3.674   5.764 -0.0815 -0.4184 -0.4197
10787TIP3   OH253775   5.473   4.105  15.222 -0.2266 -0.0553  0.7592
10787TIP3    H153776   5.442   4.014  15.217 -1.6297  0.4023  1.0390
10787TIP3    H253777   5.462   4.139  15.133 -0.8226  0.1940  0.9238
10788TIP3   OH253778   3.818   5.920  16.928 -0.4289  0.4260  0.0202
10788TIP3    H153779   3.863   5.988  16.877 -1.3248 -0.3509 -1.8396
10788TIP3    H253780   3.870   5.841  16.912 -1.7138 -0.1967 -1.0946
10789TIP3   OH253781   0.463   6.367  11.316 -0.0966 -0.4600 -0.0030
10789TIP3    H153782   0.499   6.411  11.392 -0.3729 -1.0435  0.4672
10789TIP3    H253783   0.368   6.381  11.323 -0.2815 -2.0436  0.7279
10790TIP3   OH253784   2.991   0.815  16.875 -0.0391  0.0060 -0.4562
10790TIP3    H153785   2.962   0.725  16.890 -2.9232  1.2034  1.6362
10790TIP3    H253786   3.077   0.820  16.918 -0.0185 -1.6106 -0.2782
10791TIP3   OH253787   3.327   5.627   0.944  0.1537 -0.7361  0.5821
10791TIP3    H153788   3.387   5.570   0.995  1.9851 -0.5093 -1.2545
10791TIP3    H253789   3.289   5.569   0.879 -0.2216 -0.4657  0.5599
10792TIP3   OH253790   0.318   4.730  13.520 -0.2210  0.2196  0.0483
10792TIP3    H153791   0.394   4.742  13.462  1.5814 -0.7359  2.1398
10792TIP3    H253792   0.274   4.815  13.519  1.5115  1.1490 -0.3571
10793TIP3   OH253793   5.141   1.513   1.262  0.0827 -0.3108 -0.4752
10793TIP3    H153794   5.152   1.487   1.170  1.5094  1.4766 -0.8451
10793TIP3    H253795   5.094   1.596   1.258 -1.4822 -1.1256  0.5216
10794TIP3   OH253796   6.596   1.700  13.156 -0.2064 -0.5851 -1.0015
10794TIP3    H153797   6.611   1.763  13.226 -1.4171 -0.8194 -0.5222
10794TIP3    H253798   6.511   1.723  13.120  0.2543 -0.6867 -2.1637
10795TIP3   OH253799   2.506   4.764   3.919 -0.3171  0.4257  0.0940
10795TIP3    H153800   2.499   4.860   3.922  0.8805  0.5018  0.4842
10795TIP3    H253801   2.509   4.737   4.011  1.9657  0.2143 -0.0270
10796TIP3   OH253802   6.053   2.441  11.238 -0.3633 -0.6117  0.3396
10796TIP3    H153803   6.068   2.492  11.158 -2.7618 -0.3932  0.0155
10796TIP3    H253804   6.087   2.354  11.217  1.0178  0.0277 -0.1445
10797TIP3   OH253805   1.085   1.938  13.507  0.4859  0.0189 -0.1127
10797TIP3    H153806   1.039   2.021  13.492  0.6881  0.6875  2.7683
10797TIP3    H253807   1.026   1.888  13.564  1.2288 -1.0401 -0.2589
10798TIP3   OH253808   5.333   2.192   2.075 -0.0586  0.3939 -0.4881
10798TIP3    H153809   5.339   2.230   2.163 -0.7722  1.0334 -0.7114
10798TIP3    H253810   5.417   2.213   2.035  0.1091  0.4708 -0.1018
10799TIP3   OH253811   0.052   0.537  12.920 -0.1918 -0.0249  0.2856
10799TIP3    H153812   0.042   0.575  13.007 -0.9810 -1.2197  0.7179
10799TIP3    H253813   0.018   0.604  12.860  0.5133  0.8673  0.8736
10800TIP3   OH253814   6.665   6.334  12.899  0.2475 -0.5178 -0.1799
10800TIP3    H153815   6.713   6.271  12.952  2.5737 -0.0361 -1.6139
10800TIP3    H253816   6.726   6.408  12.890 -0.1531 -0.5206 -3.3066
10801TIP3   OH253817   4.972   0.231  13.787  0.3245  0.5716 -0.1250
10801TIP3    H153818   4.927   0.249  13.870  0.7663  0.6239  0.1030
10801TIP3    H253819   5.047   0.291  13.787  0.6899  0.1152 -0.2699
10802TIP3   OH253820   4.594   3.049   1.419 -0.3523  0.4047 -0.3928
10802TIP3    H153821   4.523   3.084   1.366 -0.0291 -0.8177 -1.6853
10802TIP3    H253822   4.663   3.028   1.356  0.1422 -0.8306  0.5295
10803TIP3   OH253823   2.511   5.161  12.534  0.1791 -0.2649  1.0840
10803TIP3    H153824   2.484   5.087  12.479 -0.7078  1.1855 -0.4964
10803TIP3    H253825   2.522   5.123  12.621 -0.1162 -2.2904  0.2826
10804TIP3   OH253826   2.682   0.609  12.251  0.0208  0.3208  0.2342
10804TIP3    H153827   2.646   0.567  12.329 -2.7634  0.5801 -0.8773
10804TIP3    H253828   2.690   0.538  12.188 -0.3915  0.6315 -0.1673
10805TIP3   OH253829   4.250   3.650  13.288 -0.0792  0.9575 -0.1713
10805TIP3    H153830   4.249   3.698  13.370 -0.7594  1.1742 -0.3013
10805TIP3    H253831   4.311   3.699  13.232  1.0866  0.2934  0.4962
10806TIP3   OH253832   4.400   1.424   5.339 -0.2289 -0.0255 -0.0340
10806TIP3    H153833   4.450   1.355   5.296 -0.0157  0.2175 -0.1824
10806TIP3    H253834   4.374   1.387   5.423 -3.0617 -1.5284 -1.4963
10807TIP3   OH253835   3.839   1.481  12.659 -0.0466  0.0793  0.3448
10807TIP3    H153836   3.928   1.515  12.670  0.5136 -0.6906 -1.6330
10807TIP3    H253837   3.844   1.390  12.687 -0.3669  0.1969  0.7980
10808TIP3   OH253838   1.597   6.688  14.628 -0.4564  0.5066  0.1044
10808TIP3    H153839   1.617   6.596  14.649  0.8018  0.6945 -0.2417
10808TIP3    H253840   1.524   6.682  14.566  0.1036 -0.2997 -0.4960
10809TIP3   OH253841   6.175   0.192  11.518 -0.1790 -0.0017 -0.4599
10809TIP3    H153842   6.177   0.115  11.575 -0.7613 -0.8415 -1.5559
10809TIP3    H253843   6.195   0.158  11.430  0.5262  1.2412 -0.7964
10810TIP3   OH253844   1.013   5.064  12.661  0.2242  0.0171 -0.5366
10810TIP3    H153845   1.081   5.130  12.666 -0.5356  0.8023 -0.4704
10810TIP3    H253846   1.057   4.987  12.625  1.1811  0.4582 -0.3282
10811TIP3   OH253847   6.386   0.968  12.044  0.1609  0.1557 -0.3538
10811TIP3    H153848   6.303   1.008  12.015 -1.7667 -2.4553  1.3081
10811TIP3    H253849   6.429   0.940  11.964 -2.4095 -1.8396 -1.1125
10812TIP3   OH253850   6.045   0.313  10.829  0.5043 -0.2933  0.3643
10812TIP3    H153851   6.130   0.344  10.797 -0.1454 -0.3689 -1.5301
10812TIP3    H253852   6.030   0.232  10.780 -2.0475  1.3287 -1.6573
10813TIP3   OH253853   6.635   2.630   2.376 -0.4878  0.0072 -0.1077
10813TIP3    H153854   6.684   2.609   2.455  1.5535  1.6953 -0.8504
10813TIP3    H253855   6.573   2.698   2.403 -0.7509 -0.4115  0.3338
10814TIP3   OH253856   5.393   6.206   0.609 -0.2005  0.2020 -0.1514
10814TIP3    H153857   5.317   6.228   0.663 -0.8688 -1.2182 -0.4945
10814TIP3    H253858   5.364   6.133   0.554  1.4718 -0.5225 -0.1256
10815TIP3   OH253859   0.577   4.608  12.415  0.4753  0.3124  0.8739
10815TIP3    H153860   0.550   4.523  12.450  0.2101 -0.0520 -0.2017
10815TIP3    H253861   0.509   4.632  12.353  1.0890  0.8058  0.3783
10816TIP3   OH253862   5.840   2.987  13.368  0.2257 -0.0008  0.4348
10816TIP3    H153863   5.861   3.071  13.326  0.6426 -1.1308 -1.6954
10816TIP3    H253864   5.873   2.997  13.457  2.5812  1.2125 -0.5093
10817TIP3   OH253865   2.716   5.838  15.701 -0.2602  0.8598 -0.1125
10817TIP3    H153866   2.682   5.860  15.614 -2.6582  0.0012  0.5653
10817TIP3    H253867   2.777   5.765  15.686  0.3577  1.5844 -1.2034
10818TIP3   OH253868   5.878   0.492   4.347  0.1846 -0.1136 -0.7808
10818TIP3    H153869   5.879   0.517   4.255 -0.6286 -0.5360 -0.9125
10818TIP3    H253870   5.815   0.552   4.387  0.2032 -0.2193 -0.5941
10819TIP3   OH253871   3.336   6.183   5.689 -0.0566 -0.5676 -0.2186
10819TIP3    H153872   3.346   6.089   5.678 -0.3319 -0.5327 -0.7647
10819TIP3    H253873   3.389   6.204   5.767 -0.9491 -1.3434  0.6046
10820TIP3   OH253874   4.664   4.852   3.196  0.1778  0.4922  0.0857
10820TIP3    H153875   4.724   4.778   3.212  0.8203  0.7271 -1.1851
10820TIP3    H253876   4.581   4.823   3.234  1.5987  1.0142  3.8074
10821TIP3   OH253877   4.332   1.831  11.737  0.4237 -0.5428 -0.3254
10821TIP3    H153878   4.322   1.781  11.819 -0.8260  0.8623  0.3897
10821TIP3    H253879   4.427   1.841  11.728  0.5564 -0.1307  1.3133
10822TIP3   OH253880   0.275   0.224  16.444  0.0076 -0.0109  0.1621
10822TIP3    H153881   0.230   0.308  16.434  0.9025  0.1216 -3.2347
10822TIP3    H253882   0.368   0.246  16.434  0.2828 -1.3492 -0.2718
10823TIP3   OH253883   5.774   1.803   3.264  0.1596  0.3315 -0.0439
10823TIP3    H153884   5.689   1.800   3.307  0.4970  0.3602  0.6200
10823TIP3    H253885   5.837   1.776   3.331  0.7747  1.1224 -0.2911
10824TIP3   OH253886   1.081   1.799   5.239 -0.5867  0.1070 -0.4320
10824TIP3    H153887   1.039   1.713   5.245  1.6292 -0.9401  0.7424
10824TIP3    H253888   1.074   1.823   5.147 -0.5684 -1.6680 -0.9057
10825TIP3   OH253889   5.521   6.743   2.616  0.1835 -0.8428  0.2769
10825TIP3    H153890   5.532   6.655   2.650  1.8949 -0.3312  1.0889
10825TIP3    H253891   5.608   6.768   2.585  0.1124  1.1944  1.6337
10826TIP3   OH253892   6.553   0.220  12.174  0.3261 -0.1802  0.3306
10826TIP3    H153893   6.518   0.259  12.254  1.6195  0.6763  0.4928
10826TIP3    H253894   6.566   0.294  12.115 -0.2256 -0.7611 -0.5373
10827TIP3   OH253895   2.913   3.858   2.400  0.3240  0.1289  0.3670
10827TIP3    H153896   2.891   3.848   2.307 -2.2185  1.2274  0.7996
10827TIP3    H253897   2.878   3.779   2.441  2.6655 -1.0055  0.2153
10828TIP3   OH253898   6.283   4.942   4.634 -0.5083 -0.4018 -0.0313
10828TIP3    H153899   6.254   4.855   4.608  0.2686 -0.6018 -0.2263
10828TIP3    H253900   6.270   4.996   4.557 -3.0028  0.1555  0.7134
10829TIP3   OH253901   2.135   1.907   2.982 -0.2428  0.3667 -0.4120
10829TIP3    H153902   2.128   1.879   2.891 -1.5758  0.6232 -0.4037
10829TIP3    H253903   2.136   2.002   2.978 -1.2753  0.3906 -0.0987
10830TIP3   OH253904   4.358   1.970  13.248 -0.1117  0.8388 -0.2941
10830TIP3    H153905   4.282   1.912  13.238 -0.1627  1.0247 -1.0204
10830TIP3    H253906   4.404   1.937  13.325 -0.0857 -0.2229 -0.7597
10831TIP3   OH253907   3.513   4.653  14.187 -0.1643  0.5120 -0.1081
10831TIP3    H153908   3.448   4.662  14.118 -0.6755 -1.2986  0.1147
10831TIP3    H253909   3.462   4.653  14.268  0.1410 -0.5686  0.0849
10832TIP3   OH253910   6.697   4.413   2.391  0.2716 -0.2202  0.4286
10832TIP3    H153911   6.777   4.420   2.339 -0.1726  0.6970 -0.1619
10832TIP3    H253912   6.674   4.504   2.412 -0.6978 -0.4605  0.4489
10833TIP3   OH253913   3.833   1.466   4.448  0.1572 -0.1142  0.0514
10833TIP3    H153914   3.866   1.453   4.360  0.6669 -1.2732  0.4110
10833TIP3    H253915   3.747   1.507   4.436  0.1342 -0.4736 -0.9746
10834TIP3   OH253916   5.864   6.297  11.711  0.3019 -0.3916  0.4528
10834TIP3    H153917   5.933   6.362  11.704 -0.1256 -0.0246 -0.4172
10834TIP3    H253918   5.823   6.313  11.796 -0.0019  0.6802  0.1110
10835TIP3   OH253919   0.199   6.769   0.943  0.6931  0.2814  0.7145
10835TIP3    H153920   0.226   6.806   1.027  1.9578 -0.4507  0.6367
10835TIP3    H253921   0.207   6.674   0.955 -1.0627  0.0658  0.4171
10836TIP3   OH253922   4.210   4.440   2.993  0.0894  0.1485 -0.3782
10836TIP3    H153923   4.211   4.382   3.069 -2.1884 -0.3581 -0.7102
10836TIP3    H253924   4.300   4.438   2.960  0.5541 -1.4019  0.9493
10837TIP3   OH253925   2.904   5.272  13.166 -0.0964  0.2561 -0.1005
10837TIP3    H153926   2.892   5.255  13.260 -1.0937  0.6961 -0.1455
10837TIP3    H253927   2.859   5.355  13.151 -0.6444 -0.2300 -1.1355
10838TIP3   OH253928   2.129   2.601   4.309  0.1519  0.6389 -0.1343
10838TIP3    H153929   2.069   2.605   4.234  0.6290  0.1661 -0.5404
10838TIP3    H253930   2.075   2.564   4.380 -0.4386  1.5530 -0.1010
10839TIP3   OH253931   2.800   2.433   0.587  0.0348 -0.1371  0.4767
10839TIP3    H153932   2.837   2.480   0.663  0.5495  0.3567 -0.0730
10839TIP3    H253933   2.790   2.500   0.520 -1.2547 -0.4074  0.3996
10840TIP3   OH253934   2.563   5.235   4.910 -0.0444 -0.1879  0.3907
10840TIP3    H153935   2.609   5.165   4.865  0.2611 -0.2267  0.7618
10840TIP3    H253936   2.630   5.300   4.930 -0.1594 -0.2249  0.8952
10841TIP3   OH253937   4.719   5.072   3.776 -0.4710 -0.3272  0.6305
10841TIP3    H153938   4.810   5.101   3.767 -0.0308 -1.6969  0.4633
10841TIP3    H253939   4.676   5.101   3.696  0.3697 -1.5956 -0.3011
10842TIP3   OH253940   6.711   5.405  10.961  0.5629  0.3378  0.2636
10842TIP3    H153941   6.678   5.466  11.027  0.6035 -0.6928  1.2596
10842TIP3    H253942   6.652   5.330  10.966  0.3582  0.3986 -1.1257
10843TIP3   OH253943   2.565   5.920  12.275 -0.5426 -0.1065  0.1727
10843TIP3    H153944   2.501   5.984  12.244 -0.0613 -0.3478 -1.3584
10843TIP3    H253945   2.620   5.902  12.198  2.0301  0.8948  1.7249
10844TIP3   OH253946   5.792   1.942  13.778 -0.2265 -0.2157  0.0210
10844TIP3    H153947   5.773   1.858  13.736 -0.0996 -0.3564  0.2394
10844TIP3    H253948   5.709   1.970  13.816 -0.3000 -0.1769 -0.1700
10845TIP3   OH253949   6.065   1.568  11.338  0.0033  0.0471 -0.2641
10845TIP3    H153950   6.094   1.485  11.377 -1.5596 -0.1294  0.5382
10845TIP3    H253951   6.000   1.543  11.273  0.8356  0.5265 -1.2986
10846TIP3   OH253952   5.164   5.841  11.203  0.1650 -0.0791  0.2122
10846TIP3    H153953   5.114   5.827  11.122  0.0966  0.2397  0.1975
10846TIP3    H253954   5.226   5.768  11.205  0.1269 -0.1239 -0.0962
10847TIP3   OH253955   6.020   2.793   3.960 -0.2168  0.1776  0.0879
10847TIP3    H153956   6.057   2.732   4.023  1.7715  0.3341 -0.8891
10847TIP3    H253957   6.006   2.874   4.010 -1.4117 -0.5888  1.0077
10848TIP3   OH253958   6.387   2.353   2.104  0.1615 -0.6136  0.0884
10848TIP3    H153959   6.429   2.439   2.093  1.0759 -1.1443 -0.7415
10848TIP3    H253960   6.397   2.333   2.197 -2.3353  1.3034  0.8292
10849TIP3   OH253961   0.681   2.033   1.100  0.2025 -0.6531  0.3053
10849TIP3    H153962   0.718   2.044   1.012 -1.2366 -0.5777 -0.3034
10849TIP3    H253963   0.708   2.113   1.146  0.6204 -0.5015 -0.1875
10850TIP3   OH253964   3.175   0.361  15.149  0.2951 -0.3533 -0.3682
10850TIP3    H153965   3.211   0.391  15.065 -1.2104  0.8009 -0.6359
10850TIP3    H253966   3.240   0.300  15.183  2.8547  2.2083 -0.4848
10851TIP3   OH253967   4.151   3.241   3.656  0.2947 -0.0628  0.2244
10851TIP3    H153968   4.084   3.190   3.610  1.1515 -2.0437  1.0841
10851TIP3    H253969   4.214   3.265   3.588 -0.9464  1.2739 -0.4735
10852TIP3   OH253970   2.823   5.829  10.726  0.1101  0.1821 -0.9049
10852TIP3    H153971   2.800   5.842  10.634 -2.0336  0.0537 -0.4077
10852TIP3    H253972   2.837   5.917  10.760 -4.0539  0.6525 -0.1471
10853TIP3   OH253973   1.701   0.108   4.111 -0.2794 -0.1248  0.0655
10853TIP3    H153974   1.616   0.150   4.125 -0.4794 -0.4502 -0.1639
10853TIP3    H253975   1.731   0.085   4.199  0.2464  1.2969  0.2685
10854TIP3   OH253976   4.290   1.952   2.345  0.1479  0.0643  0.3587
10854TIP3    H153977   4.292   2.045   2.369  0.6273  0.0400  0.4279
10854TIP3    H253978   4.374   1.918   2.377  0.3166 -0.2132 -0.3664
10855TIP3   OH253979   0.510   5.114   2.279 -0.2844  0.9610  0.2050
10855TIP3    H153980   0.420   5.089   2.260  0.1528  0.6662 -1.6333
10855TIP3    H253981   0.544   5.043   2.334 -1.3930  1.4870  1.5928
10856TIP3   OH253982   3.026   0.473   1.156  0.1847 -0.6878  0.2283
10856TIP3    H153983   3.054   0.394   1.111 -1.2742 -0.0113 -2.0077
10856TIP3    H253984   3.106   0.510   1.194  1.1821 -2.1837 -0.3939
10857TIP3   OH253985   4.688   1.506   5.293 -0.0951  0.4632  0.2800
10857TIP3    H153986   4.623   1.511   5.223 -0.4168  0.1502  0.5506
10857TIP3    H253987   4.646   1.452   5.361  0.4496  0.2485  0.4522
10858TIP3   OH253988   4.693   3.474  15.545  0.2399  0.5668 -0.5825
10858TIP3    H153989   4.652   3.543  15.597  0.4969  0.3409 -0.0751
10858TIP3    H253990   4.771   3.516  15.507 -0.0005  0.7589 -0.8651
10859TIP3   OH253991   6.166   4.696  14.854 -0.5388 -0.5101  0.5259
10859TIP3    H153992   6.110   4.761  14.813  1.4100  1.0835  0.3140
10859TIP3    H253993   6.149   4.705  14.948  0.8914  1.4903  0.6320
10860TIP3   OH253994   5.619   0.674   0.425 -0.2698  0.4250 -0.0712
10860TIP3    H153995   5.553   0.669   0.355 -0.8946 -1.1446  0.6171
10860TIP3    H253996   5.633   0.768   0.438 -2.3644  0.7733 -0.2375
10861TIP3   OH253997   3.373   6.745   5.304 -0.5059  0.7454 -0.4126
10861TIP3    H153998   3.278   6.742   5.319 -1.0378 -2.4710 -3.7716
10861TIP3    H253999   3.406   6.802   5.373 -4.5315 -0.5580  2.8112
10862TIP3   OH254000   3.678   0.398  16.661  0.0726  0.8427 -0.1085
10862TIP3    H154001   3.699   0.310  16.691 -0.7128  0.2055 -1.3715
10862TIP3    H254002   3.585   0.408  16.677  0.1690  1.4725  0.0925
10863TIP3   OH254003   6.605   1.134  13.968 -0.1637  0.5491 -0.0350
10863TIP3    H154004   6.612   1.109  13.876 -1.1440 -1.6181  0.4553
10863TIP3    H254005   6.546   1.209  13.968 -0.2603  0.4827 -1.1611
10864TIP3   OH254006   3.882   0.599  16.655  0.1691 -0.2355  0.1492
10864TIP3    H154007   3.823   0.524  16.667  0.5968 -0.8349 -1.3810
10864TIP3    H254008   3.835   0.656  16.594  0.7262 -0.2423 -0.2885
10865TIP3   OH254009   2.947   2.171   4.467 -0.7126 -0.8210 -0.2308
10865TIP3    H154010   3.035   2.153   4.500  0.6961  2.4508 -1.9396
10865TIP3    H254011   2.919   2.248   4.517 -0.8156  0.7637 -2.6663
10866TIP3   OH254012   4.288   6.492   3.906  0.4644  0.1810  0.0281
10866TIP3    H154013   4.366   6.493   3.851  0.9981  0.7853  0.7798
10866TIP3    H254014   4.221   6.450   3.853  1.1552  0.1550 -0.8266
10867TIP3   OH254015   4.754   3.379   5.767 -0.7354  0.9964  0.2605
10867TIP3    H154016   4.767   3.399   5.675 -0.2920 -0.8179 -0.1000
10867TIP3    H254017   4.670   3.333   5.770  0.0124 -0.3745  0.5200
10868TIP3   OH254018   1.223   0.523   1.199 -0.0583  0.0652 -0.6352
10868TIP3    H154019   1.307   0.565   1.182  0.6698 -1.2228 -0.3144
10868TIP3    H254020   1.177   0.583   1.257  1.1291  0.2339  0.1437
10869TIP3   OH254021   4.789   1.255  11.502  0.1513 -0.1738  0.0136
10869TIP3    H154022   4.810   1.251  11.409 -1.3445 -1.8920 -0.2705
10869TIP3    H254023   4.702   1.295  11.505  0.4255  0.3937  0.7315
10870TIP3   OH254024   4.845   3.363   1.558  0.1390  0.1476 -0.5499
10870TIP3    H154025   4.876   3.302   1.491  2.7078  0.0498  0.6734
10870TIP3    H254026   4.759   3.329   1.583  1.1454 -2.5019 -0.5064
10871TIP3   OH254027   5.318   0.559   6.056  0.0961 -0.3190  0.7202
10871TIP3    H154028   5.252   0.493   6.076  1.5509 -1.9405  0.3821
10871TIP3    H254029   5.402   0.513   6.070  1.1664  0.3665 -2.8844
10872TIP3   OH254030   4.157   1.738   1.495  0.3803 -0.4844  0.0341
10872TIP3    H154031   4.168   1.649   1.531 -0.7401 -0.2913  0.8618
10872TIP3    H254032   4.105   1.784   1.561 -0.4375  0.3108 -1.1563
10873TIP3   OH254033   4.812   4.197  13.524  0.1730 -0.3528  0.0203
10873TIP3    H154034   4.728   4.215  13.481  0.4165 -0.6973 -0.6083
10873TIP3    H254035   4.835   4.109  13.495  0.2340 -0.6782  1.0385
10874TIP3   OH254036   5.393   4.620  14.921 -0.2210 -0.4052  0.0684
10874TIP3    H154037   5.486   4.633  14.905 -0.5599 -0.8393 -2.4341
10874TIP3    H254038   5.351   4.696  14.882 -1.0060 -0.7395  0.2501
10875TIP3   OH254039   0.711   2.822   3.120  0.1401 -0.1309  0.5283
10875TIP3    H154040   0.624   2.860   3.133  0.2694  1.1641 -2.0735
10875TIP3    H254041   0.719   2.757   3.190 -2.0398  1.2252  2.1243
10876TIP3   OH254042   3.594   2.195  13.031 -0.0456  0.6063 -0.1865
10876TIP3    H154043   3.591   2.110  12.988 -1.2770 -0.2580  1.5446
10876TIP3    H254044   3.686   2.219  13.030  0.1168 -0.0475 -2.0253
10877TIP3   OH254045   0.030   6.762  15.268 -0.3105  0.1525 -0.8182
10877TIP3    H154046   0.030   6.754  15.172  1.7379  0.8534 -0.9032
10877TIP3    H254047   0.114   6.726  15.295 -0.0620  1.7300  0.5583
10878TIP3   OH254048   5.969   0.556   1.566  0.1385  0.6208  0.3181
10878TIP3    H154049   6.002   0.592   1.483 -0.5491  2.1083  0.6813
10878TIP3    H254050   5.915   0.626   1.603  1.6317  0.5534  2.7616
10879TIP3   OH254051   3.214   6.382  11.523 -0.0118  0.6243  0.6636
10879TIP3    H154052   3.295   6.402  11.572  0.5570 -1.3562  0.5922
10879TIP3    H254053   3.241   6.318  11.458 -1.6615 -0.1304  0.6938
10880TIP3   OH254054   1.497   0.534   2.164  0.4160  0.7750 -0.1778
10880TIP3    H154055   1.559   0.603   2.140  2.1958 -0.7127 -0.0043
10880TIP3    H254056   1.553   0.461   2.192 -1.4625 -0.0143  1.6275
10881TIP3   OH254057   3.100   2.577   1.656  0.3490  0.1526  0.0089
10881TIP3    H154058   3.154   2.624   1.592  1.7020 -0.6967  0.4981
10881TIP3    H254059   3.115   2.622   1.739 -1.9099  1.6555 -0.3474
10882TIP3   OH254060   3.782   3.968   5.439  0.0394 -0.6428  0.2111
10882TIP3    H154061   3.777   3.938   5.348  1.6409 -1.5030  0.4068
10882TIP3    H254062   3.789   4.064   5.431  0.9266 -0.7627 -0.6001
10883TIP3   OH254063   0.668   3.442  14.053  0.0460  0.0766  0.3442
10883TIP3    H154064   0.581   3.408  14.076 -0.0735  1.1483  1.5489
10883TIP3    H254065   0.660   3.537  14.063  1.1810  0.2308 -0.1658
10884TIP3   OH254066   3.565   4.866   2.944 -0.5643 -0.4094  0.3608
10884TIP3    H154067   3.502   4.803   2.980 -1.3017 -1.0174 -1.8923
10884TIP3    H254068   3.650   4.821   2.950 -0.7915 -0.8147  0.5977
10885TIP3   OH254069   4.906   3.183   0.940  0.0577  0.6219  0.4375
10885TIP3    H154070   4.956   3.106   0.968 -0.1570  0.4887  0.4559
10885TIP3    H254071   4.929   3.194   0.847  0.7665  1.0624  0.6641
10886TIP3   OH254072   6.331   6.618  12.804  0.5301 -0.0885 -0.5843
10886TIP3    H154073   6.236   6.609  12.809  0.7158 -0.8515  2.1438
10886TIP3    H254074   6.352   6.599  12.712 -1.8165 -0.8904 -0.9933
10887TIP3   OH254075   3.220   0.975   1.847  0.3211  0.3741  0.3495
10887TIP3    H154076   3.163   1.050   1.829 -0.2141 -0.4871 -1.7230
10887TIP3    H254077   3.201   0.953   1.939 -2.8259  0.0451 -0.3016
10888TIP3   OH254078   3.121   3.794  12.785 -0.2292  0.1575 -0.2988
10888TIP3    H154079   3.151   3.769  12.697 -1.6013  0.9893 -1.0276
10888TIP3    H254080   3.068   3.873  12.771 -0.0947  0.5629  1.3387
10889TIP3   OH254081   3.515   5.001   5.550  0.4056 -0.2172 -0.2880
10889TIP3    H154082   3.519   5.082   5.501  0.8849 -0.1643 -0.1616
10889TIP3    H254083   3.553   5.022   5.635 -0.9051 -0.1664  0.3021
10890TIP3   OH254084   4.245   6.408  15.662  0.3128  0.1267 -0.2099
10890TIP3    H154085   4.228   6.379  15.751  0.6604  0.7205  0.0481
10890TIP3    H254086   4.314   6.350  15.631  0.4896  0.1971  0.0534
10891TIP3   OH254087   2.364   4.093   1.455 -0.5200  0.1245  0.2900
10891TIP3    H154088   2.326   4.126   1.537 -1.8702  0.1634 -0.3339
10891TIP3    H254089   2.426   4.161   1.429 -0.1962  0.1860  1.2034
10892TIP3   OH254090   4.037   3.821  13.914 -0.0835 -0.1362 -0.1211
10892TIP3    H154091   3.945   3.793  13.916 -0.2272  0.1976 -1.4902
10892TIP3    H254092   4.087   3.741  13.925 -0.5311 -0.3499  0.3961
10893TIP3   OH254093   1.095   5.197   4.755  0.2049  0.0622 -0.0545
10893TIP3    H154094   1.117   5.104   4.759  0.7552  0.2051  0.3377
10893TIP3    H254095   1.010   5.200   4.711  0.9314 -0.5087 -1.5115
10894TIP3   OH254096   5.101   1.724  12.056  0.3001  0.0272  0.3843
10894TIP3    H154097   5.122   1.714  12.149  4.0054  1.1885 -0.2383
10894TIP3    H254098   5.144   1.806  12.031 -0.5678 -0.3167 -2.3769
10895TIP3   OH254099   6.647   4.516  10.916  0.9486 -0.0518  0.6306
10895TIP3    H154100   6.645   4.424  10.889 -0.2313  0.0560  0.3133
10895TIP3    H254101   6.738   4.532  10.940  1.0520 -1.4505  1.2117
10896TIP3   OH254102   4.377   4.046   2.869 -0.1637 -0.3265  0.3918
10896TIP3    H154103   4.285   4.067   2.888 -0.1701 -0.0118  0.0250
10896TIP3    H254104   4.376   3.956   2.839 -0.3874 -0.2360  0.1282
10897TIP3   OH254105   3.751   5.582   0.303 -0.0773 -0.4465 -0.4384
10897TIP3    H154106   3.826   5.562   0.246  1.1510 -0.9754  1.3243
10897TIP3    H254107   3.731   5.674   0.285  0.7334 -0.4122 -1.2158
10898TIP3   OH254108   1.202   0.252   0.032 -0.2408 -0.0655  0.3937
10898TIP3    H154109   1.135   0.262   0.099  2.2988  0.6975  2.9484
10898TIP3    H254110   1.285   0.263   0.079  1.7692 -2.5735 -2.3086
10899TIP3   OH254111   0.608   3.529   4.941 -0.5323  0.7134  0.2408
10899TIP3    H154112   0.690   3.506   4.898 -0.8636  1.5720 -0.8676
10899TIP3    H254113   0.587   3.617   4.909 -1.5740  0.7499  0.9750
10900TIP3   OH254114   0.746   6.229  16.780  0.6665  0.2156  0.0215
10900TIP3    H154115   0.788   6.313  16.800  0.8565  0.1484 -0.0927
10900TIP3    H254116   0.684   6.249  16.710  1.0733  0.1682 -0.3589
10901TIP3   OH254117   4.257   5.447  16.126 -0.2615  0.0400 -0.1293
10901TIP3    H154118   4.209   5.403  16.056  1.0266 -1.1186 -0.3158
10901TIP3    H254119   4.333   5.390  16.142 -1.0919 -0.3054  2.9702
10902TIP3   OH254120   0.484   3.320  12.144 -0.0876  0.0780  0.3677
10902TIP3    H154121   0.394   3.350  12.160 -0.5724 -1.0956 -0.0829
10902TIP3    H254122   0.535   3.400  12.139 -0.8668  0.7011  2.0652
10903TIP3   OH254123   5.579   3.492   1.855 -0.0553 -0.1362 -0.0601
10903TIP3    H154124   5.573   3.582   1.824 -0.7801 -0.5478 -1.1852
10903TIP3    H254125   5.567   3.439   1.775 -1.6186 -1.2390  0.8678
10904TIP3   OH254126   4.888   0.371   3.275  0.3126  0.7892  0.0009
10904TIP3    H154127   4.883   0.278   3.252  0.8073  0.3450  1.6188
10904TIP3    H254128   4.927   0.413   3.198  2.2923 -0.7141  0.1511
10905TIP3   OH254129   6.068   2.220  15.838  0.0026 -0.7061 -0.0731
10905TIP3    H154130   6.051   2.161  15.764 -1.4841 -0.3424 -0.0321
10905TIP3    H254131   6.014   2.297  15.821  2.0693  0.7523 -0.2201
10906TIP3   OH254132   2.310   2.316  13.315 -0.2955 -0.2193 -0.0360
10906TIP3    H154133   2.347   2.231  13.338 -0.1943  0.0162  0.7092
10906TIP3    H254134   2.383   2.365  13.278 -0.3346 -0.4338 -0.3914
10907TIP3   OH254135   2.280   6.560   5.596 -0.8735 -1.0363 -0.0446
10907TIP3    H154136   2.186   6.576   5.586 -0.5193  0.7043 -0.7272
10907TIP3    H254137   2.311   6.546   5.506 -0.2890 -0.4746  0.0659
10908TIP3   OH254138   5.037   0.737  15.165  0.3162 -0.1177  0.3335
10908TIP3    H154139   4.981   0.815  15.165 -0.2342 -0.4951 -0.9143
10908TIP3    H254140   4.985   0.671  15.119  0.6588 -1.3132  1.6308
10909TIP3   OH254141   2.245   2.136   6.245 -0.0208 -0.2705  0.0204
10909TIP3    H154142   2.223   2.066   6.183 -0.6110 -0.0670 -0.0072
10909TIP3    H254143   2.250   2.092   6.330 -0.3450 -0.3558 -0.0035
10910TIP3   OH254144   0.403   2.712   0.729  0.0960 -0.0106 -0.0688
10910TIP3    H154145   0.351   2.715   0.810  0.2883  0.5980  0.0340
10910TIP3    H254146   0.362   2.643   0.677 -1.6371  1.3737 -0.5483
10911TIP3   OH254147   2.479   1.944  16.170  0.4458  0.3303 -0.1540
10911TIP3    H154148   2.565   1.930  16.208 -0.2590 -0.6447  1.1495
10911TIP3    H254149   2.423   1.969  16.244 -0.3886  0.9011 -0.9644
10912TIP3   OH254150   2.057   0.577   0.992 -0.4185 -0.8615 -0.7239
10912TIP3    H154151   1.991   0.512   0.968  0.2778 -0.6250 -3.4259
10912TIP3    H254152   2.103   0.596   0.911  0.5845  1.6963  0.3829
10913TIP3   OH254153   6.626   3.434   0.912 -0.0173 -0.3327  0.2171
10913TIP3    H154154   6.687   3.404   0.845  0.7502 -2.3777  1.7752
10913TIP3    H254155   6.681   3.450   0.989 -0.8999  1.7914  0.4501
10914TIP3   OH254156   6.436   3.493  14.992  0.9540  0.3973  0.2511
10914TIP3    H154157   6.446   3.544  14.911  0.4053  2.0208  1.1869
10914TIP3    H254158   6.460   3.554  15.061  1.8401 -1.1192  1.3028
10915TIP3   OH254159   2.993   5.905   5.187 -0.5502  0.0841 -0.6966
10915TIP3    H154160   3.034   5.850   5.254 -0.1970 -0.2893 -1.2182
10915TIP3    H254161   2.937   5.845   5.138  0.6273 -0.0345 -1.9289
10916TIP3   OH254162   4.743   3.822  12.295 -0.1191  0.7780  0.6921
10916TIP3    H154163   4.661   3.776  12.315 -0.5085  1.9065  1.7468
10916TIP3    H254164   4.810   3.772  12.342 -0.2992  0.2511  0.3884
10917TIP3   OH254165   0.600   1.608   3.979 -0.1293 -0.1753 -0.1720
10917TIP3    H154166   0.511   1.603   3.944 -1.0628  3.6059  1.4203
10917TIP3    H254167   0.656   1.610   3.902 -1.5070 -1.1143 -1.2263
10918TIP3   OH254168   0.172   0.101  14.632 -0.3614  0.1451  0.0609
10918TIP3    H154169   0.098   0.046  14.605 -0.4140  0.8295 -1.2195
10918TIP3    H254170   0.249   0.059  14.594 -0.4513  1.1946 -1.3091
10919TIP3   OH254171   1.898   2.038  14.580  0.1399 -0.5390  0.4341
10919TIP3    H154172   1.897   2.130  14.609  1.0453 -0.8993  1.6872
10919TIP3    H254173   1.813   2.024  14.540 -1.5993 -0.2683  3.8582
10920TIP3   OH254174   3.480   1.730   6.209 -0.4428  0.1358  0.1291
10920TIP3    H154175   3.422   1.654   6.222 -1.0475  0.9014  2.0866
10920TIP3    H254176   3.546   1.721   6.277  0.3616  0.5728 -0.5883
10921TIP3   OH254177   1.463   5.159  11.601  0.1824 -0.4027  0.1587
10921TIP3    H154178   1.550   5.137  11.635  1.5993  1.3653 -2.1270
10921TIP3    H254179   1.428   5.076  11.569  2.5519 -0.6015 -2.1105
10922TIP3   OH254180   2.767   3.121  15.376 -0.4837 -0.4531 -0.6175
10922TIP3    H154181   2.781   3.207  15.415 -0.6593 -0.2191 -1.0678
10922TIP3    H254182   2.673   3.115  15.364 -0.4184 -0.4589 -1.1475
10923TIP3   OH254183   4.973   3.938   2.226  0.1108 -0.4950 -0.3253
10923TIP3    H154184   4.938   3.857   2.263 -0.6991 -0.2991 -0.6549
10923TIP3    H254185   5.041   3.964   2.288 -0.4967 -0.7508  0.4669
10924TIP3   OH254186   0.712   4.906   5.894  0.2370 -0.3104  0.8015
10924TIP3    H154187   0.693   4.985   5.945 -1.2069  0.9030 -1.5275
10924TIP3    H254188   0.754   4.938   5.814  0.0374 -1.9400  0.0268
10925TIP3   OH254189   1.604   6.617  16.441 -0.3178  0.0534  0.0621
10925TIP3    H154190   1.576   6.609  16.350 -1.1726  0.2588  0.2937
10925TIP3    H254191   1.606   6.527  16.473 -2.0537  0.1161  0.4118
10926TIP3   OH254192   0.739   5.393  13.868  0.3297  0.4652 -0.0346
10926TIP3    H154193   0.777   5.307  13.847 -0.2209  0.2404 -0.1086
10926TIP3    H254194   0.697   5.380  13.952  0.0863  0.6180 -0.1336
10927TIP3   OH254195   5.941   6.685  17.119  0.2769 -0.5867 -0.5034
10927TIP3    H154196   5.984   6.639  17.047 -1.1803  0.7604 -2.3072
10927TIP3    H254197   5.877   6.742  17.076 -0.0361  0.9005  1.8140
10928TIP3   OH254198   1.668   4.650   2.085 -0.1689 -0.4787  0.3313
10928TIP3    H154199   1.635   4.564   2.111 -0.4661 -0.6392 -0.5466
10928TIP3    H254200   1.597   4.711   2.108 -0.1591 -0.5328  0.5044
10929TIP3   OH254201   4.165   3.433   5.595  0.1020 -0.3937  0.2431
10929TIP3    H154202   4.257   3.459   5.592 -0.1635  0.5566  0.0551
10929TIP3    H254203   4.139   3.426   5.503  0.0702 -0.9552  0.2951
10930TIP3   OH254204   3.924   2.774   4.860  0.4654 -0.4549  0.3624
10930TIP3    H154205   3.912   2.788   4.953 -1.7566  1.4479 -0.1812
10930TIP3    H254206   3.965   2.855   4.829  0.7065 -0.8655 -0.4062
10931TIP3   OH254207   3.991   1.744  13.955  0.4389  0.5753  0.1193
10931TIP3    H154208   4.078   1.753  13.993  0.2050  1.8598  0.3626
10931TIP3    H254209   3.996   1.788  13.870  0.4826 -0.8157 -0.6324
10932TIP3   OH254210   2.506   2.621   2.730 -0.0413  0.3711 -0.2579
10932TIP3    H154211   2.433   2.635   2.670 -0.9501  1.2899  1.0387
10932TIP3    H254212   2.578   2.592   2.674 -1.2015  0.1009 -1.6337
10933TIP3   OH254213   3.126   2.701  12.108 -0.4019 -0.1493  0.4343
10933TIP3    H154214   3.177   2.780  12.089  1.0305 -1.2729 -0.4295
10933TIP3    H254215   3.069   2.727  12.181  1.4847  1.0895  1.5036
10934TIP3   OH254216   1.556   6.550  16.786 -0.1008  0.7896  0.4519
10934TIP3    H154217   1.649   6.559  16.767 -0.0096  0.8770  0.9256
10934TIP3    H254218   1.552   6.495  16.865 -0.3554  2.2370  1.4730
10935TIP3   OH254219   2.934   1.727  14.587 -0.2852  0.1428  0.4083
10935TIP3    H154220   2.964   1.658  14.646  0.8200  1.3447  1.2966
10935TIP3    H254221   2.963   1.699  14.501 -0.2016 -0.6896  0.6986
10936TIP3   OH254222   2.049   1.178   4.990  0.1832 -0.1321 -0.3516
10936TIP3    H154223   2.075   1.263   5.025  0.4727 -0.6727  0.7860
10936TIP3    H254224   2.075   1.180   4.898 -1.3641  1.6375 -0.7688
10937TIP3   OH254225   3.860   5.742  15.457 -0.4771 -0.4169  0.5299
10937TIP3    H154226   3.952   5.747  15.430 -0.9849 -0.5618 -1.3213
10937TIP3    H254227   3.852   5.657  15.501  0.2806 -0.3941  0.7149
10938TIP3   OH254228   0.950   2.640   4.822 -0.0589 -0.7149 -0.2723
10938TIP3    H154229   0.916   2.600   4.742 -2.3209  0.9696 -0.1789
10938TIP3    H254230   1.025   2.692   4.793 -0.9196 -0.0459 -1.3005
10939TIP3   OH254231   4.462   3.082   4.109  0.1419  0.4033  0.4242
10939TIP3    H154232   4.417   3.076   4.025  0.9272 -0.5772  0.0622
10939TIP3    H254233   4.544   3.127   4.090 -0.9612  2.7832  1.2091
10940TIP3   OH254234   0.752   4.242  15.550  0.7925 -0.0613 -0.0446
10940TIP3    H154235   0.764   4.157  15.509  1.8435  0.0812 -0.0391
10940TIP3    H254236   0.668   4.235  15.597  0.1382 -0.5812 -1.2902
10941TIP3   OH254237   0.040   5.164  15.135 -0.2773  0.7228 -0.1752
10941TIP3    H154238   0.111   5.146  15.074  0.4687 -1.3983  1.2483
10941TIP3    H254239   0.023   5.080  15.178 -1.0094  2.0531  2.2674
10942TIP3   OH254240   5.915   4.491  14.789  0.0290  0.6295  0.2674
10942TIP3    H154241   5.977   4.553  14.751  0.6050  0.3167  0.6948
10942TIP3    H254242   5.926   4.500  14.883  2.0538 -2.0372  0.3435
10943TIP3   OH254243   0.211   5.885  14.867  0.8699 -0.2412 -0.3561
10943TIP3    H154244   0.119   5.906  14.883  0.6773 -1.1087 -0.2984
10943TIP3    H254245   0.246   5.964  14.825  0.8585  1.2715  2.3566
10944TIP3   OH254246   3.983   5.020   2.774 -0.4533  0.3211  0.2544
10944TIP3    H154247   3.890   5.001   2.767 -0.2480 -0.1336 -1.5621
10944TIP3    H254248   4.004   5.067   2.692  1.4850 -2.1313 -0.7153
10945TIP3   OH254249   0.184   2.530  15.612 -0.7881 -0.8696 -0.3205
10945TIP3    H154250   0.265   2.498  15.650 -1.7521 -1.0625  1.6371
10945TIP3    H254251   0.153   2.458  15.556 -0.0269 -1.0986 -0.4527
10946TIP3   OH254252   1.094   2.227  16.750  0.1174 -0.1779 -0.3022
10946TIP3    H154253   1.086   2.159  16.817 -0.5707 -0.7271 -0.9369
10946TIP3    H254254   1.023   2.288  16.770 -1.1015 -1.1742 -1.4687
10947TIP3   OH254255   6.534   1.530  13.430 -0.0303  0.1021  0.5559
10947TIP3    H154256   6.612   1.490  13.392 -0.3971  0.5099 -0.6522
10947TIP3    H254257   6.470   1.531  13.358 -1.3788 -0.8589  1.7210
10948TIP3   OH254258   2.921   6.160  11.392  0.2064 -0.3943 -0.0105
10948TIP3    H154259   2.982   6.149  11.465  0.3053  3.1522  0.5774
10948TIP3    H254260   2.839   6.121  11.423  1.3316 -2.5021  0.3776
10949TIP3   OH254261   1.561   4.154   4.060 -0.1398  0.1258  0.8671
10949TIP3    H154262   1.561   4.249   4.055  1.8743  0.0592 -1.3952
10949TIP3    H254263   1.556   4.125   3.969 -2.9372 -1.9983  1.6224
10950TIP3   OH254264   2.860   5.755   0.313  0.4098 -0.4028 -0.1887
10950TIP3    H154265   2.852   5.823   0.246 -1.1383  1.3796  1.7566
10950TIP3    H254266   2.953   5.732   0.311  0.9888  1.8019 -0.8582
10951TIP3   OH254267   4.340   4.002  10.537  0.7300  0.2845  0.2625
10951TIP3    H154268   4.283   3.964  10.604  0.1242  1.2730  0.3302
10951TIP3    H254269   4.281   4.058  10.486  1.5159  0.7952 -0.0876
10952TIP3   OH254270   5.294   1.916   1.417 -0.4264  0.0281 -0.6808
10952TIP3    H154271   5.355   1.984   1.388 -1.6778  0.7623 -1.6420
10952TIP3    H254272   5.350   1.841   1.439  0.9028  1.0835 -0.3911
10953TIP3   OH254273   5.063   4.893  16.208 -0.4228 -0.2959 -0.7691
10953TIP3    H154274   5.108   4.888  16.293  0.6894  0.1817 -1.3196
10953TIP3    H254275   4.974   4.863  16.227 -0.0885 -0.5476  0.4948
10954TIP3   OH254276   5.252   5.868  13.504  0.1057 -0.4347  0.0735
10954TIP3    H154277   5.208   5.789  13.474  0.7556 -0.4838 -0.7600
10954TIP3    H254278   5.344   5.853  13.485  0.0502  1.1754 -1.5831
10955TIP3   OH254279   2.525   5.323   0.962 -0.1284  0.0506  0.1509
10955TIP3    H154280   2.558   5.358   1.045 -3.2434  2.6028  0.4117
10955TIP3    H254281   2.473   5.247   0.987 -1.0980  0.8398  0.5622
10956TIP3   OH254282   5.591   0.851  12.345  0.0717  0.7362 -0.5136
10956TIP3    H154283   5.557   0.764  12.326  0.1086  0.8220 -0.9725
10956TIP3    H254284   5.514   0.903  12.369  0.1867  0.2782  0.9010
10957TIP3   OH254285   2.774   6.760  15.536 -0.3525 -0.5713 -0.1371
10957TIP3    H154286   2.782   6.675  15.493 -1.8381 -0.9709  0.3499
10957TIP3    H254287   2.681   6.783  15.527  0.0549  1.0720 -0.3973
10958TIP3   OH254288   4.091   3.280   5.814 -0.5711  0.6828  0.3383
10958TIP3    H154289   3.997   3.288   5.801 -0.8366 -2.5210 -0.0085
10958TIP3    H254290   4.129   3.348   5.758 -2.5609  0.4529 -1.3323
10959TIP3   OH254291   1.669   5.782  15.400  0.0100  0.3862 -0.1876
10959TIP3    H154292   1.611   5.812  15.330 -1.0031 -0.6820  0.1659
10959TIP3    H254293   1.719   5.710  15.360 -0.7745 -0.4166  0.2483
10960TIP3   OH254294   6.194   2.973  14.515 -0.1015  0.0165  0.3691
10960TIP3    H154295   6.125   2.954  14.578  0.1982  1.4199  1.1527
10960TIP3    H254296   6.149   3.015  14.442 -0.4076 -1.3319 -0.2256
10961TIP3   OH254297   5.091   5.953  16.417  0.0663 -0.1099  0.1103
10961TIP3    H154298   5.099   5.958  16.512  0.3446 -1.3070  0.1665
10961TIP3    H254299   5.176   5.981  16.383  0.7372 -1.8208  0.3059
10962TIP3   OH254300   2.585   5.806   5.917 -0.8202  0.0425 -0.0526
10962TIP3    H154301   2.647   5.822   5.845 -1.0141 -1.8745 -0.6757
10962TIP3    H254302   2.637   5.765   5.985 -0.6791  1.6871  0.8533
10963TIP3   OH254303   1.295   5.458  12.447 -0.0160 -0.0371  0.1690
10963TIP3    H154304   1.286   5.388  12.382  0.0796  0.1841 -0.0814
10963TIP3    H254305   1.348   5.525  12.403 -0.8238  0.5689  0.0914
10964TIP3   OH254306   5.654   2.672  14.590  0.6075  0.2545 -0.3847
10964TIP3    H154307   5.692   2.753  14.557  1.0058  0.3289  0.2504
10964TIP3    H254308   5.667   2.676  14.685 -0.2095 -0.1159 -0.2485
10965TIP3   OH254309   4.897   1.755   3.670 -0.1944  0.0109 -0.3170
10965TIP3    H154310   4.993   1.748   3.668 -0.2496 -2.2167  2.0281
10965TIP3    H254311   4.879   1.824   3.733 -0.1436 -0.4654  0.2224
10966TIP3   OH254312   1.461   2.869  13.421  0.3785  0.6106  0.3148
10966TIP3    H154313   1.493   2.924  13.493  0.8860  0.9635 -0.1746
10966TIP3    H254314   1.428   2.930  13.356  1.1992  0.3531 -0.3526
10967TIP3   OH254315   2.758   1.368  13.394  0.1982  0.6159  0.5041
10967TIP3    H154316   2.799   1.313  13.327  2.1657  0.7546  1.5634
10967TIP3    H254317   2.681   1.318  13.422  0.8740 -0.7032  0.0678
10968TIP3   OH254318   5.433   3.394   5.465  0.0945 -0.1569  0.0888
10968TIP3    H154319   5.384   3.317   5.435 -0.3667  0.1396  0.0821
10968TIP3    H254320   5.370   3.466   5.460 -0.2295 -0.2461  2.5971
10969TIP3   OH254321   5.219   2.198  14.993  0.3274  0.1814  0.3256
10969TIP3    H154322   5.165   2.274  15.016 -1.0112 -0.5391 -0.3500
10969TIP3    H254323   5.234   2.207  14.899 -0.4208 -0.7233  0.1004
10970TIP3   OH254324   4.329   5.472   3.224 -0.6659  0.3248 -0.1878
10970TIP3    H154325   4.418   5.455   3.191 -0.4540 -1.2897  1.1826
10970TIP3    H254326   4.298   5.544   3.169  2.3001  2.4310  0.7339
10971TIP3   OH254327   5.873   4.053   3.037  0.3602  0.2635 -0.3294
10971TIP3    H154328   5.816   4.001   3.093  0.7167  1.0215  0.7643
10971TIP3    H254329   5.950   4.072   3.092  0.5786  1.2728 -0.9690
10972TIP3   OH254330   4.538   6.683  14.070 -0.1038  0.7067 -0.4306
10972TIP3    H154331   4.571   6.639  14.148  1.3974  1.7027 -0.4908
10972TIP3    H254332   4.611   6.682  14.009 -1.2023  0.1019 -1.7817
10973TIP3   OH254333   5.439   0.758   3.451 -0.4761 -0.6356 -0.1211
10973TIP3    H154334   5.496   0.832   3.470  0.8950 -1.6851 -0.0477
10973TIP3    H254335   5.385   0.786   3.377  1.7639 -0.4513 -1.7304
10974TIP3   OH254336   4.324   5.014  13.644 -0.2961 -0.0464 -0.8406
10974TIP3    H154337   4.389   5.084  13.646  0.5138 -0.7779 -1.2753
10974TIP3    H254338   4.352   4.953  13.712 -1.5838  0.5559  0.2547
10975TIP3   OH254339   3.941   5.200  15.957  0.5363  0.5480  0.3240
10975TIP3    H154340   3.913   5.170  15.871 -0.2392 -0.5992  0.9602
10975TIP3    H254341   4.032   5.227  15.945  1.3302 -2.2417 -0.2459
10976TIP3   OH254342   6.045   4.644  14.051  0.1891 -0.0138  0.1031
10976TIP3    H154343   6.129   4.633  14.006  2.0932  3.7546  2.4458
10976TIP3    H254344   6.055   4.597  14.133  0.5892  1.6380  1.0189
10977TIP3   OH254345   3.695   2.608   5.056 -0.1068  0.3247  0.6008
10977TIP3    H154346   3.688   2.554   5.135  1.5600 -1.6194 -0.5158
10977TIP3    H254347   3.728   2.692   5.087 -1.4036  0.2746  2.2054
10978TIP3   OH254348   4.082   4.746   1.130 -0.5956 -0.1916  0.6567
10978TIP3    H154349   4.051   4.692   1.057  1.4715 -2.4960  1.4122
10978TIP3    H254350   4.130   4.818   1.088 -0.2706 -0.9584 -0.2972
10979TIP3   OH254351   3.682   1.601   2.995 -0.4559 -0.2429  0.4836
10979TIP3    H154352   3.659   1.694   3.000  1.0802  0.2227 -0.7259
10979TIP3    H254353   3.680   1.581   2.902  1.6174 -0.7654  0.5186
10980TIP3   OH254354   0.937   2.372   3.008 -0.3190  0.7088  0.1144
10980TIP3    H154355   0.854   2.397   2.968 -0.7167 -0.8445 -0.0820
10980TIP3    H254356   0.924   2.387   3.102 -0.8855  0.3111  0.1018
10981TIP3   OH254357   5.613   2.864  13.305 -0.0834  0.1075 -0.0511
10981TIP3    H154358   5.593   2.832  13.393 -0.0262  1.8990  0.6176
10981TIP3    H254359   5.690   2.919  13.315  0.2867 -0.1612 -1.3240
10982TIP3   OH254360   3.084   5.389  13.825  0.4945  0.1405  0.1761
10982TIP3    H154361   3.096   5.295  13.809 -1.3754  0.1403 -1.5898
10982TIP3    H254362   3.009   5.394  13.884 -0.7755  0.5346 -1.4067
10983TIP3   OH254363   3.808   5.918   1.134  0.2086 -0.2031 -0.2488
10983TIP3    H154364   3.870   5.848   1.115  1.0566  0.2097  0.9928
10983TIP3    H254365   3.739   5.876   1.184 -0.4590 -0.6269 -1.4930
10984TIP3   OH254366   5.968   2.017  12.411  0.6586  0.1660 -0.2084
10984TIP3    H154367   5.921   2.064  12.341  2.3039  2.0865 -0.0969
10984TIP3    H254368   6.000   2.087  12.468  0.1731 -1.3422  1.9556
10985TIP3   OH254369   4.429   3.248  16.897 -0.1993 -0.3590  0.4013
10985TIP3    H154370   4.420   3.154  16.909  2.1256 -0.6636  0.0601
10985TIP3    H254371   4.396   3.287  16.978 -2.0134 -1.3955  0.1855
10986TIP3   OH254372   2.459   1.322  13.767 -0.1719  0.0995 -0.1273
10986TIP3    H154373   2.422   1.410  13.769 -1.1237 -0.3056  0.9972
10986TIP3    H254374   2.384   1.265  13.782  0.6337 -0.8343  0.4087
10987TIP3   OH254375   2.234   1.732  16.718  0.2136  0.4707  0.1393
10987TIP3    H154376   2.230   1.809  16.662  1.7711 -0.1646 -0.8770
10987TIP3    H254377   2.320   1.736  16.759  0.5845 -1.0559 -0.4343
10988TIP3   OH254378   2.257   5.747  15.277 -0.1087 -0.3491  0.2954
10988TIP3    H154379   2.341   5.703  15.264 -1.2406 -2.1306 -1.2786
10988TIP3    H254380   2.258   5.820  15.215  0.1216 -0.5800  0.0269
10989TIP3   OH254381   1.605   1.433  12.154  0.3559 -0.1760  1.0903
10989TIP3    H154382   1.683   1.380  12.137  0.1603  0.1510 -1.0226
10989TIP3    H254383   1.611   1.505  12.090 -1.8600 -0.3654  0.6324
10990TIP3   OH254384   1.696   3.759   5.917 -0.5802  0.4838  0.0124
10990TIP3    H154385   1.610   3.752   5.875  0.6252  1.3812 -2.6817
10990TIP3    H254386   1.709   3.673   5.958 -2.5390  0.1879  0.0881
10991TIP3   OH254387   1.869   4.794  16.517  0.0129  0.6947 -0.2736
10991TIP3    H154388   1.909   4.790  16.604 -0.1955 -0.3934 -0.2288
10991TIP3    H254389   1.934   4.840  16.464  1.2132 -0.8250 -0.1390
10992TIP3   OH254390   1.790   4.045   5.627  1.1164  0.1465 -0.5325
10992TIP3    H154391   1.864   3.987   5.611  1.2275 -0.4587  1.9864
10992TIP3    H254392   1.806   4.081   5.715 -1.6167 -0.0608  0.0807
10993TIP3   OH254393   1.887   5.800   4.159  0.5232 -0.3197  0.0561
10993TIP3    H154394   1.882   5.716   4.113  0.7864 -1.6053  2.2881
10993TIP3    H254395   1.802   5.809   4.201  0.4286  0.6409 -0.3336
10994TIP3   OH254396   2.512   4.058  12.439  0.4022 -0.1919 -0.3318
10994TIP3    H154397   2.564   4.028  12.364  1.5250 -0.0614  0.3882
10994TIP3    H254398   2.490   3.978  12.487  0.9758 -0.1298  0.0331
10995TIP3   OH254399   5.476   1.031   3.293 -0.0923  0.3290  0.7885
10995TIP3    H154400   5.409   1.058   3.230  2.0985  0.1665 -1.6840
10995TIP3    H254401   5.450   1.072   3.375 -1.5166  2.8283 -0.8595
10996TIP3   OH254402   3.630   5.472  10.824 -0.0805  0.4354  0.5855
10996TIP3    H154403   3.712   5.445  10.782  0.1351 -0.9695  1.8739
10996TIP3    H254404   3.604   5.552  10.777  3.3349  2.3658  1.7943
10997TIP3   OH254405   6.282   3.914  16.920  0.3211  0.3026 -0.4243
10997TIP3    H154406   6.292   3.950  16.831 -1.2028  0.3843 -0.5644
10997TIP3    H254407   6.228   3.836  16.909  0.4897  0.0661  0.3854
10998TIP3   OH254408   5.345   1.342   5.911  0.1089 -0.0954 -0.2612
10998TIP3    H154409   5.258   1.333   5.951  0.0503 -0.4924 -0.4742
10998TIP3    H254410   5.385   1.415   5.957 -0.5489  0.4482 -0.5333
10999TIP3   OH254411   1.701   3.581   3.028  0.1928  0.7028  0.0509
10999TIP3    H154412   1.669   3.516   2.964  2.6200 -1.0706  0.5962
10999TIP3    H254413   1.783   3.613   2.990 -0.6772  3.0817  0.0837
11000TIP3   OH254414   1.970   3.652  14.926 -0.6410 -0.0192 -0.7228
11000TIP3    H154415   1.973   3.575  14.869 -1.0624 -0.1392 -0.5835
11000TIP3    H254416   1.891   3.639  14.979 -0.5236  0.3402 -0.4616
11001TIP3   OH254417   2.756   5.001  11.308  0.5768 -0.1393  0.0721
11001TIP3    H154418   2.820   5.002  11.380  0.7458 -1.4283 -0.0486
11001TIP3    H254419   2.674   5.029  11.349  0.7183 -0.6582  0.7379
11002TIP3   OH254420   0.813   0.651  13.197 -0.3411 -0.4603  0.0321
11002TIP3    H154421   0.788   0.560  13.183  1.6758 -0.8796 -0.9360
11002TIP3    H254422   0.896   0.647  13.245  0.9324  0.8118 -1.9868
11003TIP3   OH254423   3.441   5.341   4.671  0.1282 -0.0491  0.3028
11003TIP3    H154424   3.365   5.393   4.647 -0.4199 -0.9096  0.1306
11003TIP3    H254425   3.404   5.260   4.707  0.9563 -0.0543  1.1502
11004TIP3   OH254426   2.795   0.959  15.905  0.6204 -0.3057 -0.2888
11004TIP3    H154427   2.746   1.015  15.965  1.0002 -0.2992  0.0181
11004TIP3    H254428   2.734   0.889  15.881 -0.7516  1.6808 -2.7796
11005TIP3   OH254429   4.146   3.343   1.303  0.4444 -0.4228 -0.1892
11005TIP3    H154430   4.226   3.290   1.299  0.8274  0.2252 -1.8688
11005TIP3    H254431   4.075   3.280   1.294  0.8026 -0.9139  0.3941
11006TIP3   OH254432   0.460   6.229  13.807 -0.6347 -0.1837  0.5508
11006TIP3    H154433   0.518   6.160  13.839 -0.3997  0.7108  2.1007
11006TIP3    H254434   0.451   6.212  13.713  0.1923 -1.7410  0.7459
11007TIP3   OH254435   3.474   2.903  10.995  0.5130 -0.2884 -0.2382
11007TIP3    H154436   3.466   2.993  10.965  0.3371 -0.8717 -1.9462
11007TIP3    H254437   3.472   2.910  11.091 -0.4140  1.4266 -0.3684
11008TIP3   OH254438   0.616   4.334  15.109  0.1322  0.8839  0.0518
11008TIP3    H154439   0.540   4.288  15.145 -0.2176  0.9718 -0.5655
11008TIP3    H254440   0.679   4.265  15.088 -0.1047  0.7442 -0.1978
11009TIP3   OH254441   4.524   6.241  11.407  0.4679  0.7786  0.6117
11009TIP3    H154442   4.602   6.254  11.354  0.4212 -0.5642  0.2136
11009TIP3    H254443   4.489   6.157  11.379  0.7981 -0.2667  3.1881
11010TIP3   OH254444   2.025   2.641  16.126  0.1015  0.3312 -0.0710
11010TIP3    H154445   1.942   2.646  16.174  0.2979 -0.3864  0.3428
11010TIP3    H254446   2.048   2.548  16.127  0.2875  0.3543 -1.2532
11011TIP3   OH254447   2.914   5.197   3.463  0.3568  0.0550  0.1329
11011TIP3    H154448   2.871   5.113   3.483 -0.5675  0.0564 -1.7401
11011TIP3    H254449   2.921   5.241   3.548 -2.1558 -0.5294  0.6930
11012TIP3   OH254450   2.805   6.254  14.702 -0.3309  0.2340  0.5404
11012TIP3    H154451   2.787   6.270  14.609  0.0018 -0.2022  0.4038
11012TIP3    H254452   2.729   6.204  14.733  0.1619 -0.7231  0.2038
11013TIP3   OH254453   6.058   6.497  11.353  0.0774  0.1774 -0.2496
11013TIP3    H154454   6.007   6.574  11.379  0.3289  0.2572  0.0050
11013TIP3    H254455   6.100   6.467  11.433  0.2329 -0.0394 -0.4096
11014TIP3   OH254456   4.026   1.166   5.336 -0.8065 -0.0684  0.0439
11014TIP3    H154457   4.021   1.105   5.410 -0.9817  1.2926  1.1790
11014TIP3    H254458   4.116   1.157   5.304 -0.4953 -0.1077  0.9134
11015TIP3   OH254459   1.135   4.053   0.846  0.1811  0.3722 -0.2334
11015TIP3    H154460   1.170   4.073   0.933  1.4487 -3.0850  0.1672
11015TIP3    H254461   1.063   4.114   0.834  0.1802  1.1483  3.1353
11016TIP3   OH254462   5.433   4.319  15.403 -0.2609 -0.2506 -0.1249
11016TIP3    H154463   5.482   4.308  15.485  0.8117 -0.5559 -0.7997
11016TIP3    H254464   5.436   4.233  15.361  0.5040  0.2937 -1.2056
11017TIP3   OH254465   1.731   0.051   0.779 -0.0813 -0.1118  0.0437
11017TIP3    H154466   1.751   0.144   0.769  2.7553 -0.4651  1.6843
11017TIP3    H254467   1.754   0.031   0.870 -2.4063 -2.0217  0.2555
11018TIP3   OH254468   1.051   1.179   0.621 -0.0805 -0.1700  0.2663
11018TIP3    H154469   1.091   1.122   0.687 -0.1049 -1.8944 -1.1699
11018TIP3    H254470   1.122   1.236   0.592  0.7796 -1.6288 -0.5651
11019TIP3   OH254471   1.349   2.583   2.838  0.3021 -0.2305 -0.4224
11019TIP3    H154472   1.333   2.551   2.750  0.5703 -0.0663 -0.5304
11019TIP3    H254473   1.444   2.580   2.848  0.2733 -0.2250 -0.1492
11020TIP3   OH254474   4.232   4.475   5.536  0.7051 -0.1583  0.3978
11020TIP3    H154475   4.160   4.430   5.579 -0.1289  0.1442 -0.6450
11020TIP3    H254476   4.266   4.535   5.603  0.0496 -0.3758  0.9352
11021TIP3   OH254477   4.619   5.117   3.198  0.0907 -0.5868  0.0022
11021TIP3    H154478   4.659   5.132   3.284  2.8591  0.9317 -1.4787
11021TIP3    H254479   4.617   5.022   3.189  0.7769 -0.7405  1.3234
11022TIP3   OH254480   5.608   2.702   2.035 -0.5547 -0.2507  0.0652
11022TIP3    H154481   5.537   2.751   1.994 -0.7472 -0.9805 -0.4708
11022TIP3    H254482   5.686   2.753   2.015 -0.4322 -1.3951 -2.5363
11023TIP3   OH254483   6.692   3.631  11.766  0.1378 -0.0802  0.1805
11023TIP3    H154484   6.651   3.560  11.717 -1.4251  1.0242 -0.1530
11023TIP3    H254485   6.677   3.609  11.858  0.2588 -0.5208  0.0955
11024TIP3   OH254486   0.480   1.120   4.839  0.6277  0.0690  0.1004
11024TIP3    H154487   0.468   1.146   4.747  0.3229  1.4644  0.5360
11024TIP3    H254488   0.410   1.057   4.855 -0.3010  1.0395 -0.1461
11025TIP3   OH254489   5.444   0.446  15.657  0.1992 -0.3650  0.3998
11025TIP3    H154490   5.372   0.409  15.708  0.4530 -1.6637 -0.1477
11025TIP3    H254491   5.409   0.527  15.622 -1.4274 -1.5619 -0.8446
11026TIP3   OH254492   5.425   6.638  13.356 -0.2466 -0.6427 -0.0611
11026TIP3    H154493   5.516   6.609  13.343 -0.4200 -1.7708  1.1168
11026TIP3    H254494   5.386   6.570  13.411 -1.5077  0.3796  0.3232
11027TIP3   OH254495   6.455   6.129  15.753  0.1291  0.3783  0.0829
11027TIP3    H154496   6.474   6.040  15.786 -0.2950 -0.2951 -1.4624
11027TIP3    H254497   6.533   6.153  15.703 -0.8815 -0.2603 -1.8373
11028TIP3   OH254498   2.575   3.893   1.365  0.4101  0.0219  0.2702
11028TIP3    H154499   2.558   3.807   1.406 -0.5614 -0.1085 -0.3799
11028TIP3    H254500   2.488   3.931   1.354  0.8326  1.0466  0.4425
11029TIP3   OH254501   0.082   5.967   0.874  0.1159  0.4315 -0.3707
11029TIP3    H154502   0.167   5.955   0.916  0.4637 -0.5172 -1.3046
11029TIP3    H254503   0.025   5.900   0.913  0.8832 -1.5433 -2.5180
11030TIP3   OH254504   6.708   3.589   4.586  0.6673  0.2198  0.0659
11030TIP3    H154505   6.717   3.649   4.660 -1.9204  0.5795  0.1556
11030TIP3    H254506   6.664   3.512   4.622 -1.0841  0.6104 -1.1693
11031TIP3   OH254507   1.596   6.149  13.826  0.8136  0.9034 -0.1329
11031TIP3    H154508   1.524   6.212  13.832  1.6050  1.8365 -0.3152
11031TIP3    H254509   1.553   6.065  13.809 -0.2340  1.4469 -0.2184
11032TIP3   OH254510   0.420   5.439   6.681  0.2927  0.1892  0.2985
11032TIP3    H154511   0.442   5.470   6.593 -0.6082  0.0785  0.0253
11032TIP3    H254512   0.504   5.414   6.720  0.3409 -3.4120 -1.9109
11033TIP3   OH254513   4.257   5.880  17.203 -0.4357  0.3275  0.1935
11033TIP3    H154514   4.242   5.971  17.177  0.2361  0.2671 -0.4389
11033TIP3    H254515   4.199   5.829  17.146 -0.8779  0.3597  0.6077
11034TIP3   OH254516   2.538   0.512  14.573 -0.3895 -0.1950  0.5225
11034TIP3    H154517   2.552   0.418  14.563 -2.4841 -0.4046 -0.6891
11034TIP3    H254518   2.548   0.547  14.484 -1.6985  0.3986  0.5892
11035TIP3   OH254519   4.866   1.979  11.678  0.1703  0.0900 -0.4305
11035TIP3    H154520   4.827   2.005  11.762  1.3982  0.0527  0.1613
11035TIP3    H254521   4.806   2.014  11.612 -1.2870 -0.6591  0.4725
11036TIP3   OH254522   1.485   0.911   5.474  0.0384 -0.1417 -0.1829
11036TIP3    H154523   1.420   0.978   5.498 -0.2090 -0.9421  1.4785
11036TIP3    H254524   1.442   0.860   5.406 -0.3349  0.4988 -0.4371
11037TIP3   OH254525   3.449   3.160  17.115  0.0609 -0.3784 -0.0299
11037TIP3    H154526   3.415   3.079  17.077  2.0828 -1.7494  0.9773
11037TIP3    H254527   3.521   3.185  17.057 -0.4129  0.5797 -0.2106
11038TIP3   OH254528   2.042   2.367  13.281  0.7384 -0.1762  0.3367
11038TIP3    H154529   2.019   2.458  13.263  0.8688 -0.5925 -2.1089
11038TIP3    H254530   2.137   2.363  13.269  1.0784 -0.1548  2.7544
11039TIP3   OH254531   4.715   5.733  12.645 -0.5317  0.5464  0.0172
11039TIP3    H154532   4.785   5.797  12.654 -1.3065  1.2446  1.3135
11039TIP3    H254533   4.747   5.656  12.691  0.2577  0.1230 -1.2392
11040TIP3   OH254534   0.579   3.978   2.794 -0.0340  0.0461 -0.0656
11040TIP3    H154535   0.496   4.008   2.831  0.7845  3.0570 -0.5468
11040TIP3    H254536   0.643   3.990   2.864  0.5299  0.5917 -0.6682
11041TIP3   OH254537   0.040   5.142   5.886  0.6459  0.0165  0.2272
11041TIP3    H154538  -0.052   5.167   5.876  0.4019 -1.3662 -1.1922
11041TIP3    H254539   0.041   5.085   5.963  0.3805  0.3333  0.4682
11042TIP3   OH254540   4.097   3.555  14.454 -0.2145  0.1747 -0.1440
11042TIP3    H154541   4.047   3.570  14.374  2.2492  0.1346 -1.7709
11042TIP3    H254542   4.158   3.629  14.458  0.8337 -0.7167  0.7615
11043TIP3   OH254543   5.911   0.073   1.898 -0.3342  0.1051 -0.3355
11043TIP3    H154544   5.868   0.149   1.937  0.1021  1.0509 -1.6515
11043TIP3    H254545   6.004   0.094   1.899 -0.2680 -0.0946 -1.3526
11044TIP3   OH254546   1.293   5.210  16.232  0.2867 -0.6910  0.3212
11044TIP3    H154547   1.384   5.226  16.257 -0.3340  0.7229  1.7347
11044TIP3    H254548   1.292   5.229  16.138  1.4027 -0.4561  0.3428
11045TIP3   OH254549   6.393   4.589   2.132 -0.1791 -0.1219  0.4046
11045TIP3    H154550   6.314   4.564   2.084 -0.3785 -1.1210  1.2345
11045TIP3    H254551   6.453   4.515   2.120  0.7780  0.7915 -0.5312
11046TIP3   OH254552   0.518   4.856  11.826 -0.1604 -0.3484  0.9100
11046TIP3    H154553   0.584   4.786  11.819  0.3691  0.1520  0.8392
11046TIP3    H254554   0.518   4.878  11.919 -1.3831 -1.4437  1.1866
11047TIP3   OH254555   6.675   1.194  15.562  0.0392 -0.3074 -0.7953
11047TIP3    H154556   6.659   1.284  15.591 -2.2181 -0.6445 -0.9003
11047TIP3    H254557   6.728   1.155  15.631 -0.2356  0.6583 -0.0375
11048TIP3   OH254558   2.151   0.433   1.185  0.8467 -0.0600  0.0377
11048TIP3    H154559   2.141   0.508   1.126  1.3504  1.3380  1.6744
11048TIP3    H254560   2.078   0.441   1.247  1.0942 -0.7185  0.4212
11049TIP3   OH254561   3.037   5.816  13.647  0.3536 -0.0373 -0.3015
11049TIP3    H154562   2.982   5.876  13.696 -0.8503 -1.4100  0.0609
11049TIP3    H254563   3.106   5.790  13.709  0.7972  0.8519 -0.4188
11050TIP3   OH254564   1.676   4.899   3.520 -0.0176 -0.0511  0.9116
11050TIP3    H154565   1.623   4.972   3.486 -2.0384 -1.2464  1.4361
11050TIP3    H254566   1.714   4.934   3.600  3.7372  2.3567 -1.7509
11051TIP3   OH254567   4.787   2.119  16.933 -0.0501  0.1621 -0.3831
11051TIP3    H154568   4.779   2.109  17.028 -0.8475  0.2193 -0.4424
11051TIP3    H254569   4.842   2.046  16.906  3.6837  2.4708  0.6563
11052TIP3   OH254570   1.929   5.369   2.353 -0.0653 -0.1040 -0.1786
11052TIP3    H154571   1.924   5.352   2.447  1.2794 -1.3902 -0.3159
11052TIP3    H254572   1.865   5.308   2.314  0.3414 -0.5284 -0.1911
11053TIP3   OH254573   2.956   2.629  11.126  0.3411  0.1086  0.0973
11053TIP3    H154574   2.968   2.699  11.063  1.0736  1.2158  1.4518
11053TIP3    H254575   2.887   2.660  11.185  1.3552  0.1211  1.2908
11054TIP3   OH254576   4.314   3.022  12.769 -0.4046  0.4424 -0.3283
11054TIP3    H154577   4.273   3.107  12.755 -2.5221 -0.5192 -0.1256
11054TIP3    H254578   4.392   3.041  12.822  0.1146  2.4352 -1.7658
11055TIP3   OH254579   6.290   2.903   4.376  0.0884 -0.5581 -0.9548
11055TIP3    H154580   6.223   2.940   4.318  0.1464  0.6092 -0.3057
11055TIP3    H254581   6.371   2.945   4.349 -0.0981  1.0455  0.8127
11056TIP3   OH254582   4.375   3.948  17.040 -0.3297 -0.0677 -0.4741
11056TIP3    H154583   4.362   3.893  16.963 -0.0712  0.3977 -0.8555
11056TIP3    H254584   4.294   3.998  17.048 -0.6813 -0.7111  0.0455
11057TIP3   OH254585   3.798   6.730  16.316  0.3095 -0.4388 -0.0092
11057TIP3    H154586   3.886   6.767  16.320  0.2747 -0.0717 -2.2187
11057TIP3    H254587   3.787   6.704  16.225 -1.8992 -0.4391  0.2371
11058TIP3   OH254588   0.422   4.184   3.713 -0.5019 -0.6224 -0.0116
11058TIP3    H154589   0.464   4.105   3.746 -1.0905 -1.0417 -0.2654
11058TIP3    H254590   0.448   4.252   3.776  1.4805 -0.6287 -0.7871
11059TIP3   OH254591   3.243   6.503  13.331 -0.5806 -0.1016  0.3946
11059TIP3    H154592   3.277   6.591  13.347 -0.5354 -0.2497  1.1139
11059TIP3    H254593   3.162   6.498  13.382 -0.6593 -0.4273  0.2401
11060TIP3   OH254594   2.360   0.762  17.019 -0.4376  0.1463 -0.0404
11060TIP3    H154595   2.361   0.766  17.115 -0.4303 -1.1344  0.0191
11060TIP3    H254596   2.274   0.728  16.997 -0.5733  0.7876 -0.5127
11061TIP3   OH254597   3.988   3.390  10.809 -0.0610  0.4246 -0.1569
11061TIP3    H154598   3.951   3.471  10.775 -0.1485  0.3520 -0.2389
11061TIP3    H254599   3.994   3.332  10.733 -0.4145  0.2045 -0.0243
11062TIP3   OH254600   6.380   3.600  12.792 -0.0878  0.2916 -0.4952
11062TIP3    H154601   6.302   3.613  12.845 -0.2468  0.9578 -0.8850
11062TIP3    H254602   6.348   3.594  12.702  0.3932  1.6126 -0.7683
11063TIP3   OH254603   3.819   6.739  12.408 -0.6324  0.1018 -0.4575
11063TIP3    H154604   3.793   6.823  12.446 -0.9508  0.7071 -1.9904
11063TIP3    H254605   3.913   6.732  12.428 -0.8586  0.2362  0.7283
11064TIP3   OH254606   6.240   6.180   2.890  0.4779  0.0713  0.6332
11064TIP3    H154607   6.221   6.274   2.889 -0.6243 -0.1198  1.6871
11064TIP3    H254608   6.231   6.155   2.982  0.3363 -1.1437  0.2975
11065TIP3   OH254609   3.907   4.164   4.872 -0.4019 -0.4895 -0.0325
11065TIP3    H154610   3.924   4.092   4.811  0.8324  1.3389 -1.9417
11065TIP3    H254611   3.992   4.183   4.911 -0.8924 -0.6476  1.1255
11066TIP3   OH254612   4.869   2.693  13.875 -0.1794 -0.0623  0.1044
11066TIP3    H154613   4.906   2.719  13.960  3.8121  0.1370 -1.5986
11066TIP3    H254614   4.899   2.602  13.864  1.6654  0.7890 -2.2477
11067TIP3   OH254615   4.716   2.444   4.051 -0.4520 -0.1588  0.2740
11067TIP3    H154616   4.795   2.436   3.998 -0.8727  0.3284 -0.4505
11067TIP3    H254617   4.732   2.521   4.106 -0.6663  0.3209 -0.3230
11068TIP3   OH254618   4.941   1.694   0.580 -0.1790  0.1739  0.0070
11068TIP3    H154619   4.897   1.718   0.662  0.6041 -0.9269  0.7752
11068TIP3    H254620   4.932   1.771   0.524 -2.0711  0.3777  0.5693
11069TIP3   OH254621   1.362   6.750   5.175  0.2803  0.1973 -0.3096
11069TIP3    H154622   1.293   6.708   5.124 -1.0219  2.3230 -0.3706
11069TIP3    H254623   1.382   6.830   5.126  1.9806  0.1877  0.3275
11070TIP3   OH254624   4.139   3.468  16.697 -0.1364  0.1776  0.0872
11070TIP3    H154625   4.180   3.382  16.693  1.6376  1.0765 -2.4223
11070TIP3    H254626   4.055   3.457  16.654  0.0829 -0.3113 -0.2185
11071TIP3   OH254627   0.282   4.846  14.005 -0.7098  1.1154 -0.2238
11071TIP3    H154628   0.328   4.821  13.925 -0.5545 -0.4682  0.3432
11071TIP3    H254629   0.222   4.773  14.021 -2.1017  2.3069  0.0575
11072TIP3   OH254630   5.259   3.826  14.780  0.0663  0.3875  0.3345
11072TIP3    H154631   5.283   3.798  14.692  1.6389  0.3620  0.7560
11072TIP3    H254632   5.209   3.752  14.816  0.2166  0.0205 -0.2038
11073TIP3   OH254633   5.522   3.455  14.400  0.4931  1.3787 -0.5798
11073TIP3    H154634   5.487   3.516  14.336 -2.3142  0.6585  0.1814
11073TIP3    H254635   5.570   3.390  14.348 -0.8327  1.3992 -1.8668
11074TIP3   OH254636   3.868   0.849   5.361 -0.2492  0.1451  0.0071
11074TIP3    H154637   3.959   0.833   5.337 -0.5650 -1.8571  0.1036
11074TIP3    H254638   3.817   0.800   5.296 -1.2251 -0.3778  1.1568
11075TIP3   OH254639   1.077   1.303  14.415 -0.6261 -0.5894  0.0687
11075TIP3    H154640   1.004   1.365  14.415 -0.5449 -0.4937  0.0763
11075TIP3    H254641   1.105   1.298  14.324  0.5684  0.8007  0.3401
11076TIP3   OH254642   3.563   3.591   1.420 -0.2424  0.0449 -0.2100
11076TIP3    H154643   3.612   3.611   1.500 -0.7762 -2.1260  0.6906
11076TIP3    H254644   3.532   3.676   1.389 -0.3491  0.8905  2.1040
11077TIP3   OH254645   4.577   6.652  13.656  0.0312 -0.3172 -0.4062
11077TIP3    H154646   4.616   6.635  13.742 -1.3693  0.2068  0.3633
11077TIP3    H254647   4.615   6.735  13.628  0.0964 -0.2175 -0.0320
11078TIP3   OH254648   3.810   3.584   5.886  0.3653  0.1994  0.3515
11078TIP3    H154649   3.823   3.501   5.932  2.3305  1.5964  2.4421
11078TIP3    H254650   3.892   3.597   5.837 -0.6012  0.1127 -1.3318
11079TIP3   OH254651   5.367   3.109   3.610  0.3529 -0.5450 -0.2436
11079TIP3    H154652   5.358   3.170   3.683  0.8463  1.7967 -2.0911
11079TIP3    H254653   5.453   3.070   3.621 -0.5816 -2.1339  1.8189
11080TIP3   OH254654   4.861   4.636   2.058  0.9779  0.7211  0.3611
11080TIP3    H154655   4.811   4.563   2.022 -2.2209  2.3620  1.2112
11080TIP3    H254656   4.891   4.685   1.981  1.5318 -0.4231 -0.1676
11081TIP3   OH254657   3.773   5.982  15.989 -0.3238 -0.0666 -0.0019
11081TIP3    H154658   3.750   5.957  15.899 -2.7925 -0.6390  0.7466
11081TIP3    H254659   3.869   5.979  15.991 -0.2804 -1.4399 -2.2226
11082TIP3   OH254660   5.605   6.600  11.141  0.0425  0.2199  0.2826
11082TIP3    H154661   5.610   6.537  11.212  1.2635  0.5182  0.4555
11082TIP3    H254662   5.541   6.561  11.080 -2.8365  1.0842  2.6112
11083TIP3   OH254663   2.194   3.964  15.742  0.1446 -0.2209  0.8735
11083TIP3    H154664   2.126   4.026  15.768 -1.7557 -2.4934  1.4629
11083TIP3    H254665   2.149   3.881  15.734  2.2629 -1.1766 -1.8993
11084TIP3   OH254666   1.858   3.362  13.676 -0.0159  0.0762  0.0212
11084TIP3    H154667   1.888   3.444  13.636 -1.5091 -0.5105 -2.4251
11084TIP3    H254668   1.938   3.313  13.694  0.7658  0.8911 -1.1756
11085TIP3   OH254669   0.065   3.744   2.971  0.5699 -0.2018  0.0786
11085TIP3    H154670   0.149   3.707   2.945  0.1814 -0.6763 -0.5215
11085TIP3    H254671   0.062   3.734   3.066  1.7919  1.0910  0.2541
11086TIP3   OH254672   5.510   0.092  12.565 -0.4237  0.0045 -0.6711
11086TIP3    H154673   5.419   0.098  12.534 -0.7324 -1.1438 -0.0076
11086TIP3    H254674   5.556   0.046  12.495  0.0106  1.9206 -1.7069
11087TIP3   OH254675   2.810   2.888  12.089 -0.3518  0.4370  0.5441
11087TIP3    H154676   2.844   2.960  12.035 -0.0807  0.6429  0.9828
11087TIP3    H254677   2.799   2.815  12.028  1.3175  0.2313  0.4674
11088TIP3   OH254678   5.631   3.612   3.051 -0.0596  0.2971  0.0448
11088TIP3    H154679   5.649   3.548   3.119 -0.7717  0.1686  0.1149
11088TIP3    H254680   5.535   3.614   3.044  0.0420 -1.2171 -2.3645
11089TIP3   OH254681   1.612   4.311  15.995  0.2644 -0.1687 -0.6967
11089TIP3    H154682   1.678   4.270  16.051  1.2168 -0.9400 -2.3330
11089TIP3    H254683   1.543   4.245  15.986  0.3523 -0.2419 -0.8379
11090TIP3   OH254684   5.831   0.384  14.087  0.0200  0.0896 -0.3362
11090TIP3    H154685   5.752   0.331  14.082 -0.0150  0.0495  0.4974
11090TIP3    H254686   5.903   0.320  14.087 -0.0102  0.0487  0.3493
11091TIP3   OH254687   1.436   5.594  15.594  0.1909 -0.6256  0.3024
11091TIP3    H154688   1.452   5.579  15.501 -0.4115  2.9475 -0.4720
11091TIP3    H254689   1.366   5.533  15.617 -1.5124  0.2317 -2.3116
11092TIP3   OH254690   4.284   4.503  12.616 -0.1223  0.0609 -0.0652
11092TIP3    H154691   4.374   4.477  12.632 -0.2258 -1.1795 -1.4079
11092TIP3    H254692   4.260   4.460  12.534 -2.1741 -0.2363  0.6471
11093TIP3   OH254693   2.344   6.189   1.238 -0.0779  0.4971 -0.7039
11093TIP3    H154694   2.324   6.194   1.144 -0.9793  1.7166 -0.4483
11093TIP3    H254695   2.432   6.224   1.245 -0.4111  1.4075 -0.9675
11094TIP3   OH254696   0.147   2.151  12.485 -0.3449 -0.0440  0.2182
11094TIP3    H154697   0.109   2.073  12.444 -0.5700 -0.6900  1.6164
11094TIP3    H254698   0.239   2.129  12.497 -0.7523 -0.8113  2.1975
11095TIP3   OH254699   0.043   5.024  15.518 -0.1004 -0.3386  0.1604
11095TIP3    H154700   0.126   4.981  15.539 -0.5811 -1.0622  0.6057
11095TIP3    H254701   0.048   5.040  15.424  1.1802  1.0184  0.4310
11096TIP3   OH254702   2.457   4.498   4.969  0.2184 -0.6343 -0.5669
11096TIP3    H154703   2.457   4.444   5.048 -2.2888 -1.0302 -0.8014
11096TIP3    H254704   2.466   4.588   5.001  0.1457 -0.8684  0.1206
11097TIP3   OH254705   3.954   2.763   3.694  0.0950 -0.0261  0.0872
11097TIP3    H154706   3.977   2.681   3.649  0.5389  0.3540 -0.3838
11097TIP3    H254707   4.038   2.805   3.712 -0.1000  0.0057  0.9422
11098TIP3   OH254708   0.855   0.655   5.491  0.8281  0.1659  0.2184
11098TIP3    H154709   0.877   0.591   5.423  1.1717 -0.5966  1.0336
11098TIP3    H254710   0.782   0.705   5.454  1.5486  0.3212 -1.0512
11099TIP3   OH254711   4.435   4.450   0.768  0.1253  0.1923 -0.2169
11099TIP3    H154712   4.509   4.479   0.715  0.9333 -1.0961  0.1808
11099TIP3    H254713   4.469   4.376   0.818 -0.6723  1.2342  1.9481
11100TIP3   OH254714   2.151   4.600  16.342 -0.1467 -0.2311 -0.4405
11100TIP3    H154715   2.062   4.598  16.379  0.2654  1.5035  0.7007
11100TIP3    H254716   2.206   4.630  16.414  1.2199 -0.3019 -1.4474
11101TIP3   OH254717   6.648   6.588   5.442 -0.1033 -0.3983  0.1068
11101TIP3    H154718   6.641   6.536   5.362 -0.2547 -1.2877  0.6914
11101TIP3    H254719   6.597   6.540   5.506 -0.5905  0.6950  0.5527
11102TIP3   OH254720   6.262   1.541   3.230  0.2010 -0.0972 -0.0676
11102TIP3    H154721   6.187   1.588   3.267  1.4294  1.3860  0.5717
11102TIP3    H254722   6.231   1.510   3.145 -1.7502 -1.1318  0.9621
11103TIP3   OH254723   0.237   6.192  14.506 -0.3560  0.0153 -0.8325
11103TIP3    H154724   0.185   6.173  14.584 -1.3873  1.4528 -1.1358
11103TIP3    H254725   0.230   6.114  14.451 -1.1129 -0.2981 -0.2837
11104TIP3   OH254726   2.598   4.368  13.075  0.1059 -0.1608 -0.0302
11104TIP3    H154727   2.552   4.288  13.051 -2.8975  0.7306  2.3331
11104TIP3    H254728   2.535   4.438  13.055  0.4420  1.1251  3.1121
11105TIP3   OH254729   5.872   4.108   3.508 -0.0091 -0.4133 -0.1443
11105TIP3    H154730   5.952   4.102   3.560 -0.0287 -0.7322 -0.1514
11105TIP3    H254731   5.801   4.101   3.572 -0.0388  0.5662 -0.0527
11106TIP3   OH254732   1.272   6.142   0.663  0.1057  0.1519  0.5195
11106TIP3    H154733   1.254   6.225   0.707  1.3923 -0.4162  2.1967
11106TIP3    H254734   1.289   6.166   0.572  1.0182  1.7843  1.0965
11107TIP3   OH254735   4.873   4.488  10.831 -0.0479  0.2553  0.2246
11107TIP3    H154736   4.889   4.563  10.773  1.3059 -0.3528 -0.2019
11107TIP3    H254737   4.830   4.424  10.775  0.5977 -0.0471  0.0649
11108TIP3   OH254738   1.344   4.051  10.720  0.7940  0.1892  0.2260
11108TIP3    H154739   1.273   4.115  10.714  1.6241  1.2366  1.4538
11108TIP3    H254740   1.357   4.038  10.814  1.8510 -0.4168  0.0013
11109TIP3   OH254741   3.249   0.693   2.692 -0.0818 -0.4392  0.0080
11109TIP3    H154742   3.198   0.623   2.650 -1.0293  0.2031  0.0740
11109TIP3    H254743   3.286   0.743   2.619 -1.1259  0.2372 -0.0697
11110TIP3   OH254744   4.445   0.745  17.192  0.4345 -0.3389  0.2668
11110TIP3    H154745   4.390   0.777  17.121 -0.7169 -0.5757  1.0248
11110TIP3    H254746   4.451   0.651  17.178  0.1516 -0.3956  0.5064
11111TIP3   OH254747   3.042   4.788  14.578 -0.3423  0.1078  0.3228
11111TIP3    H154748   3.128   4.800  14.619 -0.9454 -0.1344  1.6845
11111TIP3    H254749   3.022   4.873  14.538  1.6680 -0.5580 -2.2796
11112TIP3   OH254750   4.168   0.836  16.780 -0.1288 -0.3120 -0.2639
11112TIP3    H154751   4.152   0.836  16.686 -2.2399 -1.6675  0.0496
11112TIP3    H254752   4.084   0.810  16.818  0.9024 -0.4958  1.9491
11113TIP3   OH254753   2.042   1.366  12.839 -0.3013 -0.5178 -0.0609
11113TIP3    H154754   1.974   1.332  12.898 -0.8851  0.0073 -0.4271
11113TIP3    H254755   2.004   1.358  12.752  0.6059 -1.3917 -0.3887
11114TIP3   OH254756   4.024   1.360  16.594  0.0985  0.1253  0.4390
11114TIP3    H154757   4.118   1.344  16.605 -0.2193 -0.8269  1.9745
11114TIP3    H254758   3.999   1.304  16.521  0.5917 -0.1713  0.4884
11115TIP3   OH254759   1.901   5.868  11.424  0.1051 -0.0335  0.1460
11115TIP3    H154760   1.953   5.796  11.389 -1.2532 -0.3379 -1.3365
11115TIP3    H254761   1.962   5.940  11.435  1.4095 -1.2874  1.2914
11116TIP3   OH254762   6.358   1.722  16.210 -0.0875 -0.0384  0.7548
11116TIP3    H154763   6.350   1.772  16.291 -0.1120 -0.6300  1.1122
11116TIP3    H254764   6.441   1.674  16.219  0.3286  0.5375  0.0829
11117TIP3   OH254765   2.148   1.979   3.877 -0.7929 -0.7168  0.2358
11117TIP3    H154766   2.152   2.047   3.810  0.1831 -0.7117  0.3009
11117TIP3    H254767   2.171   1.898   3.832 -0.7131 -0.8079  0.4393
11118TIP3   OH254768   1.114   4.918   4.257 -0.0732 -0.8224 -0.2127
11118TIP3    H154769   1.161   4.835   4.251 -0.6405 -1.2424  1.0841
11118TIP3    H254770   1.025   4.893   4.283 -0.6277  0.0851 -1.1979
11119TIP3   OH254771   3.522   3.017  13.199 -0.2681 -0.2161 -0.6455
11119TIP3    H154772   3.491   3.094  13.151 -1.9135 -0.4367  0.0081
11119TIP3    H254773   3.482   2.943  13.153  1.4654 -0.7082 -1.3868
11120TIP3   OH254774   3.994   4.379  11.649 -0.0340  0.4399  0.0296
11120TIP3    H154775   3.999   4.417  11.736 -0.3297 -1.4662  0.8906
11120TIP3    H254776   3.983   4.285  11.663  1.6408 -0.1280 -2.0512
11121TIP3   OH254777   2.157   2.448   6.826 -0.0443  0.7148 -0.1034
11121TIP3    H154778   2.126   2.529   6.787  0.9029  0.8469 -0.5929
11121TIP3    H254779   2.203   2.403   6.756 -0.3166 -0.1159  0.2433
11122TIP3   OH254780   0.386   3.103   3.972 -0.3332  0.0771  0.6256
11122TIP3    H154781   0.449   3.126   4.040 -0.9287  0.2009  1.1402
11122TIP3    H254782   0.311   3.068   4.019 -0.7745  0.2103  0.0365
11123TIP3   OH254783   5.774   3.966   5.624 -0.2145 -0.1660  0.0598
11123TIP3    H154784   5.741   3.931   5.541 -0.9760  0.9737 -0.1326
11123TIP3    H254785   5.806   3.890   5.671 -0.6618 -0.9505 -0.8878
11124TIP3   OH254786   6.593   6.447   1.538 -0.9085 -0.1563 -0.2454
11124TIP3    H154787   6.648   6.375   1.571  0.7896  1.0804 -0.2971
11124TIP3    H254788   6.587   6.431   1.444  0.7933  0.6302 -0.4988
11125TIP3   OH254789   4.500   3.408   3.463  0.2768 -0.0246  0.3789
11125TIP3    H154790   4.547   3.453   3.393 -0.9421  2.9805  1.4142
11125TIP3    H254791   4.567   3.389   3.529  0.5855  1.5292  0.5269
11126TIP3   OH254792   5.178   0.499   0.415 -0.5508 -0.0907  0.4378
11126TIP3    H154793   5.259   0.449   0.418 -0.7519 -0.3924  0.7992
11126TIP3    H254794   5.109   0.433   0.419 -0.8160  0.2192  1.0300
11127TIP3   OH254795   5.749   1.501  15.223  0.1760 -0.5164 -0.3000
11127TIP3    H154796   5.769   1.542  15.139 -2.2460 -1.7988 -1.5616
11127TIP3    H254797   5.807   1.425  15.227  0.2101 -0.5268 -0.8912
11128TIP3   OH254798   0.076   1.722   3.705  0.2612 -0.1948  0.2708
11128TIP3    H154799  -0.017   1.714   3.683  0.0159 -0.5872  1.3932
11128TIP3    H254800   0.115   1.640   3.675 -0.2446 -1.1324  2.0922
11129TIP3   OH254801   1.121   5.724  13.010  0.2260  0.3353 -0.4839
11129TIP3    H154802   1.054   5.690  12.952 -1.1715  0.4405  1.0368
11129TIP3    H254803   1.124   5.661  13.082  1.6230  0.4338 -0.4434
11130TIP3   OH254804   3.933   3.747  14.914 -0.0275 -0.2659 -0.1050
11130TIP3    H154805   3.936   3.840  14.940 -0.0163 -0.2807 -0.0518
11130TIP3    H254806   3.871   3.708  14.975 -2.1090  0.2414 -1.8376
11131TIP3   OH254807   1.361   3.679  13.731  0.2781 -0.0952 -0.2260
11131TIP3    H154808   1.315   3.704  13.651 -0.4718 -0.4822  0.0767
11131TIP3    H254809   1.437   3.737  13.734 -1.9841  2.9139  1.0135
11132TIP3   OH254810   6.549   5.447  16.859 -0.2310  0.2687  0.1303
11132TIP3    H154811   6.548   5.464  16.764 -0.1280  0.8259  0.2237
11132TIP3    H254812   6.502   5.521  16.897  0.3525  0.4120  0.5750
11133TIP3   OH254813   4.604   4.309  13.374 -0.2783  0.9277 -0.0452
11133TIP3    H154814   4.611   4.310  13.278 -0.5213  1.1915 -0.0616
11133TIP3    H254815   4.511   4.290  13.390 -0.4266  1.7815  0.1345
11134TIP3   OH254816   4.085   0.881  12.444  0.0690  0.4417 -0.4055
11134TIP3    H154817   4.097   0.946  12.374 -0.2740 -0.8966 -1.7281
11134TIP3    H254818   3.996   0.896  12.476 -0.7585 -0.7087 -2.1168
11135TIP3   OH254819   3.113   1.381   0.799  0.3891  0.2961 -0.2093
11135TIP3    H154820   3.169   1.385   0.877  0.9969 -0.9697 -0.5635
11135TIP3    H254821   3.059   1.459   0.805  1.0351  0.6739  1.0300
11136TIP3   OH254822   6.684   3.981   2.386 -0.3381  0.4393  0.6440
11136TIP3    H154823   6.631   3.901   2.390  1.5267 -0.8922 -0.1661
11136TIP3    H254824   6.621   4.051   2.373 -1.9143 -1.0745 -0.1387
11137TIP3   OH254825   2.968   5.955  13.103  0.3635  0.0944  0.2278
11137TIP3    H154826   3.035   5.911  13.051 -0.3557  0.0014 -0.6247
11137TIP3    H254827   3.009   5.969  13.188  1.5239  0.1842 -0.3394
11138TIP3   OH254828   0.385   1.842   1.513  0.3393  0.5606 -0.0980
11138TIP3    H154829   0.417   1.887   1.434 -0.5031  1.2873 -0.0375
11138TIP3    H254830   0.320   1.902   1.549 -1.5874 -1.1775 -0.6107
11139TIP3   OH254831   4.126   6.020   2.099 -0.2553 -0.2253  0.0584
11139TIP3    H154832   4.145   6.050   2.187 -1.4414 -1.5843  0.8005
11139TIP3    H254833   4.167   5.933   2.094 -0.4310 -0.2731 -0.6293
11140TIP3   OH254834   0.632   1.788   0.473 -0.1612 -0.3181  0.4908
11140TIP3    H154835   0.652   1.703   0.435 -0.5151 -0.5354  0.7838
11140TIP3    H254836   0.708   1.842   0.454 -0.0685 -0.6123  0.0350
11141TIP3   OH254837   5.930   4.368  11.134 -0.3461 -0.0240  0.0504
11141TIP3    H154838   5.858   4.307  11.120 -1.9282  1.8816 -0.4016
11141TIP3    H254839   5.976   4.371  11.050 -0.5161 -0.2774 -0.0510
11142TIP3   OH254840   1.258   4.408   1.351  0.2458 -0.1535  0.0532
11142TIP3    H154841   1.303   4.490   1.333  0.8188 -0.4373  0.1595
11142TIP3    H254842   1.185   4.431   1.408  1.9615 -0.0725  2.2905
11143TIP3   OH254843   6.157   2.636  13.058  0.3436 -0.8523 -0.4930
11143TIP3    H154844   6.220   2.645  12.987  0.3789 -0.8231 -0.4587
11143TIP3    H254845   6.081   2.595  13.018  1.3369 -3.2323  0.0279
11144TIP3   OH254846   4.256   5.978  16.094 -0.1549  0.1152 -0.1296
11144TIP3    H154847   4.268   6.030  16.174  0.3132 -0.6630  0.3081
11144TIP3    H254848   4.281   5.889  16.118  0.6324  0.0001 -1.3206
11145TIP3   OH254849   0.084   6.305   1.233 -0.3965  0.0501 -0.1547
11145TIP3    H154850   0.117   6.235   1.290  0.4674  1.0187  0.5400
11145TIP3    H254851   0.136   6.382   1.256  0.7500  0.1944 -3.0157
11146TIP3   OH254852   5.285   1.922  12.356  0.0384  0.4015  0.1187
11146TIP3    H154853   5.228   1.862  12.309 -0.3475  1.0793 -0.2795
11146TIP3    H254854   5.280   1.894  12.447 -0.5787  0.1899  0.0167
11147TIP3   OH254855   6.444   2.739   4.988 -0.4286 -0.4351 -0.5282
11147TIP3    H154856   6.461   2.788   5.068  0.4896 -1.3856 -0.1305
11147TIP3    H254857   6.385   2.669   5.015 -1.7900  0.4567 -1.1067
11148TIP3   OH254858   0.547   5.867  16.301 -0.0431 -0.1316 -0.1211
11148TIP3    H154859   0.623   5.922  16.283 -0.1865  0.4190  0.9266
11148TIP3    H254860   0.561   5.789  16.249  0.9215  0.2527 -0.4435
11149TIP3   OH254861   2.128   6.782  16.374 -0.2276  0.0376  0.0527
11149TIP3    H154862   2.219   6.766  16.348 -0.0048  1.3420 -0.0282
11149TIP3    H254863   2.100   6.855  16.320 -1.7265 -1.1130 -0.7566
11150TIP3   OH254864   6.108   1.207  11.771  0.0646  0.6591 -0.4834
11150TIP3    H154865   6.151   1.244  11.848  0.1458 -3.4783  1.5825
11150TIP3    H254866   6.180   1.174  11.718 -0.2293 -0.7190 -0.0313
11151TIP3   OH254867   5.178   1.184  11.409 -0.0655  0.3379 -0.1211
11151TIP3    H154868   5.139   1.147  11.330  2.2772 -1.2266 -0.5900
11151TIP3    H254869   5.267   1.208  11.383  0.6108  0.1584  1.9324
11152TIP3   OH254870   0.042   0.943  15.989  0.2998 -0.3658 -0.7996
11152TIP3    H154871   0.094   1.023  15.993  1.0379 -0.8819  0.1050
11152TIP3    H254872   0.065   0.896  16.069 -2.3153 -0.1315  0.1442
11153TIP3   OH254873   4.240   4.360   4.571 -0.3656  0.4468 -0.4020
11153TIP3    H154874   4.272   4.407   4.494  0.9034  0.8514  0.3597
11153TIP3    H254875   4.274   4.409   4.645  0.2254 -1.1527  0.4079
11154TIP3   OH254876   5.455   0.093   1.507 -0.1546  0.2996  0.3756
11154TIP3    H154877   5.392   0.165   1.507 -2.1903 -1.4138 -0.6350
11154TIP3    H254878   5.486   0.087   1.417 -1.7599 -1.5230 -0.0972
11155TIP3   OH254879   2.921   1.442  15.482 -0.3944  0.1542  0.4711
11155TIP3    H154880   3.009   1.412  15.507 -0.5324 -0.2148  0.5265
11155TIP3    H254881   2.863   1.371  15.510 -0.6246  0.0285 -0.3072
11156TIP3   OH254882   0.936   0.924   0.138 -0.2077 -0.2272 -0.9704
11156TIP3    H154883   0.941   1.016   0.114 -0.0044 -0.0488 -0.2543
11156TIP3    H254884   0.891   0.924   0.222  0.6801 -0.7019 -0.4906
11157TIP3   OH254885   4.416   5.761   3.006  0.3822 -0.1841 -0.2551
11157TIP3    H154886   4.360   5.693   2.971 -0.2164  0.2277 -0.1012
11157TIP3    H254887   4.359   5.814   3.062  1.0350 -0.0788  0.3338
11158TIP3   OH254888   3.179   4.976  15.163 -0.0380  0.2307  0.2940
11158TIP3    H154889   3.226   5.049  15.124  1.2990 -0.6218  0.2715
11158TIP3    H254890   3.247   4.920  15.201 -1.0398 -0.9052  0.4842
11159TIP3   OH254891   1.226   3.622   1.820 -0.1847 -0.1618 -0.0286
11159TIP3    H154892   1.246   3.538   1.861 -0.3558  0.1131  0.6262
11159TIP3    H254893   1.257   3.613   1.730  1.2308 -0.3691  0.4781
11160TIP3   OH254894   4.786   0.320  13.430  0.0673  0.3346  0.5173
11160TIP3    H154895   4.750   0.396  13.384 -2.1735 -0.5642  0.7170
11160TIP3    H254896   4.766   0.246  13.373  2.3180 -0.1100  0.2846
11161TIP3   OH254897   3.060   0.596  16.094  0.4983  0.4472 -0.2879
11161TIP3    H154898   3.034   0.671  16.040 -0.0192 -1.1321 -2.2852
11161TIP3    H254899   2.983   0.577  16.147  0.5974  1.2466  0.1537
11162TIP3   OH254900   2.173   2.777  14.784  0.0499 -0.5401  0.0838
11162TIP3    H154901   2.244   2.815  14.733  0.4328 -0.1167  0.9153
11162TIP3    H254902   2.206   2.691  14.812 -0.6426 -1.3111 -1.4196
11163TIP3   OH254903   1.998   2.204   4.633 -0.3029  0.2032  0.0552
11163TIP3    H154904   2.010   2.224   4.540  0.2041  0.3228  0.1464
11163TIP3    H254905   2.084   2.178   4.664 -0.1188  1.7248  0.8649
11164TIP3   OH254906   1.000   0.929   2.384 -0.1523 -0.3887  0.8939
11164TIP3    H154907   0.990   0.913   2.290 -0.6617 -0.0183  0.8822
11164TIP3    H254908   0.919   0.896   2.423 -0.2036  0.0067  1.1290
11165TIP3   OH254909   0.162   4.858   2.283 -0.2505  0.0146  0.4817
11165TIP3    H154910   0.084   4.908   2.258  0.3469 -0.3511 -2.2480
11165TIP3    H254911   0.135   4.808   2.360 -3.1908 -1.1943 -1.2398
11166TIP3   OH254912   6.452   4.957   3.740  0.2589  0.1131 -0.1238
11166TIP3    H154913   6.452   4.893   3.669  0.8096  0.0144 -0.0426
11166TIP3    H254914   6.422   5.038   3.699 -2.1535 -0.6003  0.1719
11167TIP3   OH254915   4.683   2.898   3.076 -0.1442 -0.1338 -0.1576
11167TIP3    H154916   4.765   2.936   3.047 -0.5926 -0.2993 -1.6871
11167TIP3    H254917   4.699   2.871   3.166  1.0546  1.0502 -0.0030
11168TIP3   OH254918   3.165   1.453   2.393 -0.0737 -0.2764  0.4414
11168TIP3    H154919   3.160   1.525   2.456  0.3782  0.1441  0.0031
11168TIP3    H254920   3.258   1.445   2.374 -0.3647  0.8227 -1.5606
11169TIP3   OH254921   3.405   3.374  15.567  0.2983  0.1941 -0.2584
11169TIP3    H154922   3.470   3.410  15.507 -0.0769  0.1243 -0.7117
11169TIP3    H254923   3.456   3.344  15.642  0.5128  2.6033  0.5843
11170TIP3   OH254924   6.214   5.990  11.125  0.6609 -0.0366 -0.9223
11170TIP3    H154925   6.122   6.016  11.127  0.3583 -1.1196 -0.4305
11170TIP3    H254926   6.261   6.068  11.155 -0.2881 -0.2339  1.1572
11171TIP3   OH254927   3.877   2.485   5.270  0.1978 -0.2709  0.2503
11171TIP3    H154928   3.883   2.404   5.321 -2.1303 -0.1881  0.7170
11171TIP3    H254929   3.876   2.554   5.336  2.4442  0.1884 -0.1590
11172TIP3   OH254930   0.278   0.293  17.208 -0.1388 -0.6549 -0.3449
11172TIP3    H154931   0.278   0.327  17.298  1.0136  0.1930 -0.6465
11172TIP3    H254932   0.209   0.342  17.164  1.7966  1.6913 -0.8875
11173TIP3   OH254933   3.985   4.755  10.598 -0.0909  0.1268 -0.3128
11173TIP3    H154934   3.931   4.826  10.564  1.9063  1.9327  0.1696
11173TIP3    H254935   4.068   4.798  10.622  1.5210 -2.5407 -0.9605
11174TIP3   OH254936   5.869   4.450   3.288 -0.4389 -0.2050 -0.5175
11174TIP3    H154937   5.927   4.525   3.294  0.1180 -0.6675  0.0294
11174TIP3    H254938   5.917   4.386   3.236 -0.2431 -0.7773  0.3520
11175TIP3   OH254939   4.298   2.020   1.053 -0.1328  0.2865 -0.4469
11175TIP3    H154940   4.240   1.978   0.990 -2.1479  1.0016  0.9088
11175TIP3    H254941   4.356   2.074   0.998 -0.9948 -0.1071 -1.7758
11176TIP3   OH254942   0.324   4.348   2.918  0.1120 -0.4008 -0.1025
11176TIP3    H154943   0.255   4.286   2.895 -0.6073  0.4173 -0.1725
11176TIP3    H254944   0.390   4.336   2.850 -0.3698 -0.5633 -0.5466
11177TIP3   OH254945   0.730   2.877  16.748 -0.2708 -0.0636  0.9768
11177TIP3    H154946   0.771   2.906  16.830 -1.1849  0.6905  1.1720
11177TIP3    H254947   0.690   2.956  16.712 -2.3070 -0.9506  1.2384
11178TIP3   OH254948   6.754   6.332   4.637 -0.3622 -0.4249  0.2422
11178TIP3    H154949   6.814   6.397   4.672  0.4801 -1.5134  0.8690
11178TIP3    H254950   6.667   6.369   4.652  0.0940  0.3447  1.0179
11179TIP3   OH254951   2.512   3.071  14.221 -0.0022 -0.5889 -0.2177
11179TIP3    H154952   2.504   2.994  14.278  0.9334 -1.5197 -1.3163
11179TIP3    H254953   2.598   3.108  14.244 -0.1144 -0.3202 -0.2352
11180TIP3   OH254954   6.308   1.750  13.669  0.1465  0.1492 -0.0616
11180TIP3    H154955   6.280   1.840  13.653 -1.3300 -0.3508 -0.3234
11180TIP3    H254956   6.288   1.735  13.761 -1.9862 -0.7471 -0.6582
11181TIP3   OH254957   0.721   5.441  17.186 -0.4630  0.1455  0.6409
11181TIP3    H154958   0.803   5.431  17.235 -0.9994 -0.1914  1.4650
11181TIP3    H254959   0.653   5.442  17.252 -0.8616  4.5146  0.3137
11182TIP3   OH254960   2.080   0.667  10.358 -0.0475  0.2031  0.8833
11182TIP3    H154961   2.147   0.611  10.397  0.2611  1.3333  1.9734
11182TIP3    H254962   2.027   0.607  10.305  0.8857 -0.9489  1.2451
11183TIP3   OH254963   2.550   3.445  13.242 -0.1604  0.5175 -0.0491
11183TIP3    H154964   2.560   3.536  13.269  1.6827  0.5348 -0.7310
11183TIP3    H254965   2.575   3.445  13.149  1.9600 -1.0356  0.4950
11184TIP3   OH254966   3.268   2.429  14.753  0.0481  0.1580 -0.4092
11184TIP3    H154967   3.294   2.345  14.792  2.0743  1.6606  1.5415
11184TIP3    H254968   3.335   2.446  14.687 -0.5615  0.0836 -1.0485
11185TIP3   OH254969   6.160   0.072   6.111  0.1159 -0.3413 -0.4630
11185TIP3    H154970   6.067   0.060   6.127  0.1749 -1.8847 -1.1489
11185TIP3    H254971   6.200  -0.010   6.143  1.1869  0.1503 -0.5076
11186TIP3   OH254972   3.117   1.698   4.601 -0.0743 -0.1250 -0.2553
11186TIP3    H154973   3.052   1.634   4.574 -1.4446  0.3766  1.7609
11186TIP3    H254974   3.158   1.727   4.519 -2.2713 -0.5427 -1.5338
11187TIP3   OH254975   5.618   4.784   0.954 -0.0669  0.0297  0.1545
11187TIP3    H154976   5.670   4.708   0.976  1.7267  1.4335  0.8857
11187TIP3    H254977   5.625   4.841   1.031  3.1353  3.3285 -2.3790
11188TIP3   OH254978   4.861   5.069  14.444 -0.7177  0.1339 -0.7994
11188TIP3    H154979   4.908   5.008  14.388 -0.4810  0.3251 -0.8119
11188TIP3    H254980   4.772   5.033  14.451 -0.1711 -1.0293  0.4223
11189TIP3   OH254981   2.336   6.339  12.270  0.2145 -0.2401  0.0435
11189TIP3    H154982   2.255   6.357  12.319  0.7533 -2.7195  2.0138
11189TIP3    H254983   2.390   6.417  12.283  0.2857 -0.7674  3.4213
11190TIP3   OH254984   5.317   6.706  10.932  0.2307  0.1556 -0.7245
11190TIP3    H154985   5.388   6.653  10.894 -0.8798 -0.5253 -1.8991
11190TIP3    H254986   5.310   6.781  10.874  0.0938  0.3017 -0.5186
11191TIP3   OH254987   0.583   1.255  15.074  0.4717 -0.4201 -0.0196
11191TIP3    H154988   0.530   1.198  15.129 -0.1946 -0.1310 -0.3652
11191TIP3    H254989   0.580   1.214  14.987  1.6057 -0.9353  0.1660
11192TIP3   OH254990   6.122   1.632   1.750 -0.3531  0.4430  0.1390
11192TIP3    H154991   6.104   1.547   1.789 -0.7762  0.7666  0.6549
11192TIP3    H254992   6.198   1.665   1.799  2.0947 -1.1714 -2.4120
11193TIP3   OH254993   5.494   2.417  15.176 -0.1024 -0.1312 -0.4176
11193TIP3    H154994   5.589   2.416  15.177 -0.0665  1.5033 -0.3103
11193TIP3    H254995   5.469   2.329  15.147  1.3874 -1.1689  1.3492
11194TIP3   OH254996   6.717   6.417  11.680 -0.1258 -0.0452 -0.0744
11194TIP3    H154997   6.749   6.445  11.766  0.2391 -0.7120  0.0057
11194TIP3    H254998   6.737   6.491  11.622  0.8914 -0.1545  0.1259
11195TIP3   OH254999   1.871   6.391  13.710 -0.5227 -0.2318 -0.4478
11195TIP3    H155000   1.817   6.455  13.665  0.2518 -0.3021 -1.4907
11195TIP3    H255001   1.865   6.312  13.657  0.5811 -0.2470 -0.5580
11196TIP3   OH255002   2.486   0.368  16.658 -0.5182 -0.0442  0.3440
11196TIP3    H155003   2.489   0.337  16.567 -0.9638  0.6712  0.0849
11196TIP3    H255004   2.407   0.422  16.663  1.1621  2.4925  0.3265
11197TIP3   OH255005   3.369   2.558   4.078  0.3562 -0.0827 -0.6012
11197TIP3    H155006   3.445   2.539   4.133 -0.1776  1.1402  0.6050
11197TIP3    H255007   3.348   2.650   4.098 -1.1382 -0.2643 -1.2722
11198TIP3   OH255008   2.094   3.044   6.024 -0.0480 -0.1131  0.0464
11198TIP3    H155009   2.035   3.116   6.004  0.7737  0.0761 -1.7783
11198TIP3    H255010   2.041   2.983   6.075 -1.8051  0.0993 -1.4818
11199TIP3   OH255011   3.860   5.563   5.291  0.1772  0.1397  0.6562
11199TIP3    H155012   3.924   5.493   5.284  2.2009  2.0816 -0.9142
11199TIP3    H255013   3.806   5.554   5.213  1.1179  0.9498 -0.1031
11200TIP3   OH255014   3.187   4.788  16.014  0.6950 -0.4197 -0.0243
11200TIP3    H155015   3.195   4.833  16.098  1.9001  1.1011 -0.9220
11200TIP3    H255016   3.105   4.738  16.021 -1.0529  2.4178  0.8098
11201TIP3   OH255017   1.855   3.025   4.428 -0.0695 -0.0036 -0.2783
11201TIP3    H155018   1.820   2.954   4.482 -0.2074 -0.9883 -1.6423
11201TIP3    H255019   1.822   3.007   4.340  2.3944  0.0611 -1.2377
11202TIP3   OH255020   2.753   0.209  12.267  1.2475  0.3207 -0.4960
11202TIP3    H155021   2.680   0.152  12.288  0.7155  1.0189 -0.4241
11202TIP3    H255022   2.712   0.290  12.236  1.9620  1.2334  0.8805
11203TIP3   OH255023   3.115   5.323   4.097  0.7115  0.0799 -0.0442
11203TIP3    H155024   3.045   5.339   4.160  0.4368 -0.6248 -0.1651
11203TIP3    H255025   3.076   5.264   4.033  1.1580  0.3521 -0.5773
11204TIP3   OH255026   3.576   4.458   0.525  0.0579 -0.7436  0.3513
11204TIP3    H155027   3.576   4.397   0.451 -1.4844 -0.6010  0.2304
11204TIP3    H255028   3.604   4.542   0.487 -0.3493 -0.7634  0.0119
11205TIP3   OH255029   3.339   1.968   1.976 -0.1275 -0.1540  0.0087
11205TIP3    H155030   3.420   1.955   2.024  0.2708  0.2448 -0.5490
11205TIP3    H255031   3.360   1.943   1.886 -0.3770  0.7817 -0.3142
11206TIP3   OH255032   6.721   4.249  11.538 -0.2988 -0.1035 -0.1510
11206TIP3    H155033   6.810   4.215  11.524 -0.8036 -1.0318 -1.1910
11206TIP3    H255034   6.664   4.174  11.522 -1.2698  0.4743  0.5879
11207TIP3   OH255035   5.563   5.760  14.015 -0.1839 -0.2221  0.4625
11207TIP3    H155036   5.580   5.764  13.920 -0.0793 -0.1704  0.4828
11207TIP3    H255037   5.545   5.668  14.032 -1.4879 -0.0264  0.1719
11208TIP3   OH255038   6.744   4.442   5.101 -0.1159  0.5486  0.1380
11208TIP3    H155039   6.794   4.517   5.070  1.8829 -0.6348  0.3902
11208TIP3    H255040   6.785   4.366   5.059 -0.1613 -0.6767  2.2133
11209TIP3   OH255041   0.587   1.454  16.124 -0.1388 -0.0043 -0.3241
11209TIP3    H155042   0.587   1.450  16.220 -3.2446 -1.5618 -0.3105
11209TIP3    H255043   0.663   1.507  16.102 -0.0477  1.4064  3.0606
11210TIP3   OH255044   0.078   1.148  11.242 -0.3883  0.4503  1.0176
11210TIP3    H155045   0.157   1.153  11.188 -0.3078 -0.3857  1.0502
11210TIP3    H255046   0.044   1.060  11.226 -1.9840  1.2241  0.0751
11211TIP3   OH255047   2.451   6.465  10.910 -0.4249 -0.3313  0.2073
11211TIP3    H155048   2.462   6.558  10.890  1.5839 -0.0647  2.2908
11211TIP3    H255049   2.505   6.419  10.847 -0.3222 -0.0032  0.0592
11212TIP3   OH255050   5.201   4.046   6.424 -0.1260  0.6557 -0.5584
11212TIP3    H155051   5.233   3.976   6.480  1.3631  1.6676 -0.1078
11212TIP3    H255052   5.249   4.124   6.453  2.4078  0.8102 -4.6387
11213TIP3   OH255053   3.127   1.567   2.877  0.0914 -1.0020  0.0527
11213TIP3    H155054   3.153   1.477   2.895 -1.5323 -1.6818 -0.8531
11213TIP3    H255055   3.034   1.569   2.899 -0.3503 -0.0896 -1.8037
11214TIP3   OH255056   4.405   0.482   0.521 -0.3136  0.3690  0.1250
11214TIP3    H155057   4.395   0.398   0.476 -0.0008 -0.3421  1.3600
11214TIP3    H255058   4.453   0.461   0.601 -1.0963  1.5778  0.9280
11215TIP3   OH255059   4.824   2.799  13.514  0.0166 -0.7905 -0.0494
11215TIP3    H155060   4.732   2.804  13.536  0.1518  2.0976 -0.0160
11215TIP3    H255061   4.828   2.823  13.421  0.8591  0.6234  0.3314
11216TIP3   OH255062   0.680   2.434  14.120 -0.9509 -0.3997 -0.0662
11216TIP3    H155063   0.601   2.442  14.173 -0.7454 -0.0814  0.1939
11216TIP3    H255064   0.739   2.502  14.154  0.0122 -1.6453  0.7580
11217TIP3   OH255065   5.612   2.397   1.754  0.3902  0.1425  0.2728
11217TIP3    H155066   5.560   2.388   1.834 -0.0123  0.8155  0.0939
11217TIP3    H255067   5.552   2.437   1.691  0.1531 -2.0406 -0.9217
11218TIP3   OH255068   5.821   5.901   2.539 -0.3510  0.1885 -0.6861
11218TIP3    H155069   5.881   5.950   2.595  1.4356 -1.0486 -1.4645
11218TIP3    H255070   5.787   5.832   2.596  0.8236 -0.5596 -0.8669
11219TIP3   OH255071   1.642   0.898  16.752 -0.1549  0.3307 -0.0283
11219TIP3    H155072   1.672   0.984  16.722 -0.2186  0.1739 -0.5543
11219TIP3    H255073   1.722   0.846  16.759 -0.1936  0.2074 -0.4642
11220TIP3   OH255074   1.553   4.605  15.633  0.0812  0.0098 -0.2658
11220TIP3    H155075   1.516   4.648  15.710 -0.6982 -0.0036 -0.6274
11220TIP3    H255076   1.556   4.512  15.657  0.8537  0.1399  0.1498
11221TIP3   OH255077   4.411   0.775  15.825 -0.0003  0.5191 -1.0618
11221TIP3    H155078   4.443   0.813  15.743  2.8086  3.1343  1.1536
11221TIP3    H255079   4.365   0.847  15.868 -1.0422 -0.6998 -0.1037
11222TIP3   OH255080   0.927   6.590  12.458 -0.1480 -0.1115 -0.1671
11222TIP3    H155081   0.870   6.631  12.523 -0.3616  0.8046 -0.9226
11222TIP3    H255082   0.877   6.515  12.426 -0.8475  0.5751 -0.6887
11223TIP3   OH255083   5.047   6.634  16.661  0.4469  0.8602  0.9980
11223TIP3    H155084   5.075   6.548  16.694  0.0912  0.9257  1.4883
11223TIP3    H255085   5.015   6.616  16.573 -3.1873 -0.2212  2.4408
11224TIP3   OH255086   3.094   5.004   2.558  0.4332 -0.4522 -0.1178
11224TIP3    H155087   3.065   4.918   2.590  1.8835 -1.0230 -0.2809
11224TIP3    H255088   3.085   5.062   2.634 -1.9921 -0.3773 -0.4250
11225TIP3   OH255089   6.453   5.976   4.220  0.2428 -0.1746  0.7608
11225TIP3    H155090   6.499   5.894   4.200  4.5631  1.6763  2.3557
11225TIP3    H255091   6.511   6.044   4.187 -1.2569  2.3287  3.1271
11226TIP3   OH255092   1.192   2.222   1.399  0.9599 -0.1797 -0.3166
11226TIP3    H155093   1.244   2.273   1.336  0.4114 -0.4965 -1.0278
11226TIP3    H255094   1.129   2.284   1.434  2.9686  0.6885  1.9157
11227TIP3   OH255095   6.148   0.386   1.665  0.0419 -0.3143  0.1983
11227TIP3    H155096   6.134   0.296   1.636  0.0482 -0.3943  0.4459
11227TIP3    H255097   6.090   0.438   1.609 -1.2032 -0.6317  1.1805
11228TIP3   OH255098   0.622   6.331  14.380 -0.2005 -0.0775  0.4187
11228TIP3    H155099   0.608   6.292  14.466 -1.0302 -0.3039  0.1822
11228TIP3    H255100   0.614   6.258  14.319  2.4823 -0.3279  0.2853
11229TIP3   OH255101   2.317   4.566   2.503 -0.3454 -0.6485 -0.4353
11229TIP3    H155102   2.362   4.636   2.549  1.2385 -1.0018 -1.4019
11229TIP3    H255103   2.237   4.606   2.469  1.0936  0.9947 -1.9460
11230TIP3   OH255104   2.855   0.428  13.854 -0.1387 -0.2807  0.1303
11230TIP3    H155105   2.948   0.431  13.830 -0.6324  0.8316 -1.7394
11230TIP3    H255106   2.830   0.336  13.841  0.0253 -0.0370 -2.0501
11231TIP3   OH255107   1.166   1.350   0.191  0.3232 -0.6397  0.0509
11231TIP3    H155108   1.108   1.425   0.179  2.0826  0.5251 -1.3579
11231TIP3    H255109   1.194   1.355   0.282  2.5183  1.9855 -0.7186
11232TIP3   OH255110   2.577   2.672   0.861 -0.1675  0.2053 -0.0093
11232TIP3    H155111   2.654   2.617   0.875  0.0544  0.5710  0.2067
11232TIP3    H255112   2.580   2.694   0.768  0.2954  0.6768  0.1162
11233TIP3   OH255113   0.249   5.788   1.849 -0.5588 -0.3077 -0.0408
11233TIP3    H155114   0.213   5.810   1.763 -2.8568 -0.6536  0.7955
11233TIP3    H255115   0.241   5.868   1.900  0.0108 -0.3473  0.1163
11234TIP3   OH255116   0.568   4.297  13.402  0.4982  0.3282  0.8454
11234TIP3    H155117   0.533   4.275  13.488  0.4344 -0.0951  0.7113
11234TIP3    H255118   0.529   4.382  13.381 -0.5527 -0.1906  0.6455
11235TIP3   OH255119   2.005   4.019   6.184 -0.1494 -0.0517 -0.5121
11235TIP3    H155120   2.071   4.038   6.251  0.2697 -0.0831 -0.9191
11235TIP3    H255121   1.959   4.102   6.172  1.1078  0.4932 -1.6618
11236TIP3   OH255122   0.352   5.958  16.002  0.8498  0.4306 -0.2288
11236TIP3    H155123   0.407   6.037  16.003  1.8107 -0.2037 -1.4083
11236TIP3    H255124   0.315   5.956  15.914 -0.6776  0.5710  0.4018
11237TIP3   OH255125   5.800   0.618  17.007  0.4937  0.1053  0.0250
11237TIP3    H155126   5.879   0.601  16.956  0.2029 -1.1465 -0.0158
11237TIP3    H255127   5.761   0.695  16.966 -0.8485 -2.0691 -3.0094
11238TIP3   OH255128   2.508   4.683  15.023 -0.1514 -0.5557  0.4548
11238TIP3    H155129   2.595   4.717  15.006 -0.8008 -0.1454 -2.3668
11238TIP3    H255130   2.508   4.596  14.982 -0.4745 -1.3874  2.1524
11239TIP3   OH255131   4.180   0.830  14.712  0.0131  0.0729 -0.3418
11239TIP3    H155132   4.096   0.788  14.730  0.4214 -0.7084 -0.2767
11239TIP3    H255133   4.228   0.767  14.658  1.1154 -0.0857  0.7976
11240TIP3   OH255134   3.996   5.540  14.801 -0.4229  0.0242 -0.5429
11240TIP3    H155135   3.918   5.488  14.821 -0.4945 -0.1794 -1.3358
11240TIP3    H255136   4.020   5.581  14.884 -2.5940  1.7285 -0.7004
11241TIP3   OH255137   4.161   5.800  15.769 -0.5623 -0.1528  0.2117
11241TIP3    H155138   4.084   5.748  15.790 -0.8784  0.5029  0.7055
11241TIP3    H255139   4.156   5.815  15.675 -0.9137 -0.3100  0.2080
11242TIP3   OH255140   2.380   0.856   2.989 -0.0795 -0.3336 -0.2501
11242TIP3    H155141   2.334   0.913   2.928 -0.0185 -0.4747 -0.4268
11242TIP3    H255142   2.423   0.916   3.049 -0.2867 -0.1973 -0.2356
11243TIP3   OH255143   2.043   3.260  16.727  0.0405 -0.6112  0.0733
11243TIP3    H155144   2.064   3.325  16.795 -0.8868  0.7812 -0.9615
11243TIP3    H255145   1.969   3.212  16.762 -0.9328  0.6184 -0.2629
11244TIP3   OH255146   6.757   4.437   1.495 -0.1042 -0.1064  0.2570
11244TIP3    H155147   6.819   4.491   1.543 -0.3299 -1.1360  1.7356
11244TIP3    H255148   6.684   4.424   1.555 -1.0037 -0.2911 -0.8562
11245TIP3   OH255149   0.974   3.214   5.335 -0.0050 -0.2588  0.7042
11245TIP3    H155150   0.905   3.221   5.401 -0.3432 -0.9377  0.4198
11245TIP3    H255151   0.970   3.124   5.304 -0.6444  0.3558 -1.1014
11246TIP3   OH255152   5.749   4.871  17.093 -0.4999 -0.1178  0.0725
11246TIP3    H155153   5.746   4.780  17.062  1.6004 -0.7499  1.5537
11246TIP3    H255154   5.675   4.878  17.153  0.0136 -1.2173  0.8544
11247TIP3   OH255155   2.662   2.254  17.059  0.2995 -0.2142 -0.4690
11247TIP3    H155156   2.662   2.318  17.131  1.5636  1.6696 -2.0916
11247TIP3    H255157   2.748   2.264  17.018  0.0039 -2.0372 -1.5824
11248TIP3   OH255158   2.641   3.165  16.846 -0.2340 -0.4427  0.1952
11248TIP3    H155159   2.699   3.174  16.770 -0.7376  0.3832 -0.1086
11248TIP3    H255160   2.613   3.074  16.845 -0.9955 -0.2176 -1.2018
11249TIP3   OH255161   5.656   4.647   4.786 -0.4053 -0.6630  0.3144
11249TIP3    H155162   5.720   4.717   4.777 -1.4753  0.2750 -0.1723
11249TIP3    H255163   5.584   4.672   4.727 -1.9325 -0.8407  2.0424
11250TIP3   OH255164   6.038   6.541  13.045  0.2710 -0.5190 -0.5758
11250TIP3    H155165   5.984   6.553  12.967 -0.3274 -0.1805 -0.1075
11250TIP3    H255166   6.029   6.623  13.094 -2.3989 -2.1246  1.7508
11251TIP3   OH255167   3.437   3.097  12.530 -0.1695  0.5277 -0.9567
11251TIP3    H155168   3.387   3.146  12.597 -0.5650 -1.0861 -0.0310
11251TIP3    H255169   3.382   3.020  12.512  1.0552 -0.2533 -1.3922
11252TIP3   OH255170   0.334   6.519   5.589 -0.0968 -0.3329 -0.1681
11252TIP3    H155171   0.260   6.577   5.607  0.4682 -0.0662  1.4307
11252TIP3    H255172   0.340   6.463   5.667  1.0641 -0.6807 -0.4884
11253TIP3   OH255173   3.382   6.295   6.038  0.3517 -0.6071  0.5434
11253TIP3    H155174   3.303   6.341   6.067  0.7828  1.5282 -1.5210
11253TIP3    H255175   3.350   6.210   6.009 -1.3615  0.5085 -1.0210
11254TIP3   OH255176   2.486   1.080  14.722  0.0093  0.3417 -0.5206
11254TIP3    H155177   2.465   0.988  14.707  1.2135  0.0761 -0.5764
11254TIP3    H255178   2.447   1.100  14.807  0.7702 -0.5418  0.0399
11255TIP3   OH255179   0.580   6.783   0.474 -0.3775 -0.0887  0.1734
11255TIP3    H155180   0.497   6.754   0.511  0.9124 -1.9644  1.7096
11255TIP3    H255181   0.641   6.713   0.495  1.8901  1.8285  0.1574
11256TIP3   OH255182   4.220   1.353  14.365 -0.2405  0.0980 -0.0478
11256TIP3    H155183   4.133   1.334  14.330 -0.1002  0.4325 -0.5813
11256TIP3    H255184   4.204   1.379  14.456 -0.7107  0.2905 -0.1823
11257TIP3   OH255185   0.990   1.232   5.594  0.0759  0.1719  0.8445
11257TIP3    H155186   1.085   1.218   5.599  0.4227  1.8381 -0.6832
11257TIP3    H255187   0.975   1.311   5.645 -0.3782  0.3836  0.3841
11258TIP3   OH255188   4.790   5.040   2.740 -0.0648 -0.1864  0.1080
11258TIP3    H155189   4.809   5.032   2.646  1.3013 -1.4241  0.4765
11258TIP3    H255190   4.729   4.969   2.758 -1.9058  1.2820 -0.2379
11259TIP3   OH255191   3.411   0.570  14.100 -0.0470  0.3038  0.6440
11259TIP3    H155192   3.445   0.659  14.111 -1.6771  0.7893  1.8024
11259TIP3    H255193   3.326   0.570  14.143  0.7085 -2.3358  2.2582
11260TIP3   OH255194   3.807   5.594  12.365 -0.7123  0.1496  0.0421
11260TIP3    H155195   3.800   5.660  12.296  2.2979  0.8194  0.3168
11260TIP3    H255196   3.867   5.529  12.329 -0.2245 -0.2075  1.4846
11261TIP3   OH255197   0.543   0.235  16.777  0.3975 -0.0981 -0.6443
11261TIP3    H155198   0.605   0.167  16.801 -1.0050 -1.4609 -0.7902
11261TIP3    H255199   0.472   0.227  16.840 -0.3318  0.4373 -1.3757
11262TIP3   OH255200   3.884   0.553  17.186  0.2362  0.1360  0.0644
11262TIP3    H155201   3.920   0.566  17.099 -0.3259 -0.8986 -0.3358
11262TIP3    H255202   3.959   0.526  17.240  0.3796 -0.3097 -0.3569
11263TIP3   OH255203   3.534   2.832   0.212 -0.2747 -0.0232 -0.2702
11263TIP3    H155204   3.558   2.902   0.273 -0.1334 -2.2996  2.3775
11263TIP3    H255205   3.449   2.801   0.244  1.1267 -3.1545  0.5549
11264TIP3   OH255206   6.676   4.220   4.398  0.4366 -0.2645 -0.1176
11264TIP3    H155207   6.618   4.183   4.331  0.1095 -0.8821  0.5034
11264TIP3    H255208   6.629   4.297   4.431  0.6020  0.0442 -0.6019
11265TIP3   OH255209   3.654   0.750  14.340  0.3192  0.4044 -0.3310
11265TIP3    H155210   3.671   0.656  14.339 -0.5869  0.2490 -0.9462
11265TIP3    H255211   3.709   0.783  14.411 -0.4456 -0.8019  0.8442
11266TIP3   OH255212   3.917   1.060  13.807  0.3967 -0.6172 -0.2608
11266TIP3    H155213   3.908   1.155  13.815  1.2684 -0.5762  0.2632
11266TIP3    H255214   3.827   1.029  13.798  0.1064  0.2627 -0.5073
11267TIP3   OH255215   0.041   1.631  16.896 -0.6908  0.4749 -0.1432
11267TIP3    H155216   0.133   1.651  16.879 -0.2793 -0.7114  0.5721
11267TIP3    H255217   0.029   1.652  16.989 -0.6085 -1.1835  0.2667
11268TIP3   OH255218   2.144   4.706   5.753 -0.3555 -0.1085  0.7845
11268TIP3    H155219   2.105   4.779   5.706 -1.0941  0.1866  1.8395
11268TIP3    H255220   2.193   4.746   5.824 -1.1533 -0.6461  1.6532
11269TIP3   OH255221   3.136   5.825   2.848  0.3002 -0.3791  0.3654
11269TIP3    H155222   3.073   5.852   2.915 -1.4497  0.6652 -1.6307
11269TIP3    H255223   3.220   5.862   2.877 -0.0520 -1.4602  2.8524
11270TIP3   OH255224   2.384   0.578   3.012  0.0770  0.2350 -0.1445
11270TIP3    H155225   2.377   0.673   3.009  3.0095  0.4478 -1.6540
11270TIP3    H255226   2.369   0.549   2.922  2.1990 -0.4529 -0.3089
11271TIP3   OH255227   5.233   2.365  12.199 -0.3161  0.2646  0.0737
11271TIP3    H155228   5.190   2.320  12.271 -2.3574  1.2980 -0.4805
11271TIP3    H255229   5.294   2.301  12.163 -0.6208 -0.8572  1.5358
11272TIP3   OH255230   0.777   0.089  11.762 -0.0190 -0.4956  0.2586
11272TIP3    H155231   0.816   0.062  11.845  2.4088  1.9151 -0.0214
11272TIP3    H255232   0.709   0.153  11.788  0.8720  0.4053  0.3998
11273TIP3   OH255233   0.885   6.777   4.958 -0.3434  0.1354  0.0746
11273TIP3    H155234   0.842   6.790   4.874 -0.2621 -0.8631 -0.1330
11273TIP3    H255235   0.812   6.765   5.020 -0.4130  1.3553  0.2405
11274TIP3   OH255236   2.756   3.500  12.238 -0.2350 -0.0652  0.0771
11274TIP3    H155237   2.702   3.561  12.188  0.3169  0.4437  0.0862
11274TIP3    H255238   2.846   3.522  12.211 -0.0084 -0.5475  0.4495
11275TIP3   OH255239   5.874   5.831  14.891 -0.0265 -0.8952 -0.3190
11275TIP3    H155240   5.810   5.764  14.867  0.3952 -1.3863 -0.0952
11275TIP3    H255241   5.898   5.810  14.981 -2.1117  1.3674  0.7825
11276TIP3   OH255242   1.035   4.974  10.939  0.1364 -0.2994  0.1552
11276TIP3    H155243   1.017   5.068  10.939  0.0262 -0.3182 -0.4273
11276TIP3    H255244   1.130   4.968  10.946  0.2439 -0.1210 -1.0973
11277TIP3   OH255245   4.026   1.997   0.231  0.0611  0.3519 -0.3007
11277TIP3    H155246   3.958   2.028   0.172  2.1136  1.9002 -1.9138
11277TIP3    H255247   4.044   2.072   0.288 -1.5827 -0.9777  2.0545
11278TIP3   OH255248   3.730   3.999   1.457 -0.6047 -0.1317  0.2959
11278TIP3    H155249   3.752   4.090   1.480 -1.1411  0.1121 -0.1439
11278TIP3    H255250   3.634   3.997   1.457 -0.5964 -0.9277  1.1937
11279TIP3   OH255251   2.598   4.871   2.818 -0.0177 -0.2935  0.5724
11279TIP3    H155252   2.617   4.890   2.910  0.9864 -1.5789  0.6332
11279TIP3    H255253   2.631   4.947   2.771 -1.0333  0.6289  1.3038
11280TIP3   OH255254   2.970   4.469  12.111 -0.0836 -0.5306  0.4228
11280TIP3    H155255   2.927   4.486  12.196 -1.2425 -0.9865 -0.0535
11280TIP3    H255256   3.013   4.385  12.124  1.4101  0.3330  1.1782
11281TIP3   OH255257   2.371   2.367   4.318  0.0644 -0.0542 -0.2976
11281TIP3    H155258   2.327   2.291   4.281 -2.2447  1.3868 -0.6319
11281TIP3    H255259   2.312   2.440   4.301  2.4780  1.9459 -0.5236
11282TIP3   OH255260   1.417   3.349   1.575 -0.6432 -0.1162 -0.0808
11282TIP3    H155261   1.431   3.286   1.504 -0.0541  0.0120 -0.0809
11282TIP3    H255262   1.325   3.337   1.600 -0.2031 -1.8831  0.7864
11283TIP3   OH255263   6.187   3.895  15.681 -0.4475  0.1612  0.2925
11283TIP3    H155264   6.268   3.928  15.720 -0.4928  1.1676 -0.4519
11283TIP3    H255265   6.197   3.799  15.685  2.0923  0.2394 -2.4387
11284TIP3   OH255266   3.545   5.495   0.773  0.4146  0.0197 -0.3144
11284TIP3    H155267   3.521   5.564   0.835 -0.3160 -0.0751 -0.4945
11284TIP3    H255268   3.540   5.538   0.688  2.2396  0.3832 -0.2557
11285TIP3   OH255269   5.475   5.920  15.395  0.3541 -0.0308  0.0954
11285TIP3    H155270   5.496   6.008  15.363  0.5706 -0.2748 -0.4444
11285TIP3    H255271   5.432   5.935  15.479  0.6197  0.5818  0.1313
11286TIP3   OH255272   2.760   2.988  15.083 -0.0295 -0.9138  0.3477
11286TIP3    H155273   2.780   3.013  15.173  1.1366 -0.5307 -0.0001
11286TIP3    H255274   2.715   3.064  15.047  2.6140  0.3814 -0.4047
11287TIP3   OH255275   4.789   3.477  15.159 -0.0437 -1.0944 -0.4770
11287TIP3    H155276   4.871   3.455  15.203 -1.0486 -0.9278  1.5505
11287TIP3    H255277   4.723   3.422  15.203 -1.1578 -0.6158 -1.5083
11288TIP3   OH255278   2.167   1.702   1.541 -0.0817 -0.1045  0.1253
11288TIP3    H155279   2.073   1.717   1.528 -0.0574 -0.3942 -0.4086
11288TIP3    H255280   2.176   1.689   1.635 -0.4727  0.6355  0.2647
11289TIP3   OH255281   3.916   6.315   2.690  0.0333 -0.0346 -0.1435
11289TIP3    H155282   3.845   6.376   2.709  0.8744  0.9350 -0.0980
11289TIP3    H255283   3.919   6.311   2.594 -0.3905 -0.4444 -0.1418
11290TIP3   OH255284   6.526   3.660  15.577  0.0283  0.6070  0.3282
11290TIP3    H155285   6.599   3.652  15.639  0.3612 -2.6007 -0.3979
11290TIP3    H255286   6.457   3.606  15.614  0.2220 -1.3587 -2.0455
11291TIP3   OH255287   5.909   5.607  11.452 -0.0499  0.1705 -0.1278
11291TIP3    H155288   5.868   5.630  11.369  0.1359  0.1590 -0.2236
11291TIP3    H255289   5.837   5.577  11.507 -0.0021 -1.0898 -0.7278
11292TIP3   OH255290   0.806   0.558  15.555 -0.4654  0.0261  0.3832
11292TIP3    H155291   0.733   0.545  15.494 -0.9462  1.7436  0.5454
11292TIP3    H255292   0.877   0.591  15.500 -0.0626 -0.9100  0.3461
11293TIP3   OH255293   5.341   1.073   1.661 -0.4476  0.3033 -0.1362
11293TIP3    H155294   5.389   1.123   1.594  1.5196  1.7452  2.2524
11293TIP3    H255295   5.396   0.997   1.678 -0.1395  0.7435  0.9172
11294TIP3   OH255296   5.044   0.279   4.322 -0.6292  0.1590  0.1626
11294TIP3    H155297   4.998   0.359   4.348 -1.8985 -0.4140 -0.2551
11294TIP3    H255298   5.100   0.258   4.397 -0.9022  0.9758  0.6073
11295TIP3   OH255299   5.418   5.513  12.154 -0.0960  0.2146  0.1475
11295TIP3    H155300   5.385   5.470  12.233 -0.2393 -1.7375 -0.9485
11295TIP3    H255301   5.344   5.514  12.094  0.4606  0.2488 -0.5496
11296TIP3   OH255302   6.546   0.748  11.090  0.0560 -0.2679 -0.3221
11296TIP3    H155303   6.494   0.668  11.076 -0.1538 -0.1557 -0.1802
11296TIP3    H255304   6.569   0.777  11.001  1.1815 -1.1684 -0.3482
11297TIP3   OH255305   1.164   0.757   5.726 -0.0902 -0.1260 -0.0691
11297TIP3    H155306   1.142   0.667   5.704 -0.3340  0.3564 -1.8913
11297TIP3    H255307   1.088   0.808   5.699 -0.3335  0.5430  1.7851
11298TIP3   OH255308   1.279   0.758   2.181  0.5392 -0.1289  0.3151
11298TIP3    H155309   1.342   0.739   2.250  0.6996 -0.7189  0.0046
11298TIP3    H255310   1.331   0.804   2.115  0.0538  1.8614  1.2760
11299TIP3   OH255311   4.561   1.798   0.120  0.2422  0.3263  0.1178
11299TIP3    H155312   4.563   1.840   0.034 -0.1183  0.0273 -0.0412
11299TIP3    H255313   4.576   1.868   0.183 -1.0883  0.8101 -0.0984
11300TIP3   OH255314   2.186   1.547   3.252  0.1951  0.4446 -0.2074
11300TIP3    H155315   2.249   1.556   3.323 -0.7392 -0.3605  0.7322
11300TIP3    H255316   2.144   1.633   3.247 -0.4124  0.2146  0.8549
11301TIP3   OH255317   2.119   4.887  13.816 -0.2416  0.4431 -0.2559
11301TIP3    H155318   2.071   4.826  13.873  2.4116 -0.3736  1.2089
11301TIP3    H255319   2.095   4.861  13.727 -1.9046 -0.4181  0.4262
11302TIP3   OH255320   0.124   3.809  14.278 -0.7435  0.0970  0.0880
11302TIP3    H155321   0.127   3.886  14.334  1.3850 -0.7446  1.1868
11302TIP3    H255322   0.082   3.840  14.197 -0.3994  2.2605  0.7062
11303TIP3   OH255323   4.851   0.961  16.282  0.0038  0.2134 -0.1384
11303TIP3    H155324   4.797   1.019  16.228 -0.2546  1.8724  1.8557
11303TIP3    H255325   4.802   0.950  16.363  1.6343 -0.0597  0.8331
11304TIP3   OH255326   3.129   2.779  16.286 -0.2264 -0.1906 -0.2405
11304TIP3    H155327   3.156   2.788  16.195 -1.3405 -0.8701 -0.6517
11304TIP3    H255328   3.203   2.811  16.336  0.4778  0.0008 -1.3833
11305TIP3   OH255329   6.753   6.247   1.667  0.2735  0.0887 -0.4829
11305TIP3    H155330   6.758   6.276   1.758 -0.4600  0.4631 -0.5613
11305TIP3    H255331   6.714   6.160   1.671 -0.4598  0.4171 -0.4992
11306TIP3   OH255332   4.018   5.644  13.960  0.1038 -0.5515 -0.1489
11306TIP3    H155333   4.068   5.721  13.933 -1.4651  1.1106  1.5812
11306TIP3    H255334   4.035   5.580  13.891  2.4454  0.8862 -0.9837
11307TIP3   OH255335   2.361   6.167   3.778 -0.0908  0.3771 -0.2599
11307TIP3    H155336   2.267   6.149   3.765 -0.2084 -0.3660  1.4401
11307TIP3    H255337   2.366   6.262   3.785 -0.7637  0.4016 -0.0330
11308TIP3   OH255338   5.510   4.568   1.670 -0.5243 -0.1576 -0.1379
11308TIP3    H155339   5.564   4.509   1.724 -2.2259 -2.4836 -0.9186
11308TIP3    H255340   5.439   4.595   1.728  1.1524  2.5275  0.7407
11309TIP3   OH255341   4.848   0.745   3.820  0.1199  0.0559  0.1861
11309TIP3    H155342   4.909   0.710   3.756 -0.6639  3.7430 -2.6993
11309TIP3    H255343   4.761   0.728   3.783 -0.3960  0.5593  1.1361
11310TIP3   OH255344   5.146   6.282   2.951  0.8009  0.6541  0.0743
11310TIP3    H155345   5.166   6.313   2.863  1.4169 -0.0384 -0.0367
11310TIP3    H255346   5.185   6.347   3.009  0.5636  1.0100 -0.1663
11311TIP3   OH255347   5.164   3.651  14.525 -0.4088 -0.0175  0.4054
11311TIP3    H155348   5.150   3.735  14.480  0.7940  0.8172  1.5477
11311TIP3    H255349   5.229   3.605  14.473  0.7290  0.8040  1.0749
11312TIP3   OH255350   6.176   3.292  11.920  0.3289  0.1912 -0.6951
11312TIP3    H155351   6.155   3.303  11.827  1.9553  0.1045 -1.0848
11312TIP3    H255352   6.259   3.338  11.932  2.4992 -3.5782 -0.3345
11313TIP3   OH255353   3.069   2.332  16.565 -0.4043 -0.2928  0.0820
11313TIP3    H155354   3.037   2.404  16.618  0.0828 -0.8229  1.1060
11313TIP3    H255355   3.156   2.361  16.536  0.1373 -0.7917  1.1682
11314TIP3   OH255356   2.730   4.645   3.489 -0.2283  0.3075 -0.4462
11314TIP3    H155357   2.798   4.701   3.525 -0.4964 -0.6822  1.7389
11314TIP3    H255358   2.649   4.677   3.529 -0.3326 -1.8181  1.1848
11315TIP3   OH255359   0.174   4.604   2.561  0.3577 -0.1999 -0.1006
11315TIP3    H155360   0.198   4.513   2.546 -0.8225 -0.6410  0.6846
11315TIP3    H255361   0.255   4.645   2.592  0.9288 -0.9377 -0.6047
11316TIP3   OH255362   5.967   6.218   4.410  0.1473 -0.0064 -0.4743
11316TIP3    H155363   5.953   6.245   4.501 -0.9246 -0.5875 -0.4602
11316TIP3    H255364   5.886   6.174   4.385  0.6259 -0.2962 -1.5554
11317TIP3   OH255365   5.345   5.238   2.916 -1.0792  0.1330  0.6589
11317TIP3    H155366   5.350   5.191   2.833 -0.4721  0.7831  0.3142
11317TIP3    H255367   5.320   5.327   2.891 -1.4925  0.1766  1.2322
11318TIP3   OH255368   5.070   3.971  11.582  0.1730 -0.3638  0.3457
11318TIP3    H155369   5.066   3.983  11.677  1.0717  3.7106 -0.0450
11318TIP3    H255370   4.981   3.989  11.552  0.2576 -0.0460  0.2805
11319TIP3   OH255371   6.027   3.556   6.459  0.0600 -0.0382  0.2829
11319TIP3    H155372   6.046   3.466   6.487  0.8448 -0.0137 -0.1681
11319TIP3    H255373   6.099   3.579   6.400  0.1383  1.0818  0.8051
11320TIP3   OH255374   1.069   2.367   6.474  0.7132  0.1975 -0.6000
11320TIP3    H155375   1.036   2.443   6.426 -2.4676 -0.9213 -0.3054
11320TIP3    H255376   1.020   2.293   6.439  1.7466 -1.3392  1.0809
11321TIP3   OH255377   6.310   2.314  13.651  0.3048  0.1957  0.3146
11321TIP3    H155378   6.372   2.384  13.671  1.1711 -0.6730  0.7567
11321TIP3    H255379   6.324   2.250  13.721 -0.7873 -0.2144  0.1673
11322TIP3   OH255380   1.378   6.162  12.658 -0.7902  0.3649  0.2013
11322TIP3    H155381   1.293   6.130  12.685 -0.1127 -0.0533  1.9251
11322TIP3    H255382   1.418   6.195  12.738  0.9190 -0.0345 -0.4530
11323TIP3   OH255383   2.824   6.718  12.542 -0.6418  1.0430  0.4376
11323TIP3    H155384   2.817   6.730  12.637  0.0052 -1.6015  0.8559
11323TIP3    H255385   2.770   6.642  12.523  2.7442 -1.1793 -0.6322
11324TIP3   OH255386   5.435   2.693   6.094 -0.0244 -0.0350 -0.0869
11324TIP3    H155387   5.407   2.619   6.148 -0.2874  0.2323  0.1448
11324TIP3    H255388   5.472   2.755   6.157  1.4741 -0.5625 -0.4373
11325TIP3   OH255389   4.834   3.963  14.569 -0.5130  0.9357  0.1635
11325TIP3    H155390   4.782   4.043  14.565 -0.9207  0.6236 -1.0763
11325TIP3    H255391   4.822   3.923  14.483  0.2575 -0.0976  0.5332
11326TIP3   OH255392   6.764   4.259  14.933  0.0399  0.0727  0.2204
11326TIP3    H155393   6.754   4.341  14.885 -1.7907 -1.2462 -1.7367
11326TIP3    H255394   6.712   4.195  14.884  1.8295 -2.4005  1.3722
11327TIP3   OH255395   0.890   0.743   5.136  0.1802 -0.0068  0.1185
11327TIP3    H155396   0.956   0.746   5.067 -0.8481  0.2949 -0.8635
11327TIP3    H255397   0.925   0.680   5.199  2.6182  2.0504  0.8915
11328TIP3   OH255398   6.710   3.374  17.090  0.2174 -0.4172  0.1418
11328TIP3    H155399   6.730   3.363  16.997  0.8388  0.3893  0.1746
11328TIP3    H255400   6.615   3.372  17.095  0.1610  0.1879 -0.5961
11329TIP3   OH255401   1.683   5.285  10.774  0.4204 -0.1254  0.0709
11329TIP3    H155402   1.765   5.296  10.823 -0.0138 -0.0710  0.7982
11329TIP3    H255403   1.684   5.194  10.744 -0.3474 -0.8273  2.1047
11330TIP3   OH255404   0.184   3.073   3.559 -0.2085  0.2577 -0.4475
11330TIP3    H155405   0.185   3.142   3.626  1.4421  0.2458 -0.4358
11330TIP3    H255406   0.193   3.120   3.476  0.7864  0.0838 -0.4473
11331TIP3   OH255407   3.099   6.060   3.444 -0.1843 -0.7445 -0.0684
11331TIP3    H155408   3.191   6.085   3.445 -0.6391  0.9863  2.0365
11331TIP3    H255409   3.062   6.107   3.369  0.0603  0.8333  0.7842
11332TIP3   OH255410   0.571   2.036   1.939  0.1340 -0.5451 -0.2040
11332TIP3    H155411   0.481   2.038   1.908  0.2125 -0.5216 -0.4345
11332TIP3    H255412   0.620   1.993   1.868  0.7760  1.9313 -1.3166
11333TIP3   OH255413   0.596   3.118  12.606  0.2487 -1.0683 -0.3206
11333TIP3    H155414   0.583   3.179  12.533 -0.3318 -0.9910 -0.1481
11333TIP3    H255415   0.685   3.137  12.636 -0.3538  0.5392  0.5130
11334TIP3   OH255416   6.190   1.374   3.927  0.1708  0.2541  0.0597
11334TIP3    H155417   6.267   1.368   3.871  0.2317  1.9402 -0.0692
11334TIP3    H255418   6.205   1.311   3.997  1.0554 -0.3642 -0.6863
11335TIP3   OH255419   6.322   4.323  12.359  0.1364 -0.0350  0.1831
11335TIP3    H155420   6.411   4.350  12.337  0.5972 -0.5235  1.3995
11335TIP3    H255421   6.272   4.405  12.365  0.3389  0.1984 -1.1563
11336TIP3   OH255422   2.977   2.020   5.305 -0.1636 -0.5826  0.3260
11336TIP3    H155423   3.020   2.036   5.221 -0.8905  0.1073  0.0804
11336TIP3    H255424   2.939   1.932   5.296  2.8153 -2.0171  1.2504
11337TIP3   OH255425   4.199   1.406  15.030  0.0968  0.1000  0.3199
11337TIP3    H155426   4.171   1.341  15.095  0.8179  0.0434  0.5758
11337TIP3    H255427   4.270   1.362  14.982 -1.0369 -0.2184 -1.1355
11338TIP3   OH255428   4.789   2.351   6.324  0.0624  0.1573 -0.0502
11338TIP3    H155429   4.697   2.373   6.335  0.3131  1.0262  0.3819
11338TIP3    H255430   4.789   2.259   6.297 -0.7853 -0.7677  2.9268
11339TIP3   OH255431   1.979   6.163  12.375  0.0018 -0.2564 -0.4235
11339TIP3    H155432   1.995   6.121  12.291 -0.5904 -0.7297 -0.3020
11339TIP3    H255433   2.062   6.154  12.423  0.5499  0.5890 -1.1975
11340TIP3   OH255434   3.597   5.137   4.494 -0.5762  0.2389  0.2218
11340TIP3    H155435   3.553   5.072   4.549  3.4402  0.0118  3.3678
11340TIP3    H255436   3.568   5.222   4.530 -1.2555  0.1518 -0.1059
11341TIP3   OH255437   1.350   6.219   6.397  0.4620  0.0656  0.1444
11341TIP3    H155438   1.276   6.270   6.429  0.7874  0.3877  0.3951
11341TIP3    H255439   1.328   6.199   6.306 -1.1336 -2.1096  0.9803
11342TIP3   OH255440   3.107   0.459   2.652  0.0454 -0.6598  0.2405
11342TIP3    H155441   3.046   0.439   2.581 -0.3342  0.0261  0.3748
11342TIP3    H255442   3.124   0.374   2.692 -0.3934 -0.9349 -0.1408
11343TIP3   OH255443   1.432   0.427  15.898  0.5805  0.0677  0.5783
11343TIP3    H155444   1.369   0.427  15.970  2.3194  0.4400  2.1439
11343TIP3    H255445   1.507   0.476  15.933  1.2579  0.6608 -1.6651
11344TIP3   OH255446   6.349   4.815  15.935 -0.2706 -0.5466 -0.3254
11344TIP3    H155447   6.276   4.757  15.957 -0.9208 -0.2532 -1.6807
11344TIP3    H255448   6.384   4.779  15.853 -0.2866  0.6077 -0.8453
11345TIP3   OH255449   0.518   4.055  12.092  0.4180 -0.4491  0.5405
11345TIP3    H155450   0.530   4.148  12.073  0.4478  0.1136  3.2030
11345TIP3    H255451   0.588   4.011  12.043  0.4786  0.9205 -0.6307
11346TIP3   OH255452   6.087   1.723   6.746 -0.3918 -0.4397 -0.1182
11346TIP3    H155453   6.077   1.639   6.700 -0.9810 -0.5290  0.1706
11346TIP3    H255454   6.004   1.768   6.734 -0.4182 -0.3029  0.5362
11347TIP3   OH255455   0.921   5.709  15.849  0.1550 -0.2713 -0.1088
11347TIP3    H155456   0.826   5.709  15.850  0.1294 -0.2257 -1.4102
11347TIP3    H255457   0.945   5.616  15.851  0.0381 -0.3457 -1.6229
11348TIP3   OH255458   2.334   4.528  10.448  0.1411  0.5681 -0.8182
11348TIP3    H155459   2.340   4.623  10.443 -0.0686  0.8030  2.2922
11348TIP3    H255460   2.423   4.499  10.468  0.0381  0.2022 -0.8894
11349TIP3   OH255461   0.313   5.092  13.094  0.1346  0.0432  0.2342
11349TIP3    H155462   0.235   5.070  13.043 -1.1268 -0.6311  2.3941
11349TIP3    H255463   0.380   5.031  13.063 -0.6839 -0.5045 -0.4691
11350TIP3   OH255464   4.071   5.228  14.562 -0.0434  0.1279 -0.4169
11350TIP3    H155465   4.063   5.158  14.627  0.4519  0.5093  0.0599
11350TIP3    H255466   3.989   5.276  14.568 -0.6806 -0.8347 -1.2457
11351TIP3   OH255467   6.043   5.439   2.350  0.0718  0.0715  0.9592
11351TIP3    H155468   6.024   5.353   2.388  0.6939  0.3026  1.8037
11351TIP3    H255469   6.066   5.420   2.259 -0.3712 -0.5962  0.9795
11352TIP3   OH255470   6.210   2.202  12.545 -0.5132 -0.1700 -0.3400
11352TIP3    H155471   6.224   2.243  12.631 -0.0450 -1.6379  0.2972
11352TIP3    H255472   6.287   2.228  12.494 -1.2414  1.4904 -0.6490
11353TIP3   OH255473   4.487   2.712   3.376  0.6668  0.3842 -0.0967
11353TIP3    H155474   4.502   2.690   3.468  1.3958 -0.3303 -0.3744
11353TIP3    H255475   4.575   2.721   3.338  0.4577 -2.4998 -1.4381
11354TIP3   OH255476   2.556   6.120   4.911 -0.1148 -0.5275  0.1874
11354TIP3    H155477   2.506   6.054   4.959  0.3333 -0.8854  0.1673
11354TIP3    H255478   2.645   6.087   4.911 -0.4891 -1.7560 -2.9584
11355TIP3   OH255479   1.914   2.597   4.130 -0.2251  0.3677 -1.1857
11355TIP3    H155480   1.844   2.616   4.192 -0.5189 -0.0079 -1.3954
11355TIP3    H255481   1.884   2.636   4.047  0.0500  0.6503 -1.1533
11356TIP3   OH255482   1.825   4.480  14.479 -0.1578  0.5253  0.0351
11356TIP3    H155483   1.805   4.536  14.554  1.9742  2.3446 -0.7071
11356TIP3    H255484   1.792   4.529  14.403 -1.5860 -0.9405 -0.3180
11357TIP3   OH255485   0.248   1.439   5.868  0.0717  0.8438 -0.0768
11357TIP3    H155486   0.275   1.361   5.916 -0.0199  0.7249 -0.2186
11357TIP3    H255487   0.204   1.494   5.933 -0.2431  0.5886 -0.0724
11358TIP3   OH255488   2.553   4.190   4.620  0.4192 -0.8633 -0.4950
11358TIP3    H155489   2.519   4.107   4.586 -1.3654 -0.0786 -0.7081
11358TIP3    H255490   2.554   4.248   4.543  0.1834 -0.2393 -0.0257
11359TIP3   OH255491   1.589   4.856  17.021 -0.3453 -0.4440 -0.1685
11359TIP3    H155492   1.633   4.772  17.029  0.5783  0.0600  0.2186
11359TIP3    H255493   1.573   4.867  16.927  0.0579 -0.7847 -0.2756
11360TIP3   OH255494   3.999   0.962   3.384 -0.7253 -0.1015 -0.2859
11360TIP3    H155495   4.059   1.033   3.405  0.9402 -1.6697  0.4447
11360TIP3    H255496   3.942   0.997   3.316 -0.3082  2.0965  0.4692
11361TIP3   OH255497   1.881   4.983  11.314 -0.6272  0.3320  0.2207
11361TIP3    H155498   1.790   4.991  11.284 -0.6079 -1.1553 -0.2855
11361TIP3    H255499   1.931   5.036  11.253 -1.0419  0.3858 -0.0769
11362TIP3   OH255500   0.306   5.119  13.815  0.7711 -0.3152 -0.1390
11362TIP3    H155501   0.376   5.182  13.802  1.1010 -0.4836  0.7846
11362TIP3    H255502   0.324   5.079  13.900 -0.9018  0.2360  0.4983
11363TIP3   OH255503   2.641   0.800  15.645  0.4106  1.0991  0.1083
11363TIP3    H155504   2.731   0.776  15.625  0.2739  0.4681  0.2066
11363TIP3    H255505   2.620   0.751  15.725 -0.6934 -0.4693 -1.0849
11364TIP3   OH255506   2.549   6.682  13.515 -0.1613 -0.3522  1.1225
11364TIP3    H155507   2.588   6.770  13.513  1.1319 -0.9458 -1.9888
11364TIP3    H255508   2.460   6.696  13.549 -0.8540  2.5563 -1.6396
11365TIP3   OH255509   5.977   2.005  15.650 -0.2470 -0.2433 -0.1309
11365TIP3    H155510   6.030   2.010  15.571  0.6000  0.8630  0.4898
11365TIP3    H255511   5.928   1.923  15.641  0.8888 -0.8306 -1.1474
11366TIP3   OH255512   2.246   6.475   2.576 -0.3011  0.6165  0.2733
11366TIP3    H155513   2.264   6.390   2.615  0.7169  1.4739  1.7200
11366TIP3    H255514   2.161   6.464   2.532  0.4397 -1.4763 -0.6555
11367TIP3   OH255515   3.488   5.956  13.417 -0.0881 -0.3553  0.6032
11367TIP3    H155516   3.394   5.962  13.430 -0.1301 -0.5824  0.3984
11367TIP3    H255517   3.506   5.862  13.411  0.0127 -0.2810 -0.3979
11368TIP3   OH255518   1.502   4.054   4.905  0.4541  0.6435  0.2228
11368TIP3    H155519   1.467   4.116   4.969 -1.0715 -0.4264  0.4575
11368TIP3    H255520   1.580   4.019   4.947  1.4482  2.5346  0.0031
11369TIP3   OH255521   5.677   3.863   1.272  0.1878 -0.5372 -0.0767
11369TIP3    H155522   5.770   3.838   1.271  0.6343  1.0629 -0.3551
11369TIP3    H255523   5.663   3.904   1.186 -0.5831 -0.1078  0.2575
11370TIP3   OH255524   3.386   0.159  11.910  0.0319  0.3464 -0.5767
11370TIP3    H155525   3.364   0.210  11.833 -0.6639  0.0900 -0.5506
11370TIP3    H255526   3.333   0.197  11.980 -1.3167 -1.0926 -0.7867
11371TIP3   OH255527   3.066   3.012   0.061 -0.1842  0.3920  0.4203
11371TIP3    H155528   3.019   3.018   0.143 -2.3593  0.2522 -0.7905
11371TIP3    H255529   3.079   3.102   0.033 -0.9764  0.3955  0.0618
11372TIP3   OH255530   0.399   1.850   0.891  0.6269  0.6021  0.2953
11372TIP3    H155531   0.423   1.910   0.821  2.1445  0.0678  0.3363
11372TIP3    H255532   0.354   1.904   0.956  0.6230  1.3934 -0.3644
11373TIP3   OH255533   4.098   4.879  14.672 -0.1468  0.5275 -0.0270
11373TIP3    H155534   4.128   4.884  14.582 -1.8124  1.6168 -0.5265
11373TIP3    H255535   4.082   4.786  14.687  0.9904  0.2316 -0.5385
11374TIP3   OH255536   6.161   5.338   3.087  0.4477  0.0678 -0.1311
11374TIP3    H155537   6.075   5.352   3.046  0.9284  0.4424 -1.0193
11374TIP3    H255538   6.184   5.423   3.125  0.1985 -0.1663  0.5513
11375TIP3   OH255539   1.440   3.178   5.875  0.1448 -0.0193 -0.2838
11375TIP3    H155540   1.410   3.086   5.874 -0.4518  0.1612  0.1411
11375TIP3    H255541   1.362   3.228   5.851  0.4013  0.3913 -0.2561
11376TIP3   OH255542   4.497   4.151  16.760  0.0837 -0.2658  0.0972
11376TIP3    H155543   4.554   4.076  16.777  1.8402  1.1660  0.6631
11376TIP3    H255544   4.535   4.222  16.812 -1.1877  1.1892 -0.9317
11377TIP3   OH255545   0.372   4.509   5.969 -0.1009 -0.3050 -0.2196
11377TIP3    H155546   0.285   4.549   5.971 -0.3961 -0.8042 -2.3092
11377TIP3    H255547   0.403   4.516   6.059 -1.8045  0.9754  0.3006
11378TIP3   OH255548   2.729   6.277   2.643 -0.2250 -0.2217  0.1020
11378TIP3    H155549   2.794   6.332   2.600 -0.4105  0.7620  1.0775
11378TIP3    H255550   2.664   6.338   2.679 -1.0436 -1.1234  0.2013
11379TIP3   OH255551   2.111   5.755   1.574  0.2526 -0.4905  0.2165
11379TIP3    H155552   2.102   5.850   1.571  0.5707 -0.4973 -1.4386
11379TIP3    H255553   2.172   5.739   1.646 -1.1038  0.4413  1.5959
11380TIP3   OH255554   0.591   4.069   0.307 -0.4030  0.0895  0.0448
11380TIP3    H155555   0.618   4.156   0.336 -0.4277 -0.0092  0.3691
11380TIP3    H255556   0.673   4.028   0.277 -0.1503 -0.2793  1.2154
11381TIP3   OH255557   0.546   4.111  13.173  1.5146 -0.2994 -0.9578
11381TIP3    H155558   0.501   4.170  13.111 -1.0538 -0.3505  0.7668
11381TIP3    H255559   0.536   4.154  13.258  0.8468 -2.4912  0.1212
11382TIP3   OH255560   0.884   3.707   5.023 -0.4254  0.7798 -0.0302
11382TIP3    H155561   0.837   3.767   5.081 -2.1638 -0.9503  0.4384
11382TIP3    H255562   0.941   3.657   5.081 -1.7590 -0.5700  0.1753
11383TIP3   OH255563   6.787   3.526  16.597  0.0126 -0.5021  0.0306
11383TIP3    H155564   6.790   3.570  16.512 -1.2768 -1.4182 -0.5117
11383TIP3    H255565   6.811   3.435  16.577 -0.5626 -0.7805  0.5940
11384TIP3   OH255566   3.450   6.012   4.402  0.2242  0.2984  0.0097
11384TIP3    H155567   3.480   5.935   4.451  3.0068  1.6153  0.4651
11384TIP3    H255568   3.390   6.056   4.462  0.1466 -0.4558  0.4971
11385TIP3   OH255569   1.550   0.329   1.741 -0.2979 -0.0196  0.0956
11385TIP3    H155570   1.484   0.397   1.755 -0.4365 -0.0872 -0.2294
11385TIP3    H255571   1.525   0.259   1.801 -0.8446 -0.2753 -0.4248
11386TIP3   OH255572   6.298   1.698  15.606  0.1364 -0.2821  0.2591
11386TIP3    H155573   6.313   1.727  15.696  2.1855 -0.0008 -0.1596
11386TIP3    H255574   6.287   1.603  15.612 -0.2099 -0.2055  0.8512
11387TIP3   OH255575   5.476   1.876  13.711 -0.0763  0.1177 -0.1995
11387TIP3    H155576   5.559   1.837  13.684 -0.4547 -0.7594 -0.0795
11387TIP3    H255577   5.484   1.968  13.685  1.6037  0.4165  1.3262
11388TIP3   OH255578   4.195   3.710   4.030  0.5161 -0.1494 -0.1325
11388TIP3    H155579   4.128   3.657   4.074  0.9911  0.3757  1.2606
11388TIP3    H255580   4.189   3.796   4.071  0.5845  0.5298 -1.5217
11389TIP3   OH255581   1.830   4.218  10.565  0.4912  0.0511  0.1018
11389TIP3    H155582   1.737   4.223  10.546  1.0044 -2.0830 -3.5419
11389TIP3    H255583   1.837   4.153  10.635 -0.7318 -0.3920 -0.1767
11390TIP3   OH255584   6.618   6.168   4.117 -0.4116  0.9553  0.4579
11390TIP3    H155585   6.587   6.250   4.079  1.3335  1.8195  0.8466
11390TIP3    H255586   6.704   6.189   4.153 -0.7191 -0.5789  2.2089
11391TIP3   OH255587   3.856   2.145  13.594 -0.1463  0.1319  0.4758
11391TIP3    H155588   3.941   2.103  13.600 -0.5894 -0.7994  0.3463
11391TIP3    H255589   3.793   2.074  13.608 -0.9129  0.6868 -0.1077
11392TIP3   OH255590   2.842   5.086  12.069  0.0096  0.5386 -0.0819
11392TIP3    H155591   2.935   5.069  12.054 -0.1002  1.1963 -1.5643
11392TIP3    H255592   2.826   5.171  12.029 -0.6055  1.8120  2.6940
11393TIP3   OH255593   1.594   3.831  13.793  0.2118 -0.0950 -0.1219
11393TIP3    H155594   1.651   3.755  13.805  0.5074  0.3843  1.6205
11393TIP3    H255595   1.628   3.896  13.854 -0.3512  1.2760 -1.2284
11394TIP3   OH255596   1.104   2.736  16.061  0.9277 -0.1007  0.2718
11394TIP3    H155597   1.172   2.775  16.116  1.0615 -2.2988  1.7305
11394TIP3    H255598   1.071   2.662  16.112 -1.2692 -0.1986 -1.2144
11395TIP3   OH255599   1.220   4.129  12.946  0.4161  0.8070  0.4119
11395TIP3    H155600   1.202   4.159  12.857  0.9793 -1.0669 -0.3706
11395TIP3    H255601   1.314   4.144  12.958  0.4052  0.7561  0.5604
11396TIP3   OH255602   4.819   4.337   4.273 -0.0408 -0.4016  0.2495
11396TIP3    H155603   4.874   4.414   4.278  1.4881 -1.4115 -0.5410
11396TIP3    H255604   4.787   4.336   4.183 -0.0114 -0.7179  0.2402
11397TIP3   OH255605   1.536   1.736   0.343  0.3932 -0.1133  0.3017
11397TIP3    H155606   1.535   1.746   0.248 -0.1046 -2.1886  0.0478
11397TIP3    H255607   1.618   1.776   0.371  0.2711  1.0309 -0.9252
11398TIP3   OH255608   1.567   0.118  11.157 -0.1491 -0.2814  0.8863
11398TIP3    H155609   1.523   0.162  11.229 -1.5160 -0.5350  0.2126
11398TIP3    H255610   1.613   0.189  11.110  1.3318 -0.2111  2.3853
11399TIP3   OH255611   5.422   0.551  12.621  0.3929 -0.2802 -0.6106
11399TIP3    H155612   5.386   0.542  12.709  0.6821  0.6596 -0.3892
11399TIP3    H255613   5.346   0.569  12.565  0.4273  1.1210 -0.2332
11400TIP3   OH255614   1.406   5.991   1.911 -0.3284 -0.0482 -0.2654
11400TIP3    H155615   1.342   6.014   1.844 -0.1829 -0.1329 -0.4331
11400TIP3    H255616   1.356   5.943   1.977 -0.1133 -1.6022 -1.2068
11401TIP3   OH255617   5.272   0.541  16.833  0.2875  0.0131 -0.3429
11401TIP3    H155618   5.366   0.526  16.834  0.5432  1.6041  1.7396
11401TIP3    H255619   5.235   0.458  16.863  1.1224 -0.0885  0.4368
11402TIP3   OH255620   5.549   4.179   2.799  0.2046 -0.3075  0.2156
11402TIP3    H155621   5.593   4.213   2.877 -0.7709  0.2211  0.5570
11402TIP3    H255622   5.457   4.170   2.826  0.0386 -1.0455 -0.5788
11403TIP3   OH255623   3.706   4.564  12.440  0.3002  0.5016 -0.1611
11403TIP3    H155624   3.764   4.606  12.376  0.1296  1.8896  0.5818
11403TIP3    H255625   3.757   4.561  12.521  0.3256 -0.7909 -0.2060
11404TIP3   OH255626   4.673   1.470  15.984  0.3643 -0.0138 -0.3732
11404TIP3    H155627   4.728   1.440  16.057  1.6529  2.3771 -0.3296
11404TIP3    H255628   4.677   1.398  15.921 -0.6642 -2.0767  1.7991
11405TIP3   OH255629   2.364   6.015  12.742  0.2205  0.1818  0.6415
11405TIP3    H155630   2.435   6.050  12.796  0.3446  3.1282 -1.2971
11405TIP3    H255631   2.396   5.930  12.713  2.0771  0.5591  1.5164
11406TIP3   OH255632   1.352   6.003  15.805  0.0183  0.0479 -0.3942
11406TIP3    H155633   1.310   6.086  15.827 -0.0940 -0.2676  0.5794
11406TIP3    H255634   1.435   6.029  15.764  1.3154  0.6284  2.4967
11407TIP3   OH255635   5.099   4.489  16.052  0.5756 -0.0695  0.5335
11407TIP3    H155636   5.118   4.577  16.083  0.2975 -0.0343  0.6080
11407TIP3    H255637   5.058   4.502  15.966  2.5310 -0.2186 -0.4465
11408TIP3   OH255638   2.126   1.979  14.424  0.2540  0.8174 -0.1502
11408TIP3    H155639   2.055   1.928  14.384  0.3860  0.6698 -0.1989
11408TIP3    H255640   2.084   2.030  14.493  0.4893 -1.0149  1.3672
11409TIP3   OH255641   4.408   2.929  11.861 -0.1820  0.1442  0.1646
11409TIP3    H155642   4.464   2.855  11.837 -0.6890 -0.5938  1.2169
11409TIP3    H255643   4.319   2.895  11.854 -0.4978  1.1895 -1.0920
11410TIP3   OH255644   2.391   1.045   4.879 -0.0192  0.2144  0.1514
11410TIP3    H155645   2.412   1.139   4.876 -0.9132  0.3937 -1.0564
11410TIP3    H255646   2.325   1.034   4.811  0.4500 -1.3953 -0.0523
11411TIP3   OH255647   2.997   1.538  15.838  0.1491 -0.3440  0.4729
11411TIP3    H155648   3.025   1.540  15.747 -0.2925  0.9611  0.3572
11411TIP3    H255649   3.046   1.465  15.877  2.3447  0.7729 -0.1328
11412TIP3   OH255650   1.207   4.410   5.199 -0.7439 -0.4075 -0.0746
11412TIP3    H155651   1.131   4.428   5.144 -0.1178  0.5890 -0.6279
11412TIP3    H255652   1.188   4.453   5.282 -0.8929 -0.3530 -0.1376
11413TIP3   OH255653   1.571   2.106   5.146 -0.5078  0.0028 -0.1114
11413TIP3    H155654   1.598   2.097   5.237  2.0984 -0.0970 -0.8704
11413TIP3    H255655   1.481   2.072   5.145 -0.8978  0.8206  2.5664
11414TIP3   OH255656   2.276   0.201  15.904  0.1175  0.1605  0.7249
11414TIP3    H155657   2.212   0.130  15.902 -1.0770  1.2213  0.6561
11414TIP3    H255658   2.253   0.257  15.829  0.0456  1.4701  1.6951
11415TIP3   OH255659   5.360   1.410  16.538  0.3794  0.2559  0.3882
11415TIP3    H155660   5.285   1.455  16.576  0.0089  0.7213 -0.8779
11415TIP3    H255661   5.367   1.445  16.449  0.9370 -1.1699 -0.1480
11416TIP3   OH255662   0.390   1.964  12.102 -0.2289 -0.1221 -0.0502
11416TIP3    H155663   0.386   2.059  12.114 -2.2329 -0.3793  1.6751
11416TIP3    H255664   0.417   1.930  12.188 -0.2736 -1.1575 -0.4378
11417TIP3   OH255665   6.748   6.109  11.350 -0.3055 -0.1005  0.1713
11417TIP3    H155666   6.713   6.121  11.438 -1.1720 -2.5124  0.2184
11417TIP3    H255667   6.683   6.052  11.307  1.0594 -0.5128 -1.3938
11418TIP3   OH255668   3.389   4.288  12.036 -0.2605 -0.2275  0.2146
11418TIP3    H155669   3.383   4.359  12.100 -2.0682  0.0584 -0.2380
11418TIP3    H255670   3.375   4.208  12.087  0.3886 -0.1560  0.5059
11419TIP3   OH255671   1.190   6.308  15.593  1.2396 -0.5421 -0.2285
11419TIP3    H155672   1.179   6.403  15.599 -0.6238 -0.8097  1.0634
11419TIP3    H255673   1.163   6.285  15.504  2.7636  0.2512 -0.9154
11420TIP3   OH255674   4.325   3.087   3.883 -0.3121  0.5942  0.1209
11420TIP3    H155675   4.377   3.041   3.818 -0.3742 -1.6872  1.6232
11420TIP3    H255676   4.330   3.179   3.857 -0.6708 -0.2820 -3.3209
11421TIP3   OH255677   1.782   2.510  12.977  0.5005  0.2019  0.5100
11421TIP3    H155678   1.783   2.520  12.882  3.9137  0.0610  0.4755
11421TIP3    H255679   1.701   2.552  13.005 -1.1007 -0.7311 -2.5479
11422TIP3   OH255680   5.554   5.478   4.285 -0.0797  0.0174 -0.2032
11422TIP3    H155681   5.587   5.567   4.271 -0.5730  0.1157 -0.7707
11422TIP3    H255682   5.544   5.442   4.197 -0.6109 -0.3276 -0.0054
11423TIP3   OH255683   3.592   2.312  14.893  0.2290 -0.7271  0.0276
11423TIP3    H155684   3.667   2.300  14.951 -0.2096 -0.2599  0.7010
11423TIP3    H255685   3.630   2.330  14.807  0.8821 -0.2350  0.4178
11424TIP3   OH255686   2.491   4.999   3.621 -0.4275  0.2538 -0.2590
11424TIP3    H155687   2.406   4.967   3.589 -0.8923 -1.1425  2.2439
11424TIP3    H255688   2.473   5.027   3.711  1.6672  0.4044  0.1225
11425TIP3   OH255689   6.032   5.344  16.388 -1.0128 -0.2694  0.3501
11425TIP3    H155690   6.074   5.429  16.374 -1.4484  0.0075  0.7324
11425TIP3    H255691   5.942   5.356  16.358 -0.2256 -1.5436 -2.7319
11426TIP3   OH255692   5.768   1.519   6.254  0.6378  0.2262  0.1529
11426TIP3    H155693   5.716   1.441   6.235  1.8974 -0.8964  1.2055
11426TIP3    H255694   5.758   1.533   6.348 -0.8479  2.2825 -0.3004
11427TIP3   OH255695   3.991   5.523   0.170  0.0490  0.6467 -0.5233
11427TIP3    H155696   4.013   5.432   0.148 -1.7977 -0.4849  1.9567
11427TIP3    H255697   4.075   5.567   0.180  1.0755 -1.6094  1.2612
11428TIP3   OH255698   5.098   5.194  15.929 -0.2428 -0.0660 -0.0664
11428TIP3    H155699   5.083   5.165  16.019  0.7120  2.1873  0.8514
11428TIP3    H255700   5.182   5.154  15.905 -0.4291 -0.5550  0.0906
11429TIP3   OH255701   3.628   4.298   1.307  0.1777 -0.5973  0.3726
11429TIP3    H155702   3.702   4.352   1.335  0.6761 -1.5521  0.9094
11429TIP3    H255703   3.582   4.276   1.388  0.5659 -1.8349  0.2640
11430TIP3   OH255704   0.834   3.896   5.648  0.4733 -0.2599 -0.0434
11430TIP3    H155705   0.814   3.803   5.658  0.8408 -0.2560  0.8018
11430TIP3    H255706   0.750   3.940   5.664  0.5812 -0.3819  0.9226
11431TIP3   OH255707   1.162   6.387   6.368 -0.4068 -0.1527  0.1257
11431TIP3    H155708   1.160   6.450   6.440  3.4402  1.1455 -0.7745
11431TIP3    H255709   1.080   6.402   6.321 -0.6569  2.5369  1.2909
11432TIP3   OH255710   1.800   1.951  13.304  0.0656  0.1386  0.5590
11432TIP3    H155711   1.762   1.863  13.305 -1.9576  0.9815 -0.4434
11432TIP3    H255712   1.791   1.981  13.394  2.5403 -1.3650  1.3869
11433TIP3   OH255713   4.001   5.103  16.463 -0.4749 -0.5277 -0.0310
11433TIP3    H155714   3.965   5.124  16.377 -0.3639 -1.8655 -0.4256
11433TIP3    H255715   3.971   5.013  16.480  1.0170 -0.9409  0.5126
11434TIP3   OH255716   0.461   5.559  11.018 -0.0500 -0.0513  0.2194
11434TIP3    H155717   0.498   5.558  10.930  1.0426 -1.2348  0.6856
11434TIP3    H255718   0.427   5.648  11.029 -2.3652 -0.5543 -2.2832
11435TIP3   OH255719   4.172   4.682  15.795 -0.2748  0.5964 -0.3425
11435TIP3    H155720   4.251   4.646  15.836 -0.2434  1.0879  0.0343
11435TIP3    H255721   4.112   4.607  15.790  1.2513 -0.4984 -3.3516
11436TIP3   OH255722   6.438   0.612   5.666  0.2944 -0.0829  0.6561
11436TIP3    H155723   6.490   0.539   5.701  0.0892 -0.2249  0.6667
11436TIP3    H255724   6.357   0.571   5.635 -0.2147  0.2736  1.5133
11437TIP3   OH255725   6.272   3.696   3.562  0.1410 -0.2149  0.4713
11437TIP3    H155726   6.308   3.745   3.635  0.1322 -0.4357  0.6251
11437TIP3    H255727   6.299   3.745   3.484  0.6088 -0.2706  0.5935
11438TIP3   OH255728   4.115   3.568  13.642  0.4621  0.1438  0.3693
11438TIP3    H155729   4.172   3.579  13.718  1.9665 -0.9401 -0.5782
11438TIP3    H255730   4.145   3.633  13.579 -0.4770  0.7253  0.5112
11439TIP3   OH255731   0.110   1.737   5.325 -0.0649 -0.7448  0.0631
11439TIP3    H155732   0.075   1.658   5.366 -0.9485 -1.2564 -1.6033
11439TIP3    H255733   0.062   1.744   5.242  2.1069 -0.1114 -1.1739
11440TIP3   OH255734   5.274   0.336   5.833 -0.2442  0.0724  0.5755
11440TIP3    H155735   5.336   0.266   5.852 -0.3586 -0.4629 -0.9287
11440TIP3    H255736   5.328   0.413   5.816 -0.0389 -0.1124  0.3951
11441TIP3   OH255737   0.058   0.656   5.836  0.3231  0.0103 -0.3663
11441TIP3    H155738   0.133   0.653   5.895  0.7084 -1.2647 -0.9018
11441TIP3    H255739   0.021   0.568   5.839 -0.2412  0.2070 -1.2780
11442TIP3   OH255740   3.844   1.232  12.746  0.3561 -0.3778  0.2382
11442TIP3    H155741   3.862   1.155  12.692 -2.7553 -0.3395 -0.9872
11442TIP3    H255742   3.790   1.199  12.818 -1.3865  0.6512 -0.5427
11443TIP3   OH255743   1.624   2.238   0.972 -0.6440 -0.5122 -0.1824
11443TIP3    H155744   1.690   2.307   0.960  1.0667 -2.1280 -0.1911
11443TIP3    H255745   1.549   2.268   0.920  0.3260  1.0178 -0.7360
11444TIP3   OH255746   6.535   5.460  12.185  0.0788 -0.1103  0.1305
11444TIP3    H155747   6.555   5.474  12.278 -1.7447  1.4019  0.3324
11444TIP3    H255748   6.447   5.423  12.184  0.2446 -0.4921 -0.9799
11445TIP3   OH255749   0.551   3.098   5.877 -0.1525  0.0202 -0.4959
11445TIP3    H155750   0.483   3.074   5.814  0.0573 -2.8553  0.3281
11445TIP3    H255751   0.546   3.032   5.945  2.8281  0.3000  0.0770
11446TIP3   OH255752   6.774   6.109  11.971  0.6393  0.2405 -0.1591
11446TIP3    H155753   6.736   6.022  11.958  3.3171 -0.9614 -0.4129
11446TIP3    H255754   6.699   6.167  11.983 -1.2377 -1.9372 -0.9929
11447TIP3   OH255755   5.264   1.273  16.974  0.3915 -0.0078 -0.4705
11447TIP3    H155756   5.331   1.312  16.919  0.8461 -0.1401 -0.0210
11447TIP3    H255757   5.308   1.198  17.016  0.0503  0.0754  0.0491
11448TIP3   OH255758   5.245   5.377  11.164 -0.3849  0.8262 -0.2262
11448TIP3    H155759   5.220   5.410  11.250  0.2521  1.5876 -0.3190
11448TIP3    H255760   5.198   5.434  11.103  0.1961  1.1367 -0.3875
11449TIP3   OH255761   3.952   5.555  11.828 -0.3123  0.5257  0.4273
11449TIP3    H155762   3.951   5.641  11.869 -0.7121  0.3248  0.8402
11449TIP3    H255763   3.874   5.554  11.772 -0.6249  0.2148  0.8706
11450TIP3   OH255764   0.593   5.425   4.942  0.5993  0.3359  0.0777
11450TIP3    H155765   0.654   5.398   5.010 -0.7244  1.0132  1.5576
11450TIP3    H255766   0.524   5.473   4.988  0.0445  1.4288 -1.8171
11451TIP3   OH255767   0.756   3.691  16.624 -0.2564  0.2763  0.0232
11451TIP3    H155768   0.780   3.721  16.711  0.2256  0.1736 -0.0718
11451TIP3    H255769   0.838   3.692  16.574 -0.8411  2.1844 -0.9837
11452TIP3   OH255770   2.717   3.740   1.971 -0.4799  0.4617  0.0351
11452TIP3    H155771   2.638   3.700   1.936 -0.6836  0.4201  0.5394
11452TIP3    H255772   2.742   3.684   2.045  0.3215  0.1674 -0.4528
11453TIP3   OH255773   4.298   2.616   3.237 -0.7451 -0.2230  0.5851
11453TIP3    H155774   4.289   2.527   3.272  1.3969 -1.2142 -1.2803
11453TIP3    H255775   4.379   2.649   3.276  0.0836 -0.2425 -1.0888
11454TIP3   OH255776   3.986   2.779   1.369  0.1365  0.2125  0.0301
11454TIP3    H155777   4.071   2.823   1.370 -0.0099  0.4809  1.1653
11454TIP3    H255778   4.007   2.686   1.358  0.5038  0.4130 -1.0610
11455TIP3   OH255779   2.447   5.326   2.766  0.3819 -0.5444  0.3983
11455TIP3    H155780   2.429   5.239   2.801 -1.8204 -1.0171 -1.8134
11455TIP3    H255781   2.492   5.310   2.683  1.6771  0.4866  0.8746
11456TIP3   OH255782   4.558   2.820  13.539 -0.7931  0.1282 -0.3724
11456TIP3    H155783   4.536   2.829  13.632  0.1905  2.6905 -0.3498
11456TIP3    H255784   4.488   2.766  13.503 -1.0384 -1.1483  1.9160
11457TIP3   OH255785   1.797   6.609   5.158 -0.7002 -0.5102 -0.0659
11457TIP3    H155786   1.714   6.569   5.130 -0.5586 -0.5696 -0.4032
11457TIP3    H255787   1.790   6.700   5.127 -1.8443  0.2738  2.3737
11458TIP3   OH255788   6.200   5.129   0.375  0.0131 -0.0652  0.0757
11458TIP3    H155789   6.129   5.098   0.431  0.6507  0.0643  0.9653
11458TIP3    H255790   6.193   5.224   0.376 -0.2904 -0.0797 -0.4844
11459TIP3   OH255791   6.355   3.145   5.877 -0.9683 -0.1995  0.3137
11459TIP3    H155792   6.300   3.067   5.882 -1.3809  0.1096  0.5246
11459TIP3    H255793   6.350   3.185   5.964  0.3388 -0.6842  0.6251
11460TIP3   OH255794   5.187   0.604   5.138  0.4320 -0.4508  0.3404
11460TIP3    H155795   5.215   0.541   5.205  0.8427 -0.1153  0.4892
11460TIP3    H255796   5.260   0.665   5.131 -0.4796  0.7620  1.1170
11461TIP3   OH255797   4.951   5.418  13.744 -0.5590 -0.4020  0.5716
11461TIP3    H155798   5.010   5.343  13.732 -0.9475 -0.2317 -2.9492
11461TIP3    H255799   4.878   5.400  13.684 -1.4903  1.9617  0.9604
11462TIP3   OH255800   5.506   0.740   4.834  0.1013 -0.2322 -0.7652
11462TIP3    H155801   5.520   0.664   4.891  1.1168  0.4786 -0.0650
11462TIP3    H255802   5.590   0.755   4.792  0.0892  0.9245 -0.3881
11463TIP3   OH255803   4.851   5.859  13.262  0.2139 -0.4253  0.3265
11463TIP3    H155804   4.794   5.921  13.215  1.2017 -0.5968 -1.1456
11463TIP3    H255805   4.936   5.869  13.219  0.7101 -1.8434  0.9820
11464TIP3   OH255806   0.013   2.435  10.877  0.2447  0.3531 -0.4004
11464TIP3    H155807  -0.075   2.426  10.839  0.1786 -1.0240  0.0421
11464TIP3    H255808   0.066   2.470  10.806 -0.7476  1.5550 -0.5604
11465TIP3   OH255809   6.592   5.189   3.056 -0.0212 -0.2564 -0.9879
11465TIP3    H155810   6.502   5.190   3.087  0.5465  4.1199  0.8033
11465TIP3    H255811   6.638   5.130   3.117 -0.9312  0.3854  0.3164
11466TIP3   OH255812   4.044   5.075  12.689  0.4885  0.1682 -0.3252
11466TIP3    H155813   4.084   5.053  12.605  0.3559 -1.8485  0.0997
11466TIP3    H255814   4.113   5.057  12.754 -0.3383 -1.1347  0.2199
11467TIP3   OH255815   2.452   5.735  14.559  0.8375  0.9487 -0.0729
11467TIP3    H155816   2.416   5.824  14.566 -1.1021  0.1846  0.0280
11467TIP3    H255817   2.387   5.687  14.507  2.1582 -0.2741 -0.6447
11468TIP3   OH255818   4.507   5.092   2.572  0.0179 -0.5031  0.0767
11468TIP3    H155819   4.554   5.114   2.491  0.7739 -2.3445 -0.0159
11468TIP3    H255820   4.417   5.076   2.543 -0.2766  1.2516 -0.0212
11469TIP3   OH255821   0.229   5.264  14.344 -0.4045  0.0856 -0.0847
11469TIP3    H155822   0.143   5.223  14.337  0.0519 -1.4536  2.5926
11469TIP3    H255823   0.224   5.318  14.423  1.4563 -1.0211  0.8270
11470TIP3   OH255824   3.196   2.233   3.371  0.0048  0.4069  0.3003
11470TIP3    H155825   3.171   2.141   3.382 -1.3483  0.8542  0.9754
11470TIP3    H255826   3.246   2.253   3.451 -0.7997  0.6307  0.7453
11471TIP3   OH255827   4.936   5.414   4.860  0.4335 -0.0030 -0.0782
11471TIP3    H155828   4.969   5.476   4.924 -0.5553  1.5153 -1.0025
11471TIP3    H255829   4.880   5.355   4.910 -0.5700  1.3476  0.4108
11472TIP3   OH255830   0.426   3.359  13.653  0.3607  0.3692 -0.1748
11472TIP3    H155831   0.488   3.335  13.584 -0.2711  0.8019 -0.9020
11472TIP3    H255832   0.350   3.392  13.606 -1.0350 -1.5739  0.6536
11473TIP3   OH255833   1.836   0.820  12.091  0.1781  0.3679  0.0775
11473TIP3    H155834   1.899   0.752  12.116 -0.4667  0.0261  0.7961
11473TIP3    H255835   1.880   0.870  12.022 -0.2349 -2.2832 -2.2124
11474TIP3   OH255836   2.310   0.467   2.527 -0.0691  0.3371 -0.0058
11474TIP3    H155837   2.364   0.501   2.455  1.1403  1.3385  1.3352
11474TIP3    H255838   2.233   0.429   2.484 -0.1501  2.3612 -1.7454
11475TIP3   OH255839   0.749   4.227   5.249 -0.1498  0.4517 -0.4765
11475TIP3    H155840   0.818   4.256   5.189  2.1247 -0.6073  1.5270
11475TIP3    H255841   0.756   4.131   5.249 -1.2027  0.3660  0.2681
11476TIP3   OH255842   2.304   0.291   4.291  0.0982 -0.0526 -0.4553
11476TIP3    H155843   2.278   0.219   4.349  1.1695 -0.1535 -0.0766
11476TIP3    H255844   2.349   0.247   4.219 -2.8948 -0.0901 -2.3771
11477TIP3   OH255845   2.661   4.537   5.195  0.4242 -0.4624 -0.3893
11477TIP3    H155846   2.573   4.500   5.206 -0.0045  0.5926 -0.2360
11477TIP3    H255847   2.700   4.533   5.282 -0.2030  0.8838 -0.0268
11478TIP3   OH255848   3.982   3.649  11.086 -0.0109  0.2907 -0.2754
11478TIP3    H155849   3.895   3.610  11.095 -0.3011  1.4490  2.2743
11478TIP3    H255850   3.966   3.733  11.043 -0.0662  0.1454 -0.5375
11479TIP3   OH255851   5.929   4.207   1.332  0.3677 -0.5976 -0.1421
11479TIP3    H155852   5.960   4.122   1.362  0.4308 -0.8382 -0.8868
11479TIP3    H255853   6.005   4.247   1.290  0.2980 -0.2314  0.0729
11480TIP3   OH255854   5.649   5.927   5.579 -0.2200  0.4731  0.2526
11480TIP3    H155855   5.736   5.954   5.548  0.4895 -1.2657  0.6831
11480TIP3    H255856   5.650   5.946   5.673 -0.9708  2.1397 -0.0680
11481TIP3   OH255857   0.983   3.488  11.232  0.4082 -0.0453 -0.0043
11481TIP3    H155858   0.893   3.518  11.242  0.2038 -1.0628  1.3525
11481TIP3    H255859   0.984   3.441  11.149  0.3895  2.4002 -1.4429
11482TIP3   OH255860   5.121   6.114  14.504 -0.6214 -0.2431  0.4812
11482TIP3    H155861   5.211   6.104  14.474 -0.8443 -2.9581  0.5656
11482TIP3    H255862   5.127   6.168  14.583  0.9535 -0.6068  0.6240
11483TIP3   OH255863   2.854   5.218  15.079  0.0580  0.2894  0.8707
11483TIP3    H155864   2.891   5.275  15.011 -1.5118  1.1042  0.6801
11483TIP3    H255865   2.864   5.130  15.043 -0.3638  0.6840 -0.2510
11484TIP3   OH255866   2.564   5.050   1.306 -0.5978  0.1384 -0.3990
11484TIP3    H155867   2.626   5.029   1.237 -0.3952  1.4299 -0.6084
11484TIP3    H255868   2.548   4.966   1.350  0.2049 -0.4526 -1.2275
11485TIP3   OH255869   4.204   1.708  13.722 -0.2103 -0.4747  0.4125
11485TIP3    H155870   4.227   1.798  13.744  3.1285 -1.4907  1.3878
11485TIP3    H255871   4.219   1.702  13.627  0.7945 -0.2865  0.5447
11486TIP3   OH255872   6.743   0.023  13.065  0.3515  0.6507  0.2223
11486TIP3    H155873   6.783  -0.010  13.145 -0.0416  2.8391  1.3417
11486TIP3    H255874   6.675  -0.041  13.044 -0.8751  1.1058  2.7498
11487TIP3   OH255875   6.494   5.795  13.702  0.1356  0.0127 -0.1222
11487TIP3    H155876   6.488   5.707  13.739 -0.7201 -0.4383 -1.3063
11487TIP3    H255877   6.403   5.824  13.696  0.3788  0.7488 -0.2811
11488TIP3   OH255878   1.252   1.479  17.081  0.2977 -0.1281  0.0137
11488TIP3    H155879   1.285   1.487  16.992 -0.4760 -1.1057 -0.3722
11488TIP3    H255880   1.196   1.401  17.079 -0.2627  0.2328  1.1871
11489TIP3   OH255881   1.924   4.043   2.578 -0.1809 -0.2570  0.4045
11489TIP3    H155882   1.833   4.036   2.551  0.3343 -0.4055 -1.3143
11489TIP3    H255883   1.930   4.129   2.619 -0.5585  0.7444 -1.5934
11490TIP3   OH255884   3.575   0.522  13.528 -0.3892  0.1833 -0.2869
11490TIP3    H155885   3.519   0.532  13.604 -0.5524  1.3880 -0.5560
11490TIP3    H255886   3.535   0.579  13.461  1.0960  0.9906 -0.5013
11491TIP3   OH255887   2.854   1.576   2.903  0.2074 -0.4901 -0.5111
11491TIP3    H155888   2.806   1.529   2.971  0.5580 -1.2241 -0.7722
11491TIP3    H255889   2.791   1.589   2.832 -0.6381  1.7023  0.5906
11492TIP3   OH255890   0.209   4.756   5.828 -0.4266  0.4778  1.0107
11492TIP3    H155891   0.238   4.698   5.757  0.2471  0.5476  1.2230
11492TIP3    H255892   0.114   4.751   5.826 -0.3602 -1.2464  1.5380
11493TIP3   OH255893   0.243   3.050  11.251  0.6212 -0.2084  0.3944
11493TIP3    H155894   0.194   3.054  11.169 -0.3416  2.3361  1.0521
11493TIP3    H255895   0.259   3.142  11.273  1.8657 -0.9095  2.4685
11494TIP3   OH255896   5.852   3.864  12.490 -0.3286 -0.9621 -0.0777
11494TIP3    H155897   5.871   3.924  12.418 -0.2244 -2.4290 -1.3027
11494TIP3    H255898   5.849   3.920  12.568 -0.1103  0.5990 -1.1652
11495TIP3   OH255899   5.413   3.570  13.226 -0.0720 -0.0658 -0.1439
11495TIP3    H155900   5.352   3.617  13.170 -0.0813 -0.6657 -0.6361
11495TIP3    H255901   5.482   3.634  13.246 -1.1169  0.7795  0.8545
11496TIP3   OH255902   6.312   0.805   2.842  0.1066 -0.0944  0.4645
11496TIP3    H155903   6.327   0.717   2.877 -0.2556 -0.1587  0.4650
11496TIP3    H255904   6.398   0.846   2.843  0.4564 -0.7846 -0.4582
11497TIP3   OH255905   2.543   1.837   3.533 -0.9209 -0.3009  0.2252
11497TIP3    H155906   2.488   1.807   3.461 -0.6574 -0.0524 -0.0769
11497TIP3    H255907   2.632   1.814   3.507 -0.7671  0.3164  0.2048
11498TIP3   OH255908   1.060   1.627  12.515  0.1155 -0.0203  0.1889
11498TIP3    H155909   1.077   1.589  12.429 -1.1362 -1.4874  0.5680
11498TIP3    H255910   1.031   1.717  12.497  2.7279  0.6794 -0.7327
11499TIP3   OH255911   1.526   0.989  11.429 -0.6098 -0.3797  0.0626
11499TIP3    H155912   1.594   1.003  11.363 -1.1648 -2.2883 -0.9496
11499TIP3    H255913   1.547   0.905  11.469 -2.1424 -0.8144  0.0102
11500TIP3   OH255914   6.641   0.572  15.488  0.3476  0.2373  0.5506
11500TIP3    H155915   6.668   0.594  15.398  0.7809 -1.6702  0.1977
11500TIP3    H255916   6.705   0.616  15.543 -0.4908  2.2507 -0.0038
11501TIP3   OH255917   5.300   0.331  11.900 -0.1976 -0.3581  0.3824
11501TIP3    H155918   5.366   0.334  11.969 -0.4497 -0.2994  0.6214
11501TIP3    H255919   5.346   0.293  11.825 -0.0668 -0.9265  0.7451
11502TIP3   OH255920   1.190   3.698  14.352 -0.4568 -0.3921 -0.7978
11502TIP3    H155921   1.126   3.754  14.396 -0.4462 -0.8814 -0.1485
11502TIP3    H255922   1.263   3.757  14.331  0.3399 -0.4997  1.5103
11503TIP3   OH255923   4.550   2.162   4.059  0.3537  0.5740 -0.2683
11503TIP3    H155924   4.608   2.199   3.992  1.0405 -2.5278 -1.4807
11503TIP3    H255925   4.462   2.180   4.027  0.6768  0.5044 -1.2142
11504TIP3   OH255926   1.368   0.240  15.045  0.2514  0.3234 -0.0946
11504TIP3    H155927   1.394   0.332  15.040  2.5741 -0.3282 -0.4732
11504TIP3    H255928   1.353   0.214  14.954 -0.4312  0.3087  0.0137
11505TIP3   OH255929   6.060   3.425   4.494 -0.5271  0.2608 -0.0449
11505TIP3    H155930   6.044   3.428   4.588 -3.0967  1.6889 -0.4855
11505TIP3    H255931   6.154   3.437   4.485 -0.4809  1.8817  2.2690
11506TIP3   OH255932   4.786   2.684   6.252 -0.1624 -0.1669 -0.4659
11506TIP3    H155933   4.800   2.778   6.254 -2.4157  0.3304 -4.2163
11506TIP3    H255934   4.867   2.649   6.215 -0.0862  0.4606 -0.8898
11507TIP3   OH255935   5.434   6.298   4.343 -0.3386 -0.2161  0.3135
11507TIP3    H155936   5.425   6.213   4.386 -0.6498 -0.4107 -0.1336
11507TIP3    H255937   5.502   6.343   4.392 -2.4543  0.5680  2.6160
11508TIP3   OH255938   3.807   5.231  10.689 -0.0039 -0.4615  0.0762
11508TIP3    H155939   3.885   5.259  10.642  0.2117  0.5417  1.0195
11508TIP3    H255940   3.839   5.198  10.773 -0.4504 -1.5743 -0.1774
11509TIP3   OH255941   6.628   1.068  14.403 -0.1112 -0.1647  0.3908
11509TIP3    H155942   6.549   1.120  14.413  0.7541  0.6733  3.4399
11509TIP3    H255943   6.598   0.977  14.409 -1.2245  0.0228 -1.8302
11510TIP3   OH255944   3.171   0.925   5.846  0.2367  0.6021  0.4401
11510TIP3    H155945   3.251   0.937   5.898  1.5964  0.3859 -1.5634
11510TIP3    H255946   3.123   0.856   5.893  1.6136  0.1364  1.2063
11511TIP3   OH255947   2.507   1.759  14.140  0.2616  0.5220 -0.1384
11511TIP3    H155948   2.554   1.839  14.162 -0.1352  0.5881  0.5098
11511TIP3    H255949   2.428   1.763  14.194  0.1595 -0.2192 -0.2299
11512TIP3   OH255950   6.096   1.700   6.127  0.0450 -0.6108  0.1140
11512TIP3    H155951   6.064   1.671   6.042  0.4840  0.8014 -0.5526
11512TIP3    H255952   6.075   1.793   6.130  0.0209 -0.6567  1.5606
11513TIP3   OH255953   1.434   1.958   4.820  0.6653 -0.1389 -0.3504
11513TIP3    H155954   1.519   1.915   4.830 -0.2962 -1.8787  0.6641
11513TIP3    H255955   1.415   1.992   4.907  0.6103  0.8326 -0.7362
11514TIP3   OH255956   2.763   4.542   3.815 -0.0588  0.2806  0.5302
11514TIP3    H155957   2.815   4.604   3.763  0.1996 -0.6933 -0.3911
11514TIP3    H255958   2.674   4.552   3.781 -0.1239  0.5348  0.7677
11515TIP3   OH255959   2.436   3.776  16.066 -0.3972  0.3514  0.0965
11515TIP3    H155960   2.432   3.868  16.091  2.4892  0.1149  1.6171
11515TIP3    H255961   2.345   3.753  16.046 -1.1368  3.5688 -0.5895
11516TIP3   OH255962   2.358   3.174  11.309  0.2895  0.4234 -0.1981
11516TIP3    H155963   2.389   3.261  11.334 -0.2351  0.5546  0.0003
11516TIP3    H255964   2.383   3.164  11.218  1.3662  0.3304  0.1028
11517TIP3   OH255965   6.558   5.483  16.579  0.1346  0.1727  0.2142
11517TIP3    H155966   6.527   5.518  16.495 -0.9473  1.5713  1.1702
11517TIP3    H255967   6.539   5.389  16.574 -0.8369  0.4049 -0.7255
11518TIP3   OH255968   5.351   0.903   5.479 -0.6920  0.1392 -0.0632
11518TIP3    H155969   5.323   0.991   5.453  0.2357  0.5658  0.3804
11518TIP3    H255970   5.322   0.894   5.569 -1.5663 -0.3507 -0.3828
11519TIP3   OH255971   2.891   2.362   3.273 -0.5257 -0.6361  0.1611
11519TIP3    H155972   2.961   2.380   3.210 -0.1839  1.6654  1.1495
11519TIP3    H255973   2.823   2.426   3.251  0.1659  1.1301  2.9863
11520TIP3   OH255974   6.338   2.423  12.167  0.3586 -0.1685 -0.6454
11520TIP3    H155975   6.385   2.383  12.240 -0.1000  0.7953  0.1876
11520TIP3    H255976   6.278   2.355  12.137 -0.9689  0.1096  1.2582
11521TIP3   OH255977   3.974   5.463  14.443  0.5164  0.3480  0.6208
11521TIP3    H155978   3.986   5.518  14.366 -1.2842 -1.4014 -0.9583
11521TIP3    H255979   3.910   5.510  14.496 -2.9685 -1.2978 -1.9222
11522TIP3   OH255980   1.748   4.595   2.485 -0.6732 -0.3209  0.6717
11522TIP3    H155981   1.835   4.631   2.470 -1.8700  1.4477 -2.3335
11522TIP3    H255982   1.751   4.507   2.446 -0.4621  0.0299 -0.1002
11523TIP3   OH255983   2.781   2.158  15.054  0.1292 -0.4582 -0.5067
11523TIP3    H155984   2.719   2.222  15.019 -0.3429 -0.7812 -0.2475
11523TIP3    H255985   2.861   2.173  15.003  1.0981  2.5644  1.7164
11524TIP3   OH255986   4.447   6.127   5.506  0.0193  0.2165  0.8319
11524TIP3    H155987   4.438   6.111   5.599 -1.2426  1.5809  0.9685
11524TIP3    H255988   4.399   6.208   5.491 -1.6156 -1.1064 -1.3621
11525TIP3   OH255989   1.741   6.431   1.162  0.6500  0.1334  0.4058
11525TIP3    H155990   1.822   6.386   1.141  0.4184 -0.1227  0.0631
11525TIP3    H255991   1.673   6.365   1.152 -0.1258  1.4095 -3.5763
11526TIP3   OH255992   1.465   3.800   5.791 -0.5029 -0.0997 -0.0521
11526TIP3    H155993   1.414   3.874   5.825 -1.1172 -0.3179 -0.4998
11526TIP3    H255994   1.504   3.833   5.710  1.3024  0.5574  1.0513
11527TIP3   OH255995   0.725   6.316  16.210 -0.1609 -0.2421  0.0600
11527TIP3    H155996   0.726   6.381  16.280  2.0694 -1.2710  1.0396
11527TIP3    H255997   0.759   6.363  16.134 -0.9470  0.4089  0.1006
11528TIP3   OH255998   3.824   2.648  14.598 -0.0404 -0.2892  0.5270
11528TIP3    H155999   3.804   2.597  14.676  0.7575  0.1570  1.0301
11528TIP3    H256000   3.759   2.719  14.599 -0.1929 -0.4307  0.6505
11529TIP3   OH256001   5.165   1.222  11.944 -0.3702  0.6321  0.5223
11529TIP3    H156002   5.227   1.291  11.968  0.6371  0.4905 -1.5790
11529TIP3    H256003   5.162   1.224  11.848 -2.5289 -0.3261  0.5316
11530TIP3   OH256004   1.805   1.378   4.879  0.2421  0.1391 -0.0485
11530TIP3    H156005   1.746   1.440   4.921  3.1502  2.8216  0.3097
11530TIP3    H256006   1.892   1.415   4.893  2.1927 -4.3299  0.6541
11531TIP3   OH256007   1.565   6.339   5.845 -0.6062  0.0343  0.4663
11531TIP3    H156008   1.521   6.286   5.911 -2.4790  1.3792  0.3246
11531TIP3    H256009   1.658   6.333   5.867 -0.9874 -1.5413  1.7220
11532TIP3   OH256010   6.090   1.046  11.064  0.0145  0.3974  0.4063
11532TIP3    H156011   6.139   1.128  11.064  0.6232  0.0453  1.1521
11532TIP3    H256012   6.082   1.022  10.972 -0.6602  1.5786  0.1499
11533TIP3   OH256013   1.959   6.781  14.966  0.7368 -0.0329  0.0691
11533TIP3    H156014   1.987   6.690  14.970  0.3158 -0.1776 -0.1525
11533TIP3    H256015   1.983   6.809  14.878 -0.5143 -0.3997 -0.4041
11534TIP3   OH256016   1.267   0.388  12.553  0.3753 -0.2481  0.2462
11534TIP3    H156017   1.278   0.297  12.583  1.4182 -1.0330 -2.4033
11534TIP3    H256018   1.178   0.391  12.517 -0.4695  0.4063  2.2882
11535TIP3   OH256019   5.026   4.345   0.080 -0.6818 -0.1301 -0.0737
11535TIP3    H156020   5.056   4.299   0.158 -0.6487 -1.0297 -0.6021
11535TIP3    H256021   5.106   4.374   0.037 -0.6469 -0.5416 -0.2988
11536TIP3   OH256022   5.541   4.519  16.087  0.1710  0.0531  0.1161
11536TIP3    H156023   5.633   4.546  16.089  0.2828 -0.2934 -0.3363
11536TIP3    H256024   5.516   4.527  15.995 -0.4507  0.8132  0.3464
11537TIP3   OH256025   2.200   5.363   1.645 -0.3387 -0.0496 -0.3775
11537TIP3    H156026   2.171   5.331   1.730 -0.8383  0.9214 -0.1806
11537TIP3    H256027   2.244   5.288   1.605  0.1159 -0.4263  0.8310
11538TIP3   OH256028   0.270   4.383  12.141 -0.1839 -0.2488 -0.5177
11538TIP3    H156029   0.344   4.376  12.081  0.9352 -0.0991  0.8225
11538TIP3    H256030   0.310   4.381  12.228 -1.5853  1.9467  0.2065
11539TIP3   OH256031   3.137   2.651  14.458 -0.4718  0.2347  0.3269
11539TIP3    H156032   3.160   2.709  14.385 -1.7140  0.9952  0.5055
11539TIP3    H256033   3.180   2.568  14.439  0.2838  0.8353 -0.5979
11540TIP3   OH256034   3.947   4.575  12.983 -0.3693 -0.4803  0.2828
11540TIP3    H156035   3.951   4.528  13.066 -1.5884  0.4871  0.8990
11540TIP3    H256036   3.854   4.594  12.970  0.1352  2.1907  0.3127
11541TIP3   OH256037   6.073   4.743   1.866 -0.1146  1.0954  0.9953
11541TIP3    H156038   6.060   4.838   1.867 -2.7689  0.7785  0.9922
11541TIP3    H256039   6.006   4.711   1.805 -2.5658 -1.2095  4.7483
11542TIP3   OH256040   5.858   0.857   1.857  0.6763  0.1390 -0.6496
11542TIP3    H156041   5.850   0.805   1.937 -0.6182 -0.5144 -1.1818
11542TIP3    H256042   5.815   0.940   1.877 -1.6825 -0.8696 -1.3654
11543TIP3   OH256043   4.435   2.374  11.296 -0.2902 -0.0737 -0.1785
11543TIP3    H156044   4.512   2.405  11.343  0.1443  1.1983 -1.6875
11543TIP3    H256045   4.462   2.290  11.259 -0.0259 -0.1912  0.2764
11544TIP3   OH256046   2.833   0.079   4.320 -0.1047 -0.0073 -0.5342
11544TIP3    H156047   2.890   0.147   4.355  0.5034  0.3313 -2.1163
11544TIP3    H256048   2.892   0.006   4.299 -0.3394  0.0919 -1.5621
11545TIP3   OH256049   4.942   4.684   3.748 -0.0555  0.0134  0.7962
11545TIP3    H156050   5.019   4.647   3.792  0.3090 -0.0175  0.1455
11545TIP3    H256051   4.882   4.611   3.739  1.2417 -0.7778 -1.7606
11546TIP3   OH256052   4.193   0.729  12.077  0.3249 -0.4546  0.0653
11546TIP3    H156053   4.224   0.695  11.993  1.6942 -0.9471  0.7514
11546TIP3    H256054   4.178   0.822  12.061  1.3831 -0.3764 -0.5122
11547TIP3   OH256055   4.443   0.875   3.295  0.4111 -0.2423  0.8058
11547TIP3    H156056   4.367   0.849   3.243 -0.7567  1.9583  1.3515
11547TIP3    H256057   4.425   0.840   3.382 -0.0304  0.3777  0.9630
11548TIP3   OH256058   1.064   4.556   1.795  0.2284  0.1739 -0.3252
11548TIP3    H156059   1.018   4.547   1.879 -0.0042  0.9461 -0.3661
11548TIP3    H256060   1.120   4.479   1.790 -0.8826 -0.6617 -0.1589
11549TIP3   OH256061   2.083   3.268  13.257  0.1109 -0.5885  0.5972
11549TIP3    H156062   2.049   3.243  13.342  1.5811 -0.0955  1.3577
11549TIP3    H256063   2.178   3.275  13.270  0.2686  0.3154 -0.8619
11550TIP3   OH256064   3.044   4.928  11.829  0.6856 -0.6051 -0.3268
11550TIP3    H156065   3.064   4.864  11.897 -0.3067  1.2768  1.7900
11550TIP3    H256066   3.124   4.979  11.819 -0.2340  1.4066  2.0347
11551TIP3   OH256067   4.215   0.887  13.204 -0.3812  0.0957  0.2469
11551TIP3    H156068   4.244   0.843  13.284  0.7192  0.2245 -0.0701
11551TIP3    H256069   4.120   0.875  13.203 -0.1937 -1.5009  0.6206
11552TIP3   OH256070   0.722   6.491   0.483  0.2079  0.2135  0.0523
11552TIP3    H156071   0.732   6.471   0.576 -2.3654  0.7743  0.4855
11552TIP3    H256072   0.811   6.487   0.448  1.3150  0.6734  2.6719
11553TIP3   OH256073   6.707   2.549  13.403 -0.4667  0.3578  0.1002
11553TIP3    H156074   6.733   2.618  13.342 -1.3901  0.2488 -0.4347
11553TIP3    H256075   6.612   2.562  13.414 -0.5128 -0.3607  0.5729
11554TIP3   OH256076   2.387   1.002   6.263  0.4047 -0.1329  0.2726
11554TIP3    H156077   2.341   0.974   6.342 -0.1631 -1.5447 -0.5259
11554TIP3    H256078   2.331   1.070   6.225 -0.6008 -1.2181 -0.2257
11555TIP3   OH256079   1.972   2.837   0.290  0.2531  0.2301 -0.0009
11555TIP3    H156080   1.962   2.922   0.335 -0.6558  0.4158 -0.5244
11555TIP3    H256081   1.884   2.799   0.293  0.4272 -0.2287 -0.6938
11556TIP3   OH256082   3.643   0.080   2.355 -0.2732  0.2277 -0.1111
11556TIP3    H156083   3.649   0.060   2.262 -1.4102 -0.2981 -0.0766
11556TIP3    H256084   3.550   0.073   2.375  0.0515 -0.3371  1.2212
11557TIP3   OH256085   4.702   6.365  15.918  0.2335 -0.1710 -0.3858
11557TIP3    H156086   4.615   6.401  15.902  0.6976  1.2687  0.2650
11557TIP3    H256087   4.759   6.441  15.925  1.1929 -1.0106  1.3321
11558TIP3   OH256088   6.740   4.766   2.046  0.1925 -0.7466  0.5719
11558TIP3    H156089   6.806   4.833   2.029 -0.7816 -0.4621 -2.2688
11558TIP3    H256090   6.660   4.815   2.066 -0.4741 -1.0422 -1.3127
11559TIP3   OH256091   5.432   5.240  15.643 -0.3564 -0.2662 -0.0358
11559TIP3    H156092   5.443   5.311  15.707 -0.7999  0.0475 -0.3071
11559TIP3    H256093   5.350   5.260  15.598 -0.3172 -0.7740 -0.3440
11560TIP3   OH256094   1.576   5.758   1.571 -0.4196 -0.0545 -0.6983
11560TIP3    H156095   1.595   5.666   1.552  0.9802  0.2616 -0.8642
11560TIP3    H256096   1.564   5.761   1.666  0.4655 -0.2481 -0.5782
11561TIP3   OH256097   1.178   4.805  11.366 -0.6932  0.0006 -0.0674
11561TIP3    H156098   1.083   4.815  11.364 -0.9069 -1.7601  0.3331
11561TIP3    H256099   1.196   4.733  11.304  0.2275 -0.6528  0.9411
11562TIP3   OH256100   5.028   2.334   1.197  0.4689  0.1385 -0.0676
11562TIP3    H156101   4.953   2.378   1.238 -0.8232 -0.0947 -2.1209
11562TIP3    H256102   4.994   2.302   1.114  2.2693 -1.9300 -0.0422
11563TIP3   OH256103   6.372   0.342  14.587  0.5823 -0.1999 -0.1990
11563TIP3    H156104   6.379   0.349  14.682  0.8859 -1.2247 -0.1358
11563TIP3    H256105   6.280   0.361  14.568  0.8721  1.5795  0.1412
11564TIP3   OH256106   0.239   5.361  14.738 -0.0939  0.2726  0.0147
11564TIP3    H156107   0.157   5.393  14.702  0.0172  1.1418  0.5175
11564TIP3    H256108   0.304   5.427  14.712  0.0433  0.7554  1.5118
11565TIP3   OH256109   5.627   1.647  14.094  0.3336  0.2254 -0.2595
11565TIP3    H156110   5.723   1.647  14.089  0.4672 -0.0454  1.7789
11565TIP3    H256111   5.601   1.559  14.065  0.5984  0.7131 -2.0446
11566TIP3   OH256112   2.671   4.072   5.213  0.3625 -0.4774  0.3057
11566TIP3    H156113   2.652   4.005   5.147  1.6198 -0.5212 -0.0142
11566TIP3    H256114   2.763   4.058   5.236  0.3905  0.5948  0.8618
11567TIP3   OH256115   5.775   2.953   2.363  0.5367 -0.2073 -0.2350
11567TIP3    H156116   5.826   3.018   2.412 -0.7232  0.1765  0.5883
11567TIP3    H256117   5.684   2.979   2.375  0.0895 -1.3274 -1.0545
11568TIP3   OH256118   4.030   4.591  15.096 -0.1868 -0.1811 -0.2351
11568TIP3    H156119   3.967   4.601  15.168 -0.5854  0.0030 -0.6099
11568TIP3    H256120   4.066   4.503  15.107 -0.9983 -0.5340 -0.4164
11569TIP3   OH256121   4.897   4.727  10.297  0.1909  0.2083  0.2342
11569TIP3    H156122   4.814   4.714  10.343  0.0849 -2.4721 -0.5948
11569TIP3    H256123   4.961   4.676  10.348  0.7431 -0.0379 -0.6869
11570TIP3   OH256124   6.494   1.714   5.727 -0.1886  0.1944  0.0801
11570TIP3    H156125   6.532   1.752   5.648  0.0259  2.2236  1.1097
11570TIP3    H256126   6.531   1.626   5.732  0.2830  0.2653 -1.7239
11571TIP3   OH256127   3.199   3.763   6.012  0.0164  0.1826 -0.0105
11571TIP3    H156128   3.224   3.840   6.063 -0.0760  0.7228 -0.7795
11571TIP3    H256129   3.162   3.703   6.077  0.4211  0.6367  0.6488
11572TIP3   OH256130   3.045   0.515  13.522 -0.8026  0.3204 -0.6715
11572TIP3    H156131   3.119   0.559  13.563 -0.8393 -0.0451 -0.2158
11572TIP3    H256132   3.068   0.510  13.429 -0.2255  0.1474 -0.5164
11573TIP3   OH256133   0.941   2.730   5.290 -0.2733 -0.1078 -0.3100
11573TIP3    H156134   0.870   2.757   5.231 -0.7624  1.0131  0.7722
11573TIP3    H256135   1.003   2.803   5.287  0.4983 -0.7801 -0.7127
11574TIP3   OH256136   6.543   4.629   2.382  0.2330  0.1643  0.8103
11574TIP3    H156137   6.486   4.658   2.311  1.1499 -1.8599 -0.7664
11574TIP3    H256138   6.492   4.563   2.428  0.5293 -0.1684  0.6575
11575TIP3   OH256139   0.119   0.787   2.044 -0.3945 -0.1409  0.0242
11575TIP3    H156140   0.069   0.765   2.123 -0.4662  0.7930  0.2465
11575TIP3    H256141   0.055   0.827   1.985 -0.1010  0.2551 -0.0330
11576TIP3   OH256142   3.498   5.113   3.085  0.3989  0.7059 -0.0485
11576TIP3    H156143   3.485   5.032   3.036 -0.6732  0.7603  0.1315
11576TIP3    H256144   3.567   5.093   3.147 -0.8568 -0.5395  0.9880
11577TIP3   OH256145   6.053   0.099   3.116 -0.2191 -0.1077  0.0206
11577TIP3    H156146   6.101   0.116   3.197  0.0336 -0.5059 -0.0443
11577TIP3    H256147   6.049   0.184   3.072  3.5816 -0.7020 -1.6795
11578TIP3   OH256148   1.582   5.223   4.131  0.1402 -0.0721 -0.6169
11578TIP3    H156149   1.512   5.160   4.116 -0.1075 -0.1377  0.7545
11578TIP3    H256150   1.566   5.258   4.219  1.6796  0.0953 -0.3771
11579TIP3   OH256151   5.069   4.836  16.680 -0.1642 -0.2245 -0.1061
11579TIP3    H156152   4.988   4.884  16.661 -1.4996 -2.1641  0.5082
11579TIP3    H256153   5.109   4.883  16.753 -1.3099  0.1140  0.3126
11580TIP3   OH256154   0.628   6.256   5.459  0.2582 -0.5969 -0.3062
11580TIP3    H156155   0.664   6.228   5.375  0.8280  0.0300 -0.2738
11580TIP3    H256156   0.659   6.345   5.471  0.1372 -0.6566  0.5452
11581TIP3   OH256157   1.101   6.455  16.743  0.2253  0.2693  0.0815
11581TIP3    H156158   1.120   6.396  16.816 -0.2812 -0.2521 -0.2035
11581TIP3    H256159   1.187   6.483  16.712  0.4437  0.4526  0.8466
11582TIP3   OH256160   1.157   0.995  14.843 -0.9244  0.4121  0.2546
11582TIP3    H156161   1.207   0.914  14.834 -1.6134 -0.2103  2.0110
11582TIP3    H256162   1.149   1.027  14.753  0.5310 -0.7417 -0.3152
11583TIP3   OH256163   0.103   3.638   2.599  0.3224  0.0391 -0.1294
11583TIP3    H156164   0.113   3.547   2.628  2.9147  0.5381  0.6500
11583TIP3    H256165   0.191   3.675   2.604 -0.2546  1.9346 -2.7317
11584TIP3   OH256166   4.666   4.890   5.038 -0.2308 -0.5749  0.0447
11584TIP3    H156167   4.676   4.817   4.977  0.2417 -1.3860  1.0724
11584TIP3    H256168   4.750   4.893   5.085 -1.7139 -2.0098  2.8686
11585TIP3   OH256169   3.426   5.155   3.868 -0.4912 -0.0654  0.1678
11585TIP3    H156170   3.476   5.153   3.787 -0.2898 -1.1462  0.3181
11585TIP3    H256171   3.470   5.093   3.926  0.2880  1.8182  1.6568
11586TIP3   OH256172   4.293   2.162  14.910 -0.7846 -0.5130 -0.1989
11586TIP3    H156173   4.226   2.102  14.943  0.2623 -1.9946 -0.7539
11586TIP3    H256174   4.273   2.171  14.817 -2.0872  1.5302  0.2323
11587TIP3   OH256175   1.104   2.270   3.411 -0.3085  0.3899  0.3185
11587TIP3    H156176   1.055   2.188   3.407 -1.8268  1.2652  0.7745
11587TIP3    H256177   1.137   2.283   3.322 -0.8229 -0.2380  0.0353
11588TIP3   OH256178   2.458   4.149  12.942  0.1826 -0.2011 -0.8624
11588TIP3    H156179   2.374   4.106  12.929  0.0048  0.3352 -1.5716
11588TIP3    H256180   2.523   4.084  12.916  0.0787 -1.2552  1.4266
11589TIP3   OH256181   5.207   4.407  13.612  0.3527  0.2424 -0.4427
11589TIP3    H156182   5.175   4.316  13.612  0.5176  0.1226 -3.4162
11589TIP3    H256183   5.128   4.460  13.603  0.4144  0.2925 -0.6940
11590TIP3   OH256184   6.264   0.011   2.309 -0.1811 -0.1195 -0.0792
11590TIP3    H156185   6.259  -0.014   2.217  2.4397 -0.0873 -0.2651
11590TIP3    H256186   6.220  -0.060   2.356 -1.8953  0.0698 -1.3707
11591TIP3   OH256187   5.977   4.408   0.797  0.1073 -0.1512 -0.2144
11591TIP3    H156188   5.997   4.468   0.725 -0.2360 -0.1092 -0.2766
11591TIP3    H256189   6.000   4.321   0.763  4.0699  0.2786  1.1467
11592TIP3   OH256190   2.653   6.457  16.605  0.6210  0.1549  0.3089
11592TIP3    H156191   2.726   6.395  16.609  1.4789  1.1260 -0.2953
11592TIP3    H256192   2.656   6.491  16.515  0.2536  1.2018  0.6897
11593TIP3   OH256193   5.478   5.707   2.604 -0.0411 -0.0989 -0.0255
11593TIP3    H156194   5.518   5.747   2.527 -0.1119  3.8694  1.8637
11593TIP3    H256195   5.552   5.667   2.651  0.2998 -0.7415 -1.0796
11594TIP3   OH256196   2.755   6.721  14.416  0.3462 -0.2236  0.5288
11594TIP3    H156197   2.683   6.775  14.384  0.8586  0.8427  1.1263
11594TIP3    H256198   2.757   6.645  14.358 -0.4729  0.3387 -0.2407
11595TIP3   OH256199   1.139   1.539   0.662  0.1375  0.6264 -0.4511
11595TIP3    H156200   1.067   1.582   0.616 -0.4480 -1.3424 -1.4699
11595TIP3    H256201   1.195   1.507   0.591  1.0191  0.5110  0.2992
11596TIP3   OH256202   2.579   3.624   4.669 -0.3683 -0.1563  0.5262
11596TIP3    H156203   2.657   3.678   4.652 -0.4905  0.3678  1.5925
11596TIP3    H256204   2.562   3.580   4.586 -0.2049  1.3800 -0.3337
11597TIP3   OH256205   4.409   4.218   0.954  0.2687  0.4472 -0.3056
11597TIP3    H156206   4.336   4.273   0.982 -0.8006 -1.5333  0.8787
11597TIP3    H256207   4.394   4.134   0.997  2.4541 -0.4534 -1.2284
11598TIP3   OH256208   1.698   4.200  11.847 -0.6600  0.1852  0.7621
11598TIP3    H156209   1.787   4.182  11.876 -0.6235 -0.7101  0.0889
11598TIP3    H256210   1.643   4.175  11.921 -0.3560  0.7170  1.1699
11599TIP3   OH256211   3.789   6.216   1.162  0.4482 -0.1399  0.1850
11599TIP3    H156212   3.791   6.122   1.181 -0.9935 -0.3154 -0.4550
11599TIP3    H256213   3.802   6.221   1.067 -0.6874  0.2180  0.0369
11600TIP3   OH256214   5.174   2.227   3.307  0.3537 -0.1482  0.2503
11600TIP3    H156215   5.088   2.190   3.329  0.5630 -0.3695  0.7017
11600TIP3    H256216   5.192   2.194   3.218 -0.0181 -0.1135  0.1603
11601TIP3   OH256217   0.019   2.215   0.101  0.3511 -0.5120 -0.3236
11601TIP3    H156218   0.106   2.253   0.111  0.1066  0.0544 -0.3255
11601TIP3    H256219  -0.022   2.267   0.032  0.1546 -1.0306 -0.6019
11602TIP3   OH256220   2.989   6.201   0.196 -0.6642  0.6400  0.5137
11602TIP3    H156221   2.968   6.288   0.232  0.7859  1.9757 -1.7339
11602TIP3    H256222   3.084   6.198   0.194 -0.6991 -1.2370  1.0224
11603TIP3   OH256223   2.118   0.883  10.531 -0.0930  0.2092 -0.2730
11603TIP3    H156224   2.077   0.849  10.451 -1.2315 -0.6740  0.6836
11603TIP3    H256225   2.168   0.959  10.501 -0.6826  0.0195 -1.7949
11604TIP3   OH256226   4.145   0.773   5.343 -0.4366 -0.4120 -0.3535
11604TIP3    H156227   4.155   0.685   5.379  1.5985 -0.6444 -1.4369
11604TIP3    H256228   4.170   0.764   5.251 -2.1685  0.9015 -0.9901
11605TIP3   OH256229   5.994   1.755  12.500  0.2404  0.1086 -0.6625
11605TIP3    H156230   6.085   1.749  12.528 -0.8685  0.8231  3.3759
11605TIP3    H256231   5.980   1.848  12.483 -0.4674  0.4860  1.7003
11606TIP3   OH256232   2.615   4.676  12.643 -0.2965  0.2052 -0.2461
11606TIP3    H156233   2.633   4.673  12.737 -1.2778 -1.0707 -0.0943
11606TIP3    H256234   2.698   4.703  12.603  0.1853  0.5182  0.9656
11607TIP3   OH256235   5.174   5.006   0.276  0.1810  0.3835 -0.1266
11607TIP3    H156236   5.134   5.015   0.189 -0.2711 -1.6810 -0.1651
11607TIP3    H256237   5.108   4.961   0.328  0.0536  2.5174  1.6104
11608TIP3   OH256238   2.318   2.049   0.120  0.2913  0.2538  0.5724
11608TIP3    H156239   2.239   2.079   0.165  0.4702  0.9371  0.4372
11608TIP3    H256240   2.330   2.112   0.048 -0.4290 -1.2517 -0.9180
11609TIP3   OH256241   2.282   0.888   1.925 -0.0018  0.7489  0.3572
11609TIP3    H156242   2.307   0.807   1.968  0.5121 -0.0985 -1.4578
11609TIP3    H256243   2.190   0.900   1.947 -0.8379 -1.7709 -1.4866
11610TIP3   OH256244   4.814   0.691   2.857  0.5325  0.7103  0.5798
11610TIP3    H156245   4.861   0.641   2.923 -0.9329 -1.8303 -0.2080
11610TIP3    H256246   4.737   0.637   2.837  0.0794  2.2087 -1.9512
11611TIP3   OH256247   2.531   5.469   0.548  0.8270  0.0174 -0.4572
11611TIP3    H156248   2.599   5.533   0.526  0.5283  0.4432 -0.1567
11611TIP3    H256249   2.542   5.399   0.484  1.9135 -0.1767 -0.0654
11612TIP3   OH256250   5.873   6.093  13.916  0.8514 -0.3657 -0.3003
11612TIP3    H156251   5.900   6.127  14.002  1.3891  0.9455 -0.9861
11612TIP3    H256252   5.779   6.078  13.926  1.2230 -1.9371  1.0866
11613TIP3   OH256253   3.259   6.564   2.815 -0.0441  0.2975 -0.5051
11613TIP3    H156254   3.319   6.519   2.875  0.2930  1.2863 -0.0894
11613TIP3    H256255   3.211   6.494   2.772  0.2090 -0.4475  0.4122
11614TIP3   OH256256   0.623   6.022  11.873 -0.3775 -0.8181 -0.1511
11614TIP3    H156257   0.544   6.071  11.850 -0.2401  0.1901  1.4548
11614TIP3    H256258   0.691   6.058  11.816 -0.0405  1.6312  1.7666
11615TIP3   OH256259   1.885   2.029  13.573  0.0979  0.1518 -0.0279
11615TIP3    H156260   1.925   1.942  13.574  1.2430  0.6773  1.8045
11615TIP3    H256261   1.952   2.087  13.538 -0.0181  0.5963  0.4705
11616TIP3   OH256262   6.738   3.719  15.394  0.0483  0.3371 -0.5713
11616TIP3    H156263   6.767   3.641  15.345  3.6987 -0.1039  2.1200
11616TIP3    H256264   6.674   3.685  15.457  0.2221 -0.1411 -0.6514
11617TIP3   OH256265   3.138   1.951  15.452 -0.1853  0.5187  0.0484
11617TIP3    H156266   3.170   1.867  15.485  0.1356  0.3607 -0.6520
11617TIP3    H256267   3.199   1.974  15.381  0.4200  1.9218  1.0083
11618TIP3   OH256268   4.544   2.014  14.753  0.1492 -0.5113  0.3319
11618TIP3    H156269   4.452   1.998  14.774 -0.1600  1.6074  0.6378
11618TIP3    H256270   4.591   1.944  14.799 -1.1342 -0.4312  1.8116
11619TIP3   OH256271   3.382   0.368   4.534  0.1324 -0.6273 -0.7117
11619TIP3    H156272   3.329   0.370   4.454  0.7267 -0.6898 -1.1104
11619TIP3    H256273   3.457   0.423   4.514 -0.6404  0.8634  0.4643
11620TIP3   OH256274   5.504   5.848  12.196 -0.2436  0.4597 -0.1981
11620TIP3    H156275   5.420   5.856  12.151 -0.6999 -1.9082  0.1936
11620TIP3    H256276   5.551   5.780  12.148 -0.1901 -1.1198  2.0077
11621TIP3   OH256277   3.704   5.841   0.212  0.1888  0.5387 -0.1969
11621TIP3    H156278   3.609   5.837   0.222  0.1771  1.4392  0.2098
11621TIP3    H256279   3.718   5.875   0.123  0.1462 -0.4730 -0.5874
11622TIP3   OH256280   3.859   2.709   2.649 -0.2728 -0.3318 -0.2267
11622TIP3    H156281   3.808   2.725   2.729  1.5533 -0.9220  1.0916
11622TIP3    H256282   3.926   2.777   2.650 -1.6693  1.1480 -2.5535
11623TIP3   OH256283   0.813   1.392  15.711  0.1754 -0.1478 -0.8083
11623TIP3    H156284   0.721   1.381  15.690  0.3855  0.2392 -1.9363
11623TIP3    H256285   0.822   1.485  15.734  0.2436 -0.2379 -0.4589
11624TIP3   OH256286   0.272   5.360  10.421  0.3362  0.4645  0.2974
11624TIP3    H156287   0.224   5.392  10.497  0.5722  2.2290 -0.2716
11624TIP3    H256288   0.364   5.359  10.449  0.1347 -1.7698  0.9941
11625TIP3   OH256289   1.997   6.096   3.294  0.1189  0.2522 -0.2060
11625TIP3    H156290   2.008   6.001   3.295  1.9840  0.4341 -1.5595
11625TIP3    H256291   1.994   6.121   3.386 -1.7963 -1.2459  0.1733
11626TIP3   OH256292   4.128   2.254   0.518 -0.1636 -0.1216  0.3304
11626TIP3    H156293   4.045   2.268   0.474  0.0813 -0.8793 -0.3962
11626TIP3    H256294   4.194   2.273   0.451  0.2992  1.8859  1.3072
11627TIP3   OH256295   5.772   2.796  10.475 -0.3381  0.0624 -0.3726
11627TIP3    H156296   5.864   2.815  10.456 -0.3003  1.2028  0.8986
11627TIP3    H256297   5.724   2.844  10.408  0.0200 -1.5954 -1.8483
11628TIP3   OH256298   5.230   1.047  16.017 -0.8400 -0.0888  0.4537
11628TIP3    H156299   5.238   1.033  15.923 -0.7347  1.4313  0.2289
11628TIP3    H256300   5.314   1.084  16.043 -0.0027 -2.6480  1.5737
11629TIP3   OH256301   4.065   4.558  11.247  0.2846 -0.1773  0.3488
11629TIP3    H156302   4.145   4.606  11.268  0.7855 -1.2636  0.9454
11629TIP3    H256303   4.090   4.503  11.173 -0.2001  0.2193 -0.1179
11630TIP3   OH256304   4.000   4.333  12.250 -0.5054  0.1008  0.2248
11630TIP3    H156305   3.952   4.308  12.329 -1.1555 -0.5350 -0.3686
11630TIP3    H256306   4.092   4.336  12.278 -0.9053  1.5235  1.4055
11631TIP3   OH256307   5.969   5.984   4.789  0.2780  0.4248  0.0474
11631TIP3    H156308   5.897   5.921   4.790  1.4869 -0.9822  1.5827
11631TIP3    H256309   5.993   5.994   4.881  2.5804  0.2371 -0.5011
11632TIP3   OH256310   3.415   3.306   2.036 -0.1688 -0.1783 -0.1035
11632TIP3    H156311   3.496   3.346   2.005 -0.3824 -2.2066 -3.5056
11632TIP3    H256312   3.442   3.256   2.114  1.9188 -0.8728 -1.2158
11633TIP3   OH256313   0.574   3.906  11.797  0.2382  0.1914  0.1758
11633TIP3    H156314   0.624   3.826  11.784 -1.6298 -1.0696  0.5044
11633TIP3    H256315   0.590   3.958  11.718  0.8661 -0.8228 -0.3646
11634TIP3   OH256316   6.109   2.930   3.676 -0.8509 -0.1359  0.2915
11634TIP3    H156317   6.050   2.984   3.622 -1.1993 -0.7031  0.0921
11634TIP3    H256318   6.050   2.882   3.734 -0.8365 -2.7144 -1.7025
11635TIP3   OH256319   0.481   2.212   1.382 -0.5761 -0.1654 -0.1592
11635TIP3    H156320   0.484   2.243   1.291 -1.8431 -0.5479 -0.3337
11635TIP3    H256321   0.519   2.124   1.378  2.8598  1.2119  0.3079
11636TIP3   OH256322   0.960   5.195   6.256 -0.2364 -0.1871 -0.2693
11636TIP3    H156323   0.896   5.264   6.239 -1.9506 -1.3459  1.3050
11636TIP3    H256324   0.976   5.199   6.350  1.3072 -0.5241 -0.5007
11637TIP3   OH256325   5.240   1.036  15.301  0.4607 -0.0117 -0.6582
11637TIP3    H156326   5.262   1.075  15.216  0.6870  0.7249 -0.2649
11637TIP3    H256327   5.316   0.981  15.321  1.1885  1.1634 -0.1292
11638TIP3   OH256328   2.860   4.851   6.438  0.3003  0.4023 -0.5564
11638TIP3    H156329   2.876   4.794   6.363  0.4402  1.1611 -1.1124
11638TIP3    H256330   2.793   4.912   6.408  0.1778  0.5572  0.0229
11639TIP3   OH256331   0.131   1.396  11.955 -0.4629 -0.6539  0.0828
11639TIP3    H156332   0.107   1.475  12.004  0.3350 -0.1426 -0.3271
11639TIP3    H256333   0.181   1.429  11.880  0.8148 -1.6163  0.4944
11640TIP3   OH256334   0.462   1.110   2.011 -0.2688 -0.3657 -0.1827
11640TIP3    H156335   0.420   1.197   2.013 -0.9133 -0.6163 -2.1819
11640TIP3    H256336   0.401   1.053   2.059 -1.1236 -0.2596 -1.1363
11641TIP3   OH256337   4.274   4.037   3.787  0.8906 -0.0977  0.6948
11641TIP3    H156338   4.206   3.988   3.742  0.9533 -0.8906  1.4463
11641TIP3    H256339   4.258   4.128   3.763  0.7636 -0.4712 -0.7045
11642TIP3   OH256340   4.865   5.404   3.017 -0.1206 -0.4552 -0.0291
11642TIP3    H156341   4.840   5.396   2.925 -1.6561 -0.7429  0.3938
11642TIP3    H256342   4.900   5.318   3.040  2.1715  0.2131 -0.8645
11643TIP3   OH256343   5.652   5.904  14.669 -0.1261 -0.3195  0.3043
11643TIP3    H156344   5.576   5.853  14.639  0.6238 -0.5970 -1.1184
11643TIP3    H256345   5.727   5.862  14.629  0.4410  2.4867 -1.7280
11644TIP3   OH256346   2.550   2.375  15.039  0.1421  0.1565  0.3126
11644TIP3    H156347   2.484   2.351  15.104  0.4922  0.8490  0.9253
11644TIP3    H256348   2.500   2.416  14.969 -0.2858 -0.9676 -0.0648
11645TIP3   OH256349   2.187   2.480   1.414 -0.4403 -0.0122 -0.2272
11645TIP3    H156350   2.129   2.407   1.394 -1.2530  0.6782 -0.4529
11645TIP3    H256351   2.275   2.445   1.406 -0.8332 -1.2243  0.6510
11646TIP3   OH256352   0.568   6.319  14.823  0.1086  0.3967 -0.2222
11646TIP3    H156353   0.571   6.272  14.740 -0.2236 -0.2854  0.1441
11646TIP3    H256354   0.595   6.408  14.801 -0.0493  0.2436 -1.0730
11647TIP3   OH256355   2.908   6.551   1.482  0.3409  0.0426 -0.1722
11647TIP3    H156356   2.900   6.607   1.405  0.3405 -0.2781 -0.4048
11647TIP3    H256357   2.920   6.462   1.447 -0.1834 -0.1761  0.1967
11648TIP3   OH256358   0.286   4.475  15.953 -0.9301  0.0727  0.1855
11648TIP3    H156359   0.207   4.429  15.927  0.4903 -2.3610  0.0224
11648TIP3    H256360   0.339   4.480  15.874  0.2032 -0.6894  0.8804
11649TIP3   OH256361   5.761   1.674   3.565 -0.2342 -0.2319  0.0696
11649TIP3    H156362   5.794   1.625   3.640  2.2073 -0.5359 -1.1349
11649TIP3    H256363   5.740   1.760   3.600 -0.5320 -0.8271  1.3887
11650TIP3   OH256364   6.575   5.417   5.581  0.5066 -0.3363  0.2805
11650TIP3    H156365   6.594   5.505   5.613 -0.3054 -0.1431  0.2537
11650TIP3    H256366   6.637   5.403   5.510 -0.1546  0.6814 -0.5130
11651TIP3   OH256367   2.177   4.636   4.414 -0.1035 -0.6771  0.0966
11651TIP3    H156368   2.091   4.634   4.457 -0.3250  1.2049 -0.2371
11651TIP3    H256369   2.224   4.706   4.457  2.1336 -3.1410  1.8066
11652TIP3   OH256370   0.449   1.499  14.445 -0.4676  0.1906  0.0017
11652TIP3    H156371   0.397   1.545  14.510 -0.6386  0.0577 -0.0428
11652TIP3    H256372   0.394   1.499  14.366 -0.2157  0.4508 -0.1746
11653TIP3   OH256373   2.819   5.806  15.198  0.5350 -0.1681 -0.4870
11653TIP3    H156374   2.902   5.796  15.245 -0.6141  0.4828  1.6989
11653TIP3    H256375   2.771   5.726  15.215 -0.8911  1.0901  1.4923
11654TIP3   OH256376   2.805   4.957   0.788  0.2147 -0.1198 -0.2564
11654TIP3    H156377   2.752   5.035   0.800  3.0038  1.4100  2.6930
11654TIP3    H256378   2.853   4.973   0.706  0.6799  1.2248  0.2692
11655TIP3   OH256379   5.177   1.205   1.845 -0.3493 -0.0496  0.5067
11655TIP3    H156380   5.265   1.230   1.874  0.0907 -0.0912 -0.7714
11655TIP3    H256381   5.192   1.146   1.771 -1.4605 -0.0397  0.2702
11656TIP3   OH256382   4.312   3.773  11.936 -0.6565  0.3912 -0.2601
11656TIP3    H156383   4.220   3.794  11.952 -1.0532 -1.5110  0.1209
11656TIP3    H256384   4.355   3.787  12.021 -1.3048 -2.1486  0.5575
11657TIP3   OH256385   1.194   3.065  14.516 -0.3719 -0.6205  0.1412
11657TIP3    H156386   1.143   2.984  14.515 -1.5684  0.1418 -0.9094
11657TIP3    H256387   1.181   3.103  14.430  1.2055  0.0842  0.1929
11658TIP3   OH256388   0.363   2.244  15.085 -0.0402  0.0885  0.3749
11658TIP3    H156389   0.401   2.295  15.014 -0.2111  0.3227  0.4509
11658TIP3    H256390   0.323   2.169  15.042  0.1214  0.0733  0.2517
11659TIP3   OH256391   5.072   3.935  11.292  0.2083 -0.4220  0.1008
11659TIP3    H156392   5.124   3.914  11.370  0.1162 -0.8728  0.0435
11659TIP3    H256393   4.995   3.980  11.326 -0.8931 -2.4927  0.4914
11660TIP3   OH256394   5.381   4.076   5.794 -0.4550 -0.1429  0.3098
11660TIP3    H156395   5.371   4.020   5.871 -2.8444  0.1203  0.2188
11660TIP3    H256396   5.297   4.121   5.785  0.0454  0.4118 -1.9985
11661TIP3   OH256397   3.044   1.235   0.456 -0.1987  0.1068  0.2246
11661TIP3    H156398   3.079   1.272   0.375 -1.0695 -0.1545 -0.2724
11661TIP3    H256399   2.999   1.156   0.428 -0.4952  0.0126  0.9744
11662TIP3   OH256400   2.474   1.942   2.858  0.4553  0.4174  0.5584
11662TIP3    H156401   2.425   1.870   2.898  0.6013 -1.0513 -1.8022
11662TIP3    H256402   2.408   2.010   2.842 -0.0369  0.0735  1.1226
11663TIP3   OH256403   0.381   5.767  13.023 -0.0089  0.0740 -0.1607
11663TIP3    H156404   0.364   5.748  12.931  1.2290  2.0856 -0.8472
11663TIP3    H256405   0.299   5.805  13.055  0.0557  0.8090 -0.8596
11664TIP3   OH256406   2.854   2.505  17.073  0.2273 -0.0521 -0.3757
11664TIP3    H156407   2.879   2.427  17.024  0.1822 -0.8216  0.8158
11664TIP3    H256408   2.905   2.501  17.154 -0.5238  0.6301  0.1471
11665TIP3   OH256409   3.490   1.439   6.412  0.2285  0.3665 -0.4087
11665TIP3    H156410   3.514   1.483   6.494 -0.6049  0.3252 -0.1410
11665TIP3    H256411   3.395   1.450   6.406  0.0413 -1.2082 -0.4551
11666TIP3   OH256412   4.403   1.492  14.173 -0.5084 -0.2848  0.1407
11666TIP3    H156413   4.376   1.504  14.082 -2.2837 -0.2936  0.6445
11666TIP3    H256414   4.373   1.404  14.195  0.7404 -0.6359  0.4543
11667TIP3   OH256415   2.321   6.453   1.014 -0.1451 -0.1493  0.8397
11667TIP3    H156416   2.405   6.410   1.000  0.2659  0.5498  1.1525
11667TIP3    H256417   2.313   6.460   1.109  0.5298  1.9047  0.7618
11668TIP3   OH256418   5.088   3.037  14.483  0.0683  0.1150 -0.1204
11668TIP3    H156419   5.026   3.051  14.554  1.5659 -0.0306  1.2577
11668TIP3    H256420   5.163   3.093  14.505  0.7170 -0.2494 -1.3617
11669TIP3   OH256421   1.975   6.755   5.986 -0.8456 -0.5120 -0.0574
11669TIP3    H156422   1.937   6.732   6.070 -1.4947  1.4725  0.2266
11669TIP3    H256423   2.005   6.845   5.998 -3.2541  0.7264 -2.6913
11670TIP3   OH256424   3.643   5.244   3.660 -0.8828  0.2551 -0.5102
11670TIP3    H156425   3.654   5.303   3.586  0.9049 -0.7016 -1.0196
11670TIP3    H256426   3.675   5.294   3.736  0.9505 -0.1641 -0.9918
11671TIP3   OH256427   5.330   0.466   4.705 -0.5418 -0.6972 -0.1067
11671TIP3    H156428   5.283   0.533   4.755 -1.2420 -0.7456 -0.6924
11671TIP3    H256429   5.318   0.492   4.614  1.3309 -0.2130 -0.2302
11672TIP3   OH256430   1.573   4.866   1.165 -0.3235 -0.3272  0.1180
11672TIP3    H156431   1.517   4.819   1.103  0.1948  0.4484 -0.9408
11672TIP3    H256432   1.556   4.959   1.148 -0.5712 -0.1047  1.5010
11673TIP3   OH256433   0.181   5.430  10.688  0.3344  0.4423 -0.2767
11673TIP3    H156434   0.256   5.487  10.702  0.5614 -0.0437  0.5445
11673TIP3    H256435   0.206   5.347  10.729 -0.6983  0.3203  0.1298
11674TIP3   OH256436   0.974   4.265   5.612 -0.1569  0.7929  0.3487
11674TIP3    H156437   0.951   4.338   5.670 -0.1534  0.0215  1.3431
11674TIP3    H256438   0.891   4.226   5.589 -0.1147  0.6664  0.4098
11675TIP3   OH256439   0.608   3.200  15.288  0.3482  0.3508 -0.3542
11675TIP3    H156440   0.522   3.175  15.253 -0.2245 -2.2169  2.5872
11675TIP3    H256441   0.591   3.278  15.341 -0.0007  0.4142 -0.5597
11676TIP3   OH256442   5.538   1.722  17.204  0.2537 -0.0395  0.2438
11676TIP3    H156443   5.506   1.691  17.289  2.2252  1.5888  1.6108
11676TIP3    H256444   5.603   1.788  17.225 -0.8487  2.0514 -2.5695
11677TIP3   OH256445   1.941   0.759  13.088  0.2813 -0.0172  0.5672
11677TIP3    H156446   1.938   0.740  13.182 -1.4376 -0.4566  0.4464
11677TIP3    H256447   1.849   0.758  13.061  0.5614  2.7091 -0.6099
11678TIP3   OH256448   3.198   1.209   2.586  0.5124 -0.3010  0.1908
11678TIP3    H156449   3.118   1.262   2.585 -0.2866 -1.5265 -0.6063
11678TIP3    H256450   3.254   1.250   2.521  0.1520 -0.0193  0.0528
11679TIP3   OH256451   1.505   5.278   2.984 -0.0972 -0.2026  0.0045
11679TIP3    H156452   1.521   5.310   2.896  1.0652 -2.3177 -0.5710
11679TIP3    H256453   1.426   5.325   3.012 -1.2668 -0.4889 -2.6557
11680TIP3   OH256454   2.705   3.368   1.408  0.0199 -0.5672  0.1412
11680TIP3    H156455   2.660   3.290   1.440 -1.3679  0.1415 -0.0450
11680TIP3    H256456   2.638   3.417   1.360  0.9170  0.6449  0.0860
11681TIP3   OH256457   3.514   5.594  11.234 -0.0813 -0.3837  0.6377
11681TIP3    H156458   3.451   5.633  11.174  0.1597  0.0293  0.6470
11681TIP3    H256459   3.491   5.630  11.320  0.2859 -0.0759  0.6103
11682TIP3   OH256460   6.087   5.964   4.539  0.1249 -0.1795 -0.0124
11682TIP3    H156461   6.039   5.965   4.622  0.3687 -1.3209  0.1375
11682TIP3    H256462   6.020   5.950   4.472  0.1385 -0.9606  0.1328
11683TIP3   OH256463   4.445   6.170  14.397 -0.1351 -0.3536  0.2860
11683TIP3    H156464   4.427   6.115  14.473  0.6749 -1.2818 -0.1806
11683TIP3    H256465   4.396   6.128  14.325 -0.5334  0.2595  0.1917
11684TIP3   OH256466   4.116   3.895   1.417 -0.2101  0.1275  0.2289
11684TIP3    H156467   4.070   3.951   1.354 -2.0078 -1.4750  0.0696
11684TIP3    H256468   4.096   3.806   1.388  2.5068 -0.6155  0.5472
11685TIP3   OH256469   6.504   0.815  14.033 -0.2305 -0.3260  0.2614
11685TIP3    H156470   6.582   0.770  14.001  0.0538  1.1673 -1.1992
11685TIP3    H256471   6.524   0.908  14.021 -1.5417  0.1243  1.5056
11686TIP3   OH256472   3.862   6.411  13.176 -1.0678 -0.7949 -0.2956
11686TIP3    H156473   3.789   6.387  13.119 -1.5462 -1.0119  0.3950
11686TIP3    H256474   3.912   6.330  13.188 -1.0724 -0.7930 -0.2622
11687TIP3   OH256475   4.243   1.462  15.751 -0.1119  0.0154 -0.3601
11687TIP3    H156476   4.202   1.505  15.826 -1.2516 -1.1081 -0.3222
11687TIP3    H256477   4.285   1.533  15.703 -2.3440  1.2573 -0.5364
11688TIP3   OH256478   2.003   4.116   0.089 -0.3055  0.4273  0.4854
11688TIP3    H156479   1.944   4.059   0.139 -0.6105  0.3330  0.0187
11688TIP3    H256480   2.038   4.177   0.154  1.9453 -1.8259  1.4564
11689TIP3   OH256481   4.071   6.165   0.066 -0.6095  0.4841  0.1103
11689TIP3    H156482   4.127   6.138   0.138 -0.6805  1.4976  0.5433
11689TIP3    H256483   4.130   6.177  -0.008 -0.6415 -1.4057 -0.2535
11690TIP3   OH256484   4.383   5.565  11.490 -0.0420  0.1824  0.5500
11690TIP3    H156485   4.309   5.552  11.430 -0.4334 -1.2568  1.3243
11690TIP3    H256486   4.443   5.493  11.470  0.9473  1.0542  0.2775
11691TIP3   OH256487   5.944   3.976  13.518 -0.3245 -0.4171 -0.4870
11691TIP3    H156488   5.857   4.012  13.536  0.5471  0.5553  1.9663
11691TIP3    H256489   5.940   3.885  13.549 -0.2547 -0.1526  0.3031
11692TIP3   OH256490   3.144   0.879  14.014  0.5210  0.3143 -0.0520
11692TIP3    H156491   3.079   0.933  14.059  1.2105  0.4623  0.7690
11692TIP3    H256492   3.093   0.831  13.948 -0.5128  0.0239  0.9296
11693TIP3   OH256493   5.397   6.723   5.352  0.2110  0.0142 -0.2450
11693TIP3    H156494   5.322   6.765   5.395  2.0599  0.5010  2.6617
11693TIP3    H256495   5.389   6.630   5.376  0.8503  0.1676  0.5843
11694TIP3   OH256496   1.437   0.127  12.502 -0.2763  0.3254 -0.4246
11694TIP3    H156497   1.476   0.169  12.578  0.3709  1.7559 -1.5090
11694TIP3    H256498   1.506   0.070  12.468  0.5912  2.1174 -1.7750
11695TIP3   OH256499   0.164   0.230   2.892  0.2445  0.2629  0.3346
11695TIP3    H156500   0.085   0.210   2.942  0.8297 -1.8594  0.4867
11695TIP3    H256501   0.133   0.276   2.814 -1.1377 -0.6146  0.3578
11696TIP3   OH256502   4.387   2.813  15.282 -0.0718  0.2091 -0.2366
11696TIP3    H156503   4.337   2.844  15.206  0.2358  0.0058 -0.5244
11696TIP3    H256504   4.412   2.724  15.259 -0.4581 -0.0544  0.3473
11697TIP3   OH256505   5.460   3.824   3.146 -0.1273  0.0446  0.2364
11697TIP3    H156506   5.462   3.769   3.224  0.6844 -0.3586 -0.0574
11697TIP3    H256507   5.529   3.889   3.161  0.3689 -0.3396 -0.3578
11698TIP3   OH256508   4.293   3.790  16.831 -0.1086 -0.1627  0.6533
11698TIP3    H156509   4.381   3.752  16.823  0.2090  0.5330  0.8065
11698TIP3    H256510   4.240   3.720  16.869  0.5738 -0.3076  1.3504
11699TIP3   OH256511   1.349   3.686  15.051 -0.3702 -0.4534  0.1272
11699TIP3    H156512   1.395   3.770  15.059 -1.6910  0.1268  1.7088
11699TIP3    H256513   1.321   3.683  14.959  1.9610 -0.3829 -0.6279
11700TIP3   OH256514   0.217   5.550   6.197 -0.1940  0.3235 -0.0700
11700TIP3    H156515   0.216   5.475   6.256 -1.3945  0.0573 -0.4134
11700TIP3    H256516   0.260   5.518   6.118 -0.5938  0.0225 -0.1690
11701TIP3   OH256517   2.660   3.981  11.998  0.0575 -0.4414  0.6485
11701TIP3    H156518   2.624   3.931  11.925 -0.0551 -2.3771  1.9693
11701TIP3    H256519   2.744   4.013  11.967 -1.1035  0.8912 -1.1716
11702TIP3   OH256520   6.742   5.691  12.478 -0.9230 -0.2873  0.1104
11702TIP3    H156521   6.782   5.769  12.441 -2.1193 -0.3955 -1.4852
11702TIP3    H256522   6.812   5.626  12.480 -0.7068 -0.1452 -1.6050
11703TIP3   OH256523   5.266   2.603  11.382 -0.1860  0.1407  0.4865
11703TIP3    H156524   5.259   2.680  11.326  2.5649 -0.6971 -1.0669
11703TIP3    H256525   5.305   2.636  11.463 -0.2008  0.5966  0.3087
11704TIP3   OH256526   2.686   5.964  13.265 -0.3337  0.2423  0.3153
11704TIP3    H156527   2.641   5.893  13.219  1.3075 -0.4163 -0.2977
11704TIP3    H256528   2.756   5.990  13.206  0.0983  1.2585  1.2634
11705TIP3   OH256529   5.162   3.572  15.764  0.4579  0.1169  0.4253
11705TIP3    H156530   5.146   3.565  15.858  0.1321  0.9364  0.4361
11705TIP3    H256531   5.187   3.663  15.751  1.8213 -0.3138 -0.0816
11706TIP3   OH256532   3.079   6.743   2.533  0.0770 -0.0835 -0.1004
11706TIP3    H156533   3.175   6.743   2.534  0.0978  1.4838 -1.0686
11706TIP3    H256534   3.055   6.697   2.613  1.6397 -1.1961 -0.2337
11707TIP3   OH256535   0.036   1.902  12.404 -0.1527 -0.1684 -0.0826
11707TIP3    H156536   0.054   1.918  12.311  0.3572 -0.4422 -0.0316
11707TIP3    H256537   0.087   1.824  12.425 -0.3056 -0.1348  0.4195
11708TIP3   OH256538   3.694   1.419  17.100 -0.2615 -0.0311  0.4752
11708TIP3    H156539   3.621   1.446  17.157  1.0524  0.9858  1.7031
11708TIP3    H256540   3.710   1.328  17.125  0.0023  0.2684  1.4378
11709TIP3   OH256541   0.590   4.253  16.938  0.9145  0.2097 -0.1737
11709TIP3    H156542   0.673   4.207  16.951 -0.5544 -2.5943 -0.2978
11709TIP3    H256543   0.587   4.271  16.843  1.6086  0.8252 -0.0852
11710TIP3   OH256544   0.555   5.829   0.345 -0.0307  0.4893 -0.4482
11710TIP3    H156545   0.630   5.797   0.294 -0.2471  1.2936 -1.2978
11710TIP3    H256546   0.519   5.901   0.292 -0.2100  1.4122  0.8932
11711TIP3   OH256547   2.969   5.378  13.520 -0.0388 -0.1635 -0.3542
11711TIP3    H156548   2.989   5.368  13.613 -0.2242 -1.4852 -0.4547
11711TIP3    H256549   2.910   5.454  13.517  0.9510  0.6507  0.4615
11712TIP3   OH256550   1.290   4.637   4.663  0.1583  0.1642  0.0558
11712TIP3    H156551   1.282   4.548   4.698 -1.2241  1.0597  2.0778
11712TIP3    H256552   1.378   4.639   4.624  1.2196 -1.3255  2.2521
11713TIP3   OH256553   5.124   0.624   5.704  0.1343 -0.1894 -0.0117
11713TIP3    H156554   5.121   0.643   5.610  0.9038 -0.1288 -0.0281
11713TIP3    H256555   5.217   0.607   5.722 -0.0996 -0.8002  0.6202
11714TIP3   OH256556   0.485   1.338   3.024  0.1590  0.1881 -0.2628
11714TIP3    H156557   0.399   1.330   3.063 -0.0237  0.4308 -0.6062
11714TIP3    H256558   0.546   1.312   3.093 -0.1936 -0.0971 -0.0579
11715TIP3   OH256559   4.387   3.021   5.664  0.2537 -0.4228 -0.1802
11715TIP3    H156560   4.392   2.983   5.576  2.2116  0.0978 -0.3305
11715TIP3    H256561   4.294   3.038   5.678 -0.0919 -0.6229 -2.1129
11716TIP3   OH256562   1.309   1.942  14.427 -0.1888  0.1782 -0.0549
11716TIP3    H156563   1.311   1.909  14.337  0.0970 -0.1552  0.0692
11716TIP3    H256564   1.307   1.863  14.481 -3.1917  0.3650  0.1765
11717TIP3   OH256565   3.939   2.450   2.656 -0.7695 -0.1401  0.0584
11717TIP3    H156566   3.902   2.538   2.663  0.0461  0.4076 -1.9792
11717TIP3    H256567   4.029   2.459   2.687 -0.5122 -0.1121 -0.6788
11718TIP3   OH256568   0.642   1.498  14.220 -0.2570 -0.4364  0.3897
11718TIP3    H156569   0.697   1.570  14.189  0.1403 -0.7542  0.3588
11718TIP3    H256570   0.590   1.537  14.291  1.1570 -0.5402  1.5165
11719TIP3   OH256571   4.649   0.071  12.733 -0.5515 -0.2550 -0.3731
11719TIP3    H156572   4.564   0.026  12.728  0.1170 -1.5062 -0.7592
11719TIP3    H256573   4.641   0.143  12.670 -1.4749 -0.1131 -0.1018
11720TIP3   OH256574   6.031   6.751  12.507 -0.2743 -0.0162 -0.1241
11720TIP3    H156575   6.123   6.767  12.483  0.8849 -2.6772  2.1908
11720TIP3    H256576   6.001   6.686  12.443  0.2458 -0.9671  0.5811
11721TIP3   OH256577   3.449   4.638  11.211 -0.1460  0.2333 -0.2000
11721TIP3    H156578   3.536   4.627  11.250 -0.0407  0.1030 -0.4737
11721TIP3    H256579   3.449   4.579  11.136 -1.1869 -1.2551  0.9506
11722TIP3   OH256580   5.853   4.325  14.558  0.3300 -0.1570  0.1244
11722TIP3    H156581   5.837   4.371  14.640 -5.0019  0.7081 -1.2253
11722TIP3    H256582   5.884   4.393  14.498 -1.2587  0.3934 -0.0897
11723TIP3   OH256583   4.684   4.741  12.299  0.1031  0.5269  0.1253
11723TIP3    H156584   4.697   4.836  12.299  0.9577  0.4240 -0.7960
11723TIP3    H256585   4.633   4.724  12.219  0.5899  0.1325 -0.1030
11724TIP3   OH256586   4.259   0.235   2.454  0.1344 -0.1027  0.5731
11724TIP3    H156587   4.317   0.206   2.524 -0.5986 -2.7086  0.1685
11724TIP3    H256588   4.315   0.284   2.395  1.8365 -2.0772  0.4802
11725TIP3   OH256589   6.418   3.987   2.552 -0.0955 -0.7782 -0.7635
11725TIP3    H156590   6.346   4.032   2.598  1.3225 -1.9571  2.7368
11725TIP3    H256591   6.466   4.057   2.508 -0.1814  0.7044  1.4458
11726TIP3   OH256592   1.141   3.353   3.392 -0.1172 -0.2234  0.2959
11726TIP3    H156593   1.202   3.293   3.435 -2.1569 -1.9892  0.8336
11726TIP3    H256594   1.168   3.354   3.300  0.8490 -0.7960  0.5688
11727TIP3   OH256595   6.701   1.732  13.618 -0.8683 -1.0427 -0.7563
11727TIP3    H156596   6.640   1.739  13.691 -1.0000 -0.6587 -0.8958
11727TIP3    H256597   6.648   1.702  13.545 -0.8432 -0.9471 -0.8165
11728TIP3   OH256598   6.633   3.015  13.352 -0.4148 -0.7223  0.3423
11728TIP3    H156599   6.704   2.983  13.297 -0.8086 -0.3948 -0.3583
11728TIP3    H256600   6.564   3.041  13.291 -1.2329 -1.2542  1.0280
11729TIP3   OH256601   0.844   0.518   0.932 -0.5804  0.1293 -0.3450
11729TIP3    H156602   0.903   0.480   0.997 -1.1951  0.5741  0.4761
11729TIP3    H256603   0.796   0.444   0.896 -0.6483 -0.0559  0.1207
11730TIP3   OH256604   2.341   6.725   2.565 -0.0500  0.6011  0.5418
11730TIP3    H156605   2.299   6.639   2.564 -0.4994  0.8080  1.4516
11730TIP3    H256606   2.435   6.706   2.567 -0.1273  0.1364 -0.1507
11731TIP3   OH256607   4.640   4.940   0.799  0.2053 -0.3685 -0.0762
11731TIP3    H156608   4.594   5.003   0.854 -0.8670  2.5014 -4.0691
11731TIP3    H256609   4.733   4.956   0.817 -0.0873 -1.9782  3.4218
11732TIP3   OH256610   0.654   5.128   2.037 -0.0018 -0.1589 -0.0756
11732TIP3    H156611   0.632   5.178   1.958 -0.2338  0.8755  0.6403
11732TIP3    H256612   0.596   5.162   2.105  1.8290  0.6112  1.1451
11733TIP3   OH256613   3.233   3.130   3.079  0.1574  0.0262  0.3320
11733TIP3    H156614   3.186   3.170   3.005 -0.4294 -1.3737 -0.0749
11733TIP3    H256615   3.207   3.183   3.154 -0.5693  0.4526 -0.2045
11734TIP3   OH256616   0.088   6.154  14.782  0.1539  0.0626  0.1255
11734TIP3    H156617   0.037   6.234  14.769 -0.0803 -0.0816  0.1398
11734TIP3    H256618   0.152   6.176  14.850  1.1124  0.6945 -0.9708
11735TIP3   OH256619   3.113   1.460  11.083  0.7467  0.0850  0.4169
11735TIP3    H156620   3.145   1.550  11.071  2.8077 -0.7270 -0.4472
11735TIP3    H256621   3.191   1.405  11.069 -0.1791 -1.7649  2.2881
11736TIP3   OH256622   1.009   1.491   3.637 -0.4171 -0.1989 -0.0118
11736TIP3    H156623   1.063   1.563   3.606  0.3792 -1.4639 -1.6657
11736TIP3    H256624   1.061   1.412   3.620 -2.7800 -1.4641 -1.7736
11737TIP3   OH256625   2.874   0.787  10.971  0.4187  0.4955 -0.1124
11737TIP3    H156626   2.805   0.790  10.904  0.2712  2.6099  0.0956
11737TIP3    H256627   2.955   0.803  10.923  0.3289  1.8565  0.1516
11738TIP3   OH256628   6.279   4.681  16.618  0.2627 -0.0178  0.3740
11738TIP3    H156629   6.281   4.770  16.584  1.6874 -0.5025 -0.8310
11738TIP3    H256630   6.186   4.663  16.633 -0.2537  0.7438 -1.8266
11739TIP3   OH256631   0.178   4.589  13.993 -0.6747  0.0526 -0.1809
11739TIP3    H156632   0.185   4.571  13.899  0.3421 -0.3173 -0.0456
11739TIP3    H256633   0.251   4.541  14.031 -0.6944  0.7409  0.7272
11740TIP3   OH256634   0.128   1.096  15.189 -0.3732 -0.0265 -0.3405
11740TIP3    H156635   0.090   1.019  15.231  0.4251 -0.7633 -0.9435
11740TIP3    H256636   0.198   1.123  15.248  2.2933 -2.4574 -2.2472
11741TIP3   OH256637   3.380   0.891   2.869  0.0397 -1.1552 -0.0515
11741TIP3    H156638   3.292   0.916   2.895 -1.0182 -2.0710 -2.6017
11741TIP3    H256639   3.382   0.796   2.876  1.2151 -1.0619  1.1173
11742TIP3   OH256640   0.831   1.388   0.744 -0.4980  0.0331  0.3185
11742TIP3    H156641   0.763   1.383   0.677 -2.6831 -0.7348  2.5034
11742TIP3    H256642   0.895   1.321   0.719 -1.1790 -0.1089 -1.0843
11743TIP3   OH256643   5.589   0.553  12.377 -1.1891 -0.8114  0.1693
11743TIP3    H156644   5.641   0.478  12.407 -2.6774 -1.5494  0.9767
11743TIP3    H256645   5.507   0.545  12.425 -2.2078  0.0930 -1.4025
11744TIP3   OH256646   5.431   5.972   1.738 -0.1606  0.7682  0.0842
11744TIP3    H156647   5.521   6.001   1.730 -0.2895  1.2854  0.4964
11744TIP3    H256648   5.385   6.017   1.667  0.4257 -1.6810 -1.9521
11745TIP3   OH256649   6.566   3.395   3.967  0.0435  0.4701 -0.0310
11745TIP3    H156650   6.564   3.334   3.893 -0.0406 -1.0204  1.1773
11745TIP3    H256651   6.599   3.477   3.930 -1.0661  0.0822 -1.9606
11746TIP3   OH256652   0.267   6.592  13.868 -0.1488  0.4786  0.9557
11746TIP3    H156653   0.355   6.556  13.880 -1.1399 -2.7124 -0.8006
11746TIP3    H256654   0.266   6.624  13.778 -1.4834 -1.7429  0.1408
11747TIP3   OH256655   2.650   6.200   2.104 -0.2056  0.6626 -0.1555
11747TIP3    H156656   2.576   6.148   2.076  0.6975 -0.0526 -1.2601
11747TIP3    H256657   2.633   6.288   2.069 -0.5401  0.4980 -0.4020
11748TIP3   OH256658   0.038   0.928   0.234 -0.2920  0.4883 -0.0619
11748TIP3    H156659   0.015   0.981   0.158 -1.1730  1.5339  0.9163
11748TIP3    H256660  -0.032   0.946   0.297 -1.6086 -3.1927 -0.3585
11749TIP3   OH256661   2.958   2.417   2.975 -0.6722 -0.4293 -0.7620
11749TIP3    H156662   3.021   2.354   3.011  0.4076  0.7985 -0.4190
11749TIP3    H256663   2.945   2.390   2.885  0.6000 -0.5416 -0.9266
11750TIP3   OH256664   5.940   1.686  12.235 -0.4012 -0.4052  0.0935
11750TIP3    H156665   5.933   1.685  12.331 -0.6590 -1.5669  0.0732
11750TIP3    H256666   6.018   1.633  12.217  0.4254  0.9292 -0.2889
11751TIP3   OH256667   3.764   6.342   1.760  0.0085  0.1452  0.3153
11751TIP3    H156668   3.777   6.345   1.855  0.0134  1.2810  0.2926
11751TIP3    H256669   3.724   6.427   1.739 -2.4039 -1.1120 -0.3454
11752TIP3   OH256670   1.975   1.046   3.907 -0.5525 -0.5607  0.0294
11752TIP3    H156671   1.980   0.980   3.976 -1.8278 -0.5219  0.1727
11752TIP3    H256672   2.063   1.047   3.868 -0.4213 -2.0877  0.2558
11753TIP3   OH256673   5.305   6.545  11.507  0.3532  0.3062 -0.0775
11753TIP3    H156674   5.245   6.600  11.558  0.5896  0.6139 -0.1345
11753TIP3    H256675   5.279   6.560  11.416  1.0514  1.0667 -0.1560
11754TIP3   OH256676   0.223   1.719   0.662 -0.5722  0.3760  0.8920
11754TIP3    H156677   0.236   1.717   0.757 -1.4712  1.4933  1.0422
11754TIP3    H256678   0.192   1.631   0.640  4.1037 -1.4146  0.9502
11755TIP3   OH256679   2.000   3.550   5.000 -0.0347 -0.7818 -0.4612
11755TIP3    H156680   2.065   3.568   4.932 -0.0720 -1.2436 -0.6204
11755TIP3    H256681   1.933   3.498   4.956  0.2050 -1.5348  0.0504
11756TIP3   OH256682   3.788   3.487  11.786 -0.1953 -0.0949 -0.0286
11756TIP3    H156683   3.818   3.537  11.862 -1.2034  0.6750 -0.1323
11756TIP3    H256684   3.714   3.537  11.752  0.5250 -0.1809 -1.7891
11757TIP3   OH256685   0.366   2.967   5.708  0.5867  0.1644 -0.1898
11757TIP3    H156686   0.297   3.006   5.654 -0.8954  0.0972  1.6257
11757TIP3    H256687   0.412   2.908   5.648 -1.1518 -0.0549 -1.3632
11758TIP3   OH256688   2.028   4.095   5.888  0.2480 -0.8832  0.7445
11758TIP3    H156689   2.063   4.015   5.928  0.6046 -0.3800  1.4569
11758TIP3    H256690   2.017   4.155   5.962  1.4191  0.2429  0.0192
11759TIP3   OH256691   2.952   1.110   3.506 -0.0931  0.2509  0.1160
11759TIP3    H156692   2.884   1.163   3.547 -1.2605 -1.1239 -0.0167
11759TIP3    H256693   2.921   1.020   3.513  2.0544 -0.4771  0.6973
11760TIP3   OH256694   4.554   3.727  13.393  0.6585 -0.0260  0.0059
11760TIP3    H156695   4.540   3.821  13.384  1.7684  0.2441  1.0353
11760TIP3    H256696   4.538   3.709  13.486  2.7599 -0.4566  0.2958
11761TIP3   OH256697   3.092   5.668  14.375 -0.0986  0.6370  0.3824
11761TIP3    H156698   3.148   5.642  14.302  1.3783  0.0573  1.7234
11761TIP3    H256699   3.003   5.650  14.344  0.6444 -1.8991 -0.3620
11762TIP3   OH256700   2.693   2.302   4.293 -0.6412  0.0933 -0.1913
11762TIP3    H156701   2.649   2.270   4.372  2.5424  2.3164  2.6189
11762TIP3    H256702   2.641   2.378   4.266  0.6915  2.0107  2.4332
11763TIP3   OH256703   5.171   1.772   5.287  0.2295  0.5762  0.1319
11763TIP3    H156704   5.190   1.774   5.381  1.9869  0.0228 -0.1930
11763TIP3    H256705   5.199   1.857   5.255  0.2742  0.5059 -0.0140
11764TIP3   OH256706   6.059   2.149   4.990 -0.5969  0.4402 -0.1556
11764TIP3    H156707   5.995   2.139   4.919 -0.3375  0.3775 -0.3830
11764TIP3    H256708   6.135   2.188   4.948  1.0860 -3.2508 -0.7758
11765TIP3   OH256709   2.099   4.533   5.063 -0.0985 -0.1356 -0.4344
11765TIP3    H156710   2.048   4.455   5.088 -1.7797  1.5381  1.6043
11765TIP3    H256711   2.092   4.536   4.968 -2.4673 -0.9143 -0.3328
11766TIP3   OH256712   5.387   3.816  17.206  0.5677  0.4952 -0.8527
11766TIP3    H156713   5.404   3.774  17.290 -0.8536  0.1447 -0.7354
11766TIP3    H256714   5.354   3.903  17.229 -1.0882 -0.0720 -1.0048
11767TIP3   OH256715   2.582   6.634  11.252  0.6695  0.1725 -0.2161
11767TIP3    H156716   2.609   6.678  11.172  0.2223  1.3676  0.2718
11767TIP3    H256717   2.663   6.596  11.287  0.8151 -0.5697 -1.3634
11768TIP3   OH256718   1.027   3.432   4.193 -0.3751  0.1032  0.2272
11768TIP3    H156719   0.974   3.470   4.264 -2.7587 -0.6470 -1.0682
11768TIP3    H256720   1.046   3.343   4.222  1.4192  0.8373  1.3257
11769TIP3   OH256721   1.510   5.460  12.672 -0.3956 -0.4411  0.2320
11769TIP3    H156722   1.505   5.387  12.734  1.1634 -0.3648  0.4684
11769TIP3    H256723   1.539   5.534  12.726 -0.7522  0.0545 -0.2550
11770TIP3   OH256724   4.798   5.670   4.059 -0.2355 -0.7766  0.2273
11770TIP3    H156725   4.770   5.705   3.975 -1.5232 -1.4506  0.3635
11770TIP3    H256726   4.738   5.709   4.123  0.7172 -0.2863  0.8445
11771TIP3   OH256727   2.846   0.214  14.151  0.0272  0.4397 -0.2208
11771TIP3    H156728   2.798   0.139  14.115  0.3386  0.0501  0.1726
11771TIP3    H256729   2.797   0.290  14.120 -0.1064  0.0885 -0.8908
11772TIP3   OH256730   0.247   3.847  15.575 -0.0994  0.2292 -1.0806
11772TIP3    H156731   0.238   3.894  15.493 -0.9965  1.6555 -0.1755
11772TIP3    H256732   0.202   3.901  15.640 -0.3034 -1.3761  0.1673
11773TIP3   OH256733   4.384   3.323   3.786 -0.7796  0.6724 -0.1490
11773TIP3    H156734   4.387   3.419   3.789 -2.6581  0.7540 -0.1965
11773TIP3    H256735   4.315   3.303   3.723 -1.2952 -0.6872  0.8076
11774TIP3   OH256736   1.023   3.664  11.551  0.7292 -0.1160  0.2338
11774TIP3    H156737   1.014   3.677  11.457  0.9365  0.0465  0.2359
11774TIP3    H256738   0.968   3.588  11.570 -0.4694  0.7333  0.2198
11775TIP3   OH256739   1.661   1.146   2.919 -0.3837 -0.0968 -0.1979
11775TIP3    H156740   1.656   1.157   2.824 -2.3125 -1.2839 -0.2725
11775TIP3    H256741   1.640   1.232   2.954  0.3235  0.3460 -0.8411
11776TIP3   OH256742   6.763   0.628   3.730 -0.1129 -0.6615  0.1615
11776TIP3    H156743   6.792   0.559   3.790  0.9725 -1.1204 -0.8831
11776TIP3    H256744   6.683   0.594   3.690  1.2267 -1.9740 -1.4635
11777TIP3   OH256745   3.229   2.824   1.626  0.3627 -0.0574  0.0728
11777TIP3    H156746   3.282   2.888   1.674 -0.2501 -1.1969  2.2973
11777TIP3    H256747   3.160   2.876   1.585  0.3148  0.7963  1.2291
11778TIP3   OH256748   3.268   3.374  12.239 -0.4460 -0.3774 -0.5390
11778TIP3    H156749   3.342   3.349  12.184  0.5627 -1.4447  1.2898
11778TIP3    H256750   3.228   3.292  12.265 -1.5946  0.1637 -0.5744
11779TIP3   OH256751   5.625   5.289   6.015 -0.0024  0.3597  0.2461
11779TIP3    H156752   5.683   5.359   5.985 -0.9671  1.5538  1.1405
11779TIP3    H256753   5.626   5.296   6.111  2.9657 -3.3362  0.6099
11780TIP3   OH256754   2.839   5.226  10.543 -0.3469  0.5520 -0.4597
11780TIP3    H156755   2.889   5.153  10.507  0.0969  0.6982 -0.1379
11780TIP3    H256756   2.859   5.226  10.636 -1.7410 -0.0227 -0.1465
11781TIP3   OH256757   2.540   2.194   1.723  0.2133 -0.3035  0.1193
11781TIP3    H156758   2.575   2.254   1.657  1.7222 -2.0223 -0.6760
11781TIP3    H256759   2.588   2.216   1.803  1.6363 -1.2280 -0.4602
11782TIP3   OH256760   3.383   5.354   5.827  0.2416 -0.2631 -0.1587
11782TIP3    H156761   3.343   5.267   5.831 -2.2502  0.9176  2.1728
11782TIP3    H256762   3.446   5.354   5.899 -0.4541  0.1730  0.4552
11783TIP3   OH256763   3.014   6.649  11.391  0.0872 -0.8055  0.1363
11783TIP3    H156764   3.055   6.700  11.321 -1.2012 -0.0760 -0.1063
11783TIP3    H256765   3.018   6.559  11.360  1.3347 -0.7248  0.0326
11784TIP3   OH256766   2.371   1.193   4.332 -0.0912  0.4306  0.0960
11784TIP3    H156767   2.403   1.177   4.421 -2.0860  2.9587  1.3165
11784TIP3    H256768   2.443   1.238   4.289  0.7250 -0.4233  0.5443
11785TIP3   OH256769   0.893   4.178  16.436 -0.2845 -0.7087 -0.1488
11785TIP3    H156770   0.919   4.260  16.477 -0.2400 -0.8195  0.0468
11785TIP3    H256771   0.971   4.123  16.440  0.0068 -0.3976 -1.2095
11786TIP3   OH256772   4.009   1.423   2.007  0.3541 -0.4015 -0.2398
11786TIP3    H156773   4.027   1.330   2.024 -0.8675 -0.2784  1.9694
11786TIP3    H256774   4.082   1.469   2.050 -0.3422 -0.2718  0.8411
11787TIP3   OH256775   2.163   6.512   4.089  0.0140 -0.5665  0.6464
11787TIP3    H156776   2.198   6.449   4.152  0.4302 -0.3340  0.6549
11787TIP3    H256777   2.200   6.596   4.117 -1.0379 -0.2145  1.0104
11788TIP3   OH256778   0.581   1.643   4.510  0.0884  0.5529  0.0805
11788TIP3    H156779   0.672   1.666   4.492 -0.2060  1.3914 -0.3715
11788TIP3    H256780   0.583   1.549   4.528  1.1286  0.6804  0.6668
11789TIP3   OH256781   3.400   6.463   4.468 -0.3854 -0.1013  0.8124
11789TIP3    H156782   3.455   6.444   4.544 -1.2772  1.6210  1.9156
11789TIP3    H256783   3.457   6.510   4.407 -0.0494 -0.2620  1.0048
11790TIP3   OH256784   1.775   4.867  14.741 -0.1177 -0.7098  0.2711
11790TIP3    H156785   1.753   4.959  14.757 -0.0410 -0.6324 -0.0780
11790TIP3    H256786   1.802   4.834  14.827 -0.5565 -0.5211  0.4822
11791TIP3   OH256787   4.165   4.376   1.030 -0.2083  0.4550 -0.5296
11791TIP3    H156788   4.105   4.344   1.097 -0.1068 -0.1937 -0.7425
11791TIP3    H256789   4.206   4.454   1.070  0.6916 -0.5775  0.6129
11792TIP3   OH256790   6.643   0.598   1.854  0.0075 -0.0585  0.1353
11792TIP3    H156791   6.571   0.631   1.908 -0.0223  0.7894 -0.4060
11792TIP3    H256792   6.671   0.674   1.802  1.9067 -0.1137  1.0106
11793TIP3   OH256793   3.835   4.137   1.957  0.1636 -0.6204  0.1019
11793TIP3    H156794   3.922   4.172   1.973  0.1041 -0.1060 -0.6587
11793TIP3    H256795   3.838   4.106   1.866 -1.3117  2.0980 -0.9312
11794TIP3   OH256796   6.654   6.756  12.117 -0.3392 -0.4392 -0.5798
11794TIP3    H156797   6.609   6.836  12.145 -0.4510 -0.7223  0.0610
11794TIP3    H256798   6.650   6.698  12.193  0.6143 -0.6773 -0.6952
11795TIP3   OH256799   6.403   1.880  11.284 -0.4766  0.6028  0.2259
11795TIP3    H156800   6.453   1.799  11.275  1.6830  1.5916  2.5546
11795TIP3    H256801   6.444   1.925  11.358 -3.9137  2.1682  1.2840
11796TIP3   OH256802   3.250   1.986  16.231 -0.3823  0.4842  0.0298
11796TIP3    H156803   3.327   1.954  16.279  0.6620  1.7688 -0.7447
11796TIP3    H256804   3.285   2.054  16.174 -2.0521  0.7976 -0.6285
11797TIP3   OH256805   5.238   5.307  14.232  0.4144 -0.4552  0.3216
11797TIP3    H156806   5.248   5.260  14.314 -1.2451 -1.7527 -0.1747
11797TIP3    H256807   5.152   5.349  14.239 -0.0647 -1.1820 -1.0251
11798TIP3   OH256808   1.201   2.093   4.970 -0.7781  0.1197 -0.1405
11798TIP3    H156809   1.170   2.003   4.961  0.1905 -0.2888  0.5685
11798TIP3    H256810   1.131   2.146   4.931 -2.6304 -0.7250  1.9224
11799TIP3   OH256811   1.360   1.631   4.665  0.8651 -0.5033  0.4145
11799TIP3    H156812   1.428   1.593   4.720 -0.2272  0.7422  2.7167
11799TIP3    H256813   1.362   1.725   4.685 -0.5900 -0.2515 -0.5117
11800TIP3   OH256814   1.226   5.489  16.934 -0.1413  0.2690  0.2463
11800TIP3    H156815   1.233   5.533  16.849 -1.4595  1.6868  0.8349
11800TIP3    H256816   1.131   5.477  16.946  0.1006 -0.8773  1.0357
11801TIP3   OH256817   1.727   3.096  13.880  0.0066 -0.5204 -0.2644
11801TIP3    H156818   1.684   3.150  13.814 -0.6101  0.5868  1.0023
11801TIP3    H256819   1.657   3.046  13.921  0.2864 -0.6752  0.0324
11802TIP3   OH256820   4.725   1.348  15.744 -0.1968 -0.0623  0.4406
11802TIP3    H156821   4.735   1.442  15.759  2.7314 -0.3162  0.2593
11802TIP3    H256822   4.741   1.336  15.650 -0.1534 -0.7985  0.5355
11803TIP3   OH256823   4.761   4.682   1.719 -0.5327 -0.0071  0.5409
11803TIP3    H156824   4.741   4.591   1.738  2.6944 -1.0316 -0.5886
11803TIP3    H256825   4.848   4.696   1.757  0.1117  1.8195 -1.4872
11804TIP3   OH256826   4.031   2.397  11.099 -0.1484 -0.2845 -0.6730
11804TIP3    H156827   4.041   2.302  11.092  0.6730 -0.3865  1.3413
11804TIP3    H256828   4.120   2.429  11.109 -0.5627  0.4947  0.6149
11805TIP3   OH256829   1.544   1.042  11.704  0.6131  0.2922  0.1712
11805TIP3    H156830   1.578   1.063  11.791  0.1120 -1.5144  0.8323
11805TIP3    H256831   1.578   0.954  11.686 -0.2256  0.1905 -0.9639
11806TIP3   OH256832   2.450   1.773   5.057  0.2865  0.1592  0.3684
11806TIP3    H156833   2.441   1.860   5.097 -0.1737 -0.1105  0.8515
11806TIP3    H256834   2.536   1.743   5.086 -0.6373 -0.6378  2.3681
11807TIP3   OH256835   0.812   6.607  17.098  0.1413 -0.1694  0.0103
11807TIP3    H156836   0.889   6.635  17.148  0.1201  2.1756 -1.1940
11807TIP3    H256837   0.738   6.628  17.155  0.1631  1.7258 -0.6316
11808TIP3   OH256838   3.785   3.931  11.454 -0.3106  0.1880 -0.1519
11808TIP3    H156839   3.736   3.887  11.384 -0.9519 -0.8221  0.9084
11808TIP3    H256840   3.739   4.014  11.466 -1.7932 -0.7363  0.8202
11809TIP3   OH256841   2.925   1.966  15.822 -0.2970  0.9841  0.4647
11809TIP3    H156842   2.957   2.000  15.905  0.2258  0.8136  0.3378
11809TIP3    H256843   2.961   2.026  15.756  2.5294 -1.0839  0.0549
11810TIP3   OH256844   1.335   4.394  13.060  0.1246  0.9029 -0.3094
11810TIP3    H156845   1.367   4.334  12.993 -0.4045  1.2054 -0.8406
11810TIP3    H256846   1.262   4.440  13.019 -0.8157  0.4274  0.7876
11811TIP3   OH256847   1.534   0.623  16.152 -0.4102 -0.0379  0.5253
11811TIP3    H156848   1.485   0.572  16.217  0.0038 -1.4395 -0.2361
11811TIP3    H256849   1.593   0.559  16.112  0.4868  1.1653 -0.0976
11812TIP3   OH256850   0.960   5.218   0.692  0.0300 -0.2411  0.0774
11812TIP3    H156851   0.940   5.154   0.625 -1.0496  0.5310 -0.3628
11812TIP3    H256852   0.972   5.167   0.772 -0.8410 -0.9908 -0.2664
11813TIP3   OH256853   1.640   6.054  17.132 -0.0926  0.2759  0.7748
11813TIP3    H156854   1.674   6.142  17.149  0.7488  0.0785  0.1332
11813TIP3    H256855   1.716   5.996  17.139 -0.1703 -0.1104 -1.1395
11814TIP3   OH256856   0.449   5.178  11.305  0.6776  0.2189  0.0564
11814TIP3    H156857   0.356   5.169  11.325  0.8118  1.4578  1.3353
11814TIP3    H256858   0.452   5.237  11.230  0.3644 -1.1799 -1.0763
11815TIP3   OH256859   1.129   4.402  17.211 -0.2764  0.3803 -0.0084
11815TIP3    H156860   1.209   4.450  17.190  0.4970 -1.2587 -0.9200
11815TIP3    H256861   1.119   4.340  17.138 -2.3139  0.4981  0.1610
11816TIP3   OH256862   2.624   5.435  17.183 -0.0869  0.2791 -0.0972
11816TIP3    H156863   2.684   5.431  17.257 -0.0264 -0.8984 -0.1942
11816TIP3    H256864   2.647   5.359  17.130  2.2879  3.0820 -3.2496
11817TIP3   OH256865   1.046   1.767   3.559 -0.0639  0.7285  0.1971
11817TIP3    H156866   0.951   1.754   3.564 -0.5233  3.3632 -0.6880
11817TIP3    H256867   1.059   1.823   3.482  2.5278 -2.0262 -1.4516
11818TIP3   OH256868   4.151   3.565  11.830 -0.0717 -0.5711 -0.4900
11818TIP3    H156869   4.234   3.547  11.874 -0.9381 -1.1921  0.9258
11818TIP3    H256870   4.168   3.644  11.779  1.8971 -1.6996 -1.6423
11819TIP3   OH256871   5.844   0.386   5.455 -0.2109  0.0344 -0.2270
11819TIP3    H156872   5.817   0.368   5.365 -1.7768  2.4695 -0.2644
11819TIP3    H256873   5.884   0.473   5.452 -0.8457  0.4072  1.5574
11820TIP3   OH256874   2.511   2.902   3.908  0.4900 -0.2129 -0.4370
11820TIP3    H156875   2.588   2.896   3.964 -0.1705  1.3671  0.6682
11820TIP3    H256876   2.437   2.880   3.965  0.1542 -2.5811 -1.6957
11821TIP3   OH256877   5.274   1.869   1.877 -0.1090 -0.0010  0.5891
11821TIP3    H156878   5.225   1.793   1.846  0.2886  0.0120 -0.0612
11821TIP3    H256879   5.207   1.929   1.908 -0.4525 -0.3769  0.5844
11822TIP3   OH256880   5.645   0.901   5.376 -0.8592 -0.2794  0.6249
11822TIP3    H156881   5.658   0.816   5.417 -0.6030 -0.1523  0.8100
11822TIP3    H256882   5.640   0.962   5.449 -3.6594 -0.4607  0.6312
11823TIP3   OH256883   0.125   1.966   5.590  1.2874 -0.1607 -0.3183
11823TIP3    H156884   0.131   1.981   5.684 -0.2946  0.1266 -0.2490
11823TIP3    H256885   0.181   1.890   5.574  1.3080 -0.4055  0.9091
11824TIP3   OH256886   4.096   5.762   3.493  0.2751 -0.2256 -0.6403
11824TIP3    H156887   4.140   5.686   3.456  0.5478 -0.2787 -0.2140
11824TIP3    H256888   4.044   5.726   3.566  0.3411 -0.0173 -0.4901
11825TIP3   OH256889   0.901   4.843  13.658 -0.6696  0.0211 -0.0662
11825TIP3    H156890   0.905   4.874  13.568  0.5290 -2.9668 -1.1365
11825TIP3    H256891   0.842   4.767  13.654 -1.5359  0.5606  1.9133
11826TIP3   OH256892   1.841   2.729   0.782 -0.0787  0.0601 -0.1507
11826TIP3    H156893   1.763   2.720   0.728  0.0026  0.9020 -0.4102
11826TIP3    H256894   1.810   2.722   0.872 -0.2285 -1.2447 -0.2975
11827TIP3   OH256895   3.647   2.711  13.994 -0.1957 -0.1308 -0.5175
11827TIP3    H156896   3.616   2.675  13.911  0.2078  2.1916 -1.7231
11827TIP3    H256897   3.583   2.779  14.016  2.0655  2.3161 -1.2432
11828TIP3   OH256898   0.542   3.109   1.880 -0.0269 -0.1244  0.1729
11828TIP3    H156899   0.636   3.092   1.889  0.1700 -0.1110 -1.6379
11828TIP3    H256900   0.504   3.024   1.858 -0.4710 -0.1681  1.0915
11829TIP3   OH256901   4.892   1.436  13.516  0.5250 -0.1818  0.0540
11829TIP3    H156902   4.812   1.422  13.465  0.2330 -0.6818  0.6512
11829TIP3    H256903   4.963   1.428  13.452  0.1471 -0.6361 -0.3101
11830TIP3   OH256904   4.185   2.071   6.372 -0.1437  0.2188 -0.5227
11830TIP3    H156905   4.097   2.104   6.352 -1.1991 -1.5298  1.0951
11830TIP3    H256906   4.187   1.983   6.335  0.1860 -0.5426  1.2483
11831TIP3   OH256907   6.354   6.652   1.276 -0.0442  0.0029 -0.0400
11831TIP3    H156908   6.308   6.722   1.229 -1.9573  0.0957  1.8889
11831TIP3    H256909   6.298   6.575   1.266 -0.2811 -0.0703  1.7535
11832TIP3   OH256910   3.808   5.364  14.084 -0.0875  0.2382  0.1866
11832TIP3    H156911   3.745   5.329  14.147 -1.7189  0.7525 -1.1162
11832TIP3    H256912   3.890   5.373  14.133 -0.7134 -1.5768  1.5860
11833TIP3   OH256913   6.693   1.857  10.776 -0.1037 -0.0280  0.2936
11833TIP3    H156914   6.671   1.920  10.844  0.2220 -0.1499  0.5105
11833TIP3    H256915   6.777   1.886  10.741 -0.5045  0.3163 -0.3983
11834TIP3   OH256916   2.100   4.513  13.312  0.5793  0.4752  0.2813
11834TIP3    H156917   2.022   4.569  13.307  0.4488  0.1715 -1.3827
11834TIP3    H256918   2.172   4.570  13.284  0.5826  0.0835 -0.5282
11835TIP3   OH256919   0.754   3.821  13.175  0.2790  0.1625  0.9469
11835TIP3    H156920   0.797   3.904  13.194 -0.3184  0.1688  2.3292
11835TIP3    H256921   0.662   3.844  13.164  0.1704 -0.2695  0.9563
11836TIP3   OH256922   5.847   1.125  16.823  0.0181  0.5433  0.8295
11836TIP3    H156923   5.807   1.078  16.749 -0.2856  0.0120  1.3308
11836TIP3    H256924   5.916   1.178  16.783  1.4564 -1.5590  0.4541
11837TIP3   OH256925   6.423   5.249   4.414 -0.1754 -0.3444  0.0017
11837TIP3    H156926   6.338   5.283   4.442  0.2436  0.2939  0.5178
11837TIP3    H256927   6.402   5.170   4.365 -1.0014 -0.8825  1.1989
11838TIP3   OH256928   0.357   1.032   5.676  1.0469  0.5436 -0.2341
11838TIP3    H156929   0.283   1.076   5.717  0.7951 -0.7409  0.7446
11838TIP3    H256930   0.318   0.960   5.626  1.4905  1.0477 -1.3151
11839TIP3   OH256931   5.527   3.831   4.081 -0.5189 -0.2338  0.0118
11839TIP3    H156932   5.432   3.827   4.096 -0.6401 -2.5280 -1.1751
11839TIP3    H256933   5.538   3.803   3.990  1.2989  0.0674  0.1202
11840TIP3   OH256934   3.167   4.245  14.937 -0.6833  0.1756  0.0814
11840TIP3    H156935   3.179   4.217  14.846 -2.0569 -0.1886 -0.0042
11840TIP3    H256936   3.096   4.309  14.933  0.2975  1.3104  0.7039
11841TIP3   OH256937   3.594   4.103  11.295  0.3849 -0.2334 -1.2585
11841TIP3    H156938   3.530   4.040  11.327  0.4317  0.5540  0.4356
11841TIP3    H256939   3.644   4.055  11.229  1.1212 -2.3045  0.7473
11842TIP3   OH256940   4.424   2.842  13.217 -0.0161  0.0828 -0.1903
11842TIP3    H156941   4.501   2.863  13.271 -0.2084 -1.2116  0.6124
11842TIP3    H256942   4.456   2.777  13.155 -0.6971 -1.1746  0.7734
11843TIP3   OH256943   0.019   3.490   1.684 -0.1460  0.5053 -0.4080
11843TIP3    H156944   0.008   3.554   1.753 -2.5573 -1.9489  1.5982
11843TIP3    H256945   0.088   3.431   1.717 -1.1798 -0.5681 -0.1179
11844TIP3   OH256946   5.008   2.098   5.264  0.4147 -0.0977  0.1572
11844TIP3    H156947   4.975   2.095   5.353 -1.9143  0.4184 -0.6550
11844TIP3    H256948   4.951   2.038   5.215  2.5860 -1.5362 -0.7093
11845TIP3   OH256949   0.825   1.783  15.202 -0.3783  0.2827 -0.7613
11845TIP3    H156950   0.826   1.798  15.107 -0.9330 -0.7823 -0.9486
11845TIP3    H256951   0.742   1.819  15.232 -0.7123 -0.3840 -0.8665
11846TIP3   OH256952   5.575   5.772  11.101  0.1161 -0.0745  0.0240
11846TIP3    H156953   5.659   5.771  11.148  0.2511 -3.5158 -0.1518
11846TIP3    H256954   5.514   5.728  11.160 -1.2098  1.0421 -0.4987
11847TIP3   OH256955   3.198   5.292  15.638  0.2196  0.2037  0.0645
11847TIP3    H156956   3.173   5.219  15.695 -1.0878  0.1620 -0.5399
11847TIP3    H256957   3.288   5.274  15.613 -0.2547 -1.4477 -0.4598
11848TIP3   OH256958   2.731   0.908   0.672  0.2084 -0.5548 -0.3109
11848TIP3    H156959   2.690   0.926   0.757 -0.1274  0.5304 -0.7005
11848TIP3    H256960   2.695   0.974   0.613  3.6119  1.4473 -0.3335
11849TIP3   OH256961   6.720   1.924   0.568  0.2099  0.0104  0.0467
11849TIP3    H156962   6.627   1.911   0.582  0.3527 -1.0541  0.0797
11849TIP3    H256963   6.760   1.908   0.654  0.5448 -0.9317 -0.2711
11850TIP3   OH256964   4.748   5.685   2.026  0.0089  0.3305  0.2326
11850TIP3    H156965   4.810   5.634   2.079 -2.0314 -0.9795  1.4406
11850TIP3    H256966   4.760   5.775   2.055  4.2775  0.7704 -2.5414
11851TIP3   OH256967   3.022   0.865  12.438 -0.5321 -0.0290 -0.1420
11851TIP3    H156968   3.026   0.851  12.343  1.3195  1.3878 -0.3041
11851TIP3    H256969   2.948   0.924  12.451 -1.3358 -0.9243 -0.6080
11852TIP3   OH256970   3.385   3.089  14.917 -0.2794 -0.3601  0.2700
11852TIP3    H156971   3.371   3.129  15.003  0.3468  0.0506  0.1771
11852TIP3    H256972   3.417   3.001  14.937  1.9721  0.4746  0.4541
11853TIP3   OH256973   0.641   4.732  11.246  0.2877  0.1557  0.1843
11853TIP3    H156974   0.622   4.655  11.192 -0.5863 -0.0596  0.7819
11853TIP3    H256975   0.624   4.702  11.336  2.5247  0.2519  0.6696
11854TIP3   OH256976   4.332   1.585   1.907 -0.1751  0.3493  0.0070
11854TIP3    H156977   4.336   1.679   1.886 -0.1344  0.1767 -0.7772
11854TIP3    H256978   4.284   1.582   1.990  0.2505  1.0971  0.2923
11855TIP3   OH256979   2.239   3.272   5.421  0.3127 -0.4105 -0.6396
11855TIP3    H156980   2.251   3.211   5.349  2.3974  1.3298 -1.8148
11855TIP3    H256981   2.186   3.343   5.385  1.4056  0.4910 -0.5311
11856TIP3   OH256982   0.447   4.180   3.159  0.0759 -0.6617 -0.4189
11856TIP3    H156983   0.411   4.121   3.225 -2.3267  0.8112 -0.3550
11856TIP3    H256984   0.370   4.216   3.115  1.5532  1.1288 -1.5869
11857TIP3   OH256985   4.517   0.461   2.171 -0.1632 -0.5176 -0.2444
11857TIP3    H156986   4.563   0.545   2.168 -2.5959  0.8661  0.6002
11857TIP3    H256987   4.511   0.439   2.264 -0.6344 -1.0127 -0.3860
11858TIP3   OH256988   2.068   3.746   1.519  0.2688 -0.2628  0.1401
11858TIP3    H156989   2.019   3.665   1.503  1.4774 -0.4866 -2.7940
11858TIP3    H256990   2.038   3.806   1.451  1.2783  0.8986  0.6882
11859TIP3   OH256991   5.487   2.384   0.282  0.0402 -0.4596  0.5424
11859TIP3    H156992   5.413   2.421   0.331  0.7698  0.6730  0.8030
11859TIP3    H256993   5.457   2.384   0.191 -0.4303 -0.3736  0.6947
11860TIP3   OH256994   5.400   2.317   0.001 -0.4249  0.5390  0.0802
11860TIP3    H156995   5.406   2.224  -0.018 -0.5500  0.4860  0.3065
11860TIP3    H256996   5.347   2.353  -0.071  0.0700  0.5224 -0.2940
11861TIP3   OH256997   3.326   5.098   5.915  0.1640 -0.7191  0.2395
11861TIP3    H156998   3.254   5.049   5.955  0.8708 -0.4713  1.8594
11861TIP3    H256999   3.396   5.095   5.980  1.0742  0.3578 -0.6711
11862TIP3   OH257000   0.601   6.149   0.757  0.0903  0.2985 -0.4427
11862TIP3    H157001   0.683   6.174   0.800 -1.3135  0.5307  2.2460
11862TIP3    H257002   0.562   6.084   0.816 -0.6758 -1.4165 -2.7518
11863TIP3   OH257003   2.596   3.921   5.951 -0.2768  0.0740  0.2286
11863TIP3    H157004   2.530   3.851   5.948  2.6659 -2.8514  1.2765
11863TIP3    H257005   2.609   3.946   5.860 -1.5585 -0.5078 -0.1320
11864TIP3   OH257006   4.078   5.846   0.800  0.1304 -0.2703  0.0412
11864TIP3    H157007   3.990   5.869   0.770  0.3904 -0.3148 -0.7648
11864TIP3    H257008   4.136   5.890   0.738  0.6739 -0.2527  0.5682
11865TIP3   OH257009   1.911   3.222  10.877 -1.4515 -0.3067  0.1375
11865TIP3    H157010   1.840   3.167  10.845 -1.5635  0.6372 -1.3031
11865TIP3    H257011   1.901   3.304  10.829 -0.3275  0.3967  1.0746
11866TIP3   OH257012   6.193   3.105  16.444  0.0592 -0.1960 -0.4765
11866TIP3    H157013   6.271   3.146  16.408  0.2542 -0.8079 -0.7548
11866TIP3    H257014   6.140   3.082  16.368 -0.1889 -0.1819 -0.3083
11867TIP3   OH257015   1.980   1.303   3.684 -0.1015  0.0218  0.4012
11867TIP3    H157016   2.022   1.331   3.603 -0.6953  0.4147  0.2262
11867TIP3    H257017   2.053   1.282   3.743  0.3302 -0.6433 -0.3601
11868TIP3   OH257018   6.120   5.874   6.016  0.2135 -0.4133 -0.3424
11868TIP3    H157019   6.139   5.949   5.959  0.0884  0.8252  1.1904
11868TIP3    H257020   6.033   5.893   6.053  0.6753 -0.7134  0.9501
11869TIP3   OH257021   0.533   2.191  15.302 -0.2436 -0.2158 -0.3922
11869TIP3    H157022   0.557   2.279  15.331  0.2634 -0.0747 -1.2130
11869TIP3    H257023   0.463   2.205  15.238  1.1606 -0.2550 -1.9804
11870TIP3   OH257024   1.909   1.890  16.316  0.1380 -0.6060 -0.1406
11870TIP3    H157025   1.991   1.908  16.270 -1.0463  1.4141 -1.5191
11870TIP3    H257026   1.841   1.913  16.253 -1.5139  0.6730  2.0673
11871TIP3   OH257027   1.129   3.059   3.696  0.2208 -0.1660 -0.1152
11871TIP3    H157028   1.195   3.006   3.740  0.3501  0.4902  0.4843
11871TIP3    H257029   1.159   3.149   3.706 -1.7894  0.3524  2.0195
11872TIP3   OH257030   4.438   3.400   1.148  0.4137  0.4607 -0.1324
11872TIP3    H157031   4.404   3.486   1.124  0.2758  1.2895  2.8157
11872TIP3    H257032   4.510   3.384   1.087  0.2900  2.5598 -0.8511
11873TIP3   OH257033   1.736   1.211  17.055  0.0971  0.8390  0.3701
11873TIP3    H157034   1.765   1.133  17.104  0.8039 -0.5984 -2.2609
11873TIP3    H257035   1.646   1.225  17.085  0.0386 -0.8535  1.0725
11874TIP3   OH257036   3.417   0.735  16.924 -0.1029  0.7022  0.0806
11874TIP3    H157037   3.423   0.639  16.930  0.7276  0.7253 -0.3342
11874TIP3    H257038   3.389   0.751  16.834 -0.4308  0.8507  0.2066
11875TIP3   OH257039   4.974   6.677  11.667 -0.6189 -0.0051  0.3376
11875TIP3    H157040   5.001   6.714  11.583  1.0252 -0.6563  0.5661
11875TIP3    H257041   4.929   6.749  11.711  0.4766  1.0164 -0.1865
11876TIP3   OH257042   4.249   6.306   5.682  0.4861 -0.5503 -0.2113
11876TIP3    H157043   4.188   6.250   5.633 -1.1911  2.1661 -1.3167
11876TIP3    H257044   4.214   6.307   5.771 -0.5761  0.2797 -0.6351
11877TIP3   OH257045   1.090   0.377   0.981 -0.0018  0.4034  0.1501
11877TIP3    H157046   1.133   0.435   1.044 -0.9301  0.9466  0.2813
11877TIP3    H257047   1.069   0.298   1.031  1.2278 -0.0424 -0.0182
11878TIP3   OH257048   2.901   3.109  13.684 -0.3740 -0.6586 -0.3975
11878TIP3    H157049   2.827   3.086  13.739 -1.8179 -0.3004 -2.1428
11878TIP3    H257050   2.863   3.127  13.598  1.5801  0.8241 -0.9978
11879TIP3   OH257051   1.214   4.561   6.018  0.4528 -0.4764 -0.2869
11879TIP3    H157052   1.159   4.611   6.079 -0.3737 -1.6869 -0.0405
11879TIP3    H257053   1.303   4.576   6.050  0.1179 -0.1643  0.5243
11880TIP3   OH257054   1.666   5.117  14.792 -0.3850  0.2433 -0.4388
11880TIP3    H157055   1.677   5.149  14.881  1.7022 -0.6273 -0.3727
11880TIP3    H257056   1.708   5.184  14.738  0.6165 -0.4822 -0.5715
11881TIP3   OH257057   2.793   2.742   6.369  0.1569 -0.4956  1.2153
11881TIP3    H157058   2.887   2.749   6.387  0.8421 -3.3090 -0.9078
11881TIP3    H257059   2.761   2.679   6.433  0.1178 -1.0244  0.6793
11882TIP3   OH257060   2.615   1.202  15.952  0.2943  0.4506 -0.1661
11882TIP3    H157061   2.644   1.270  15.892 -0.3346  0.2043 -0.7468
11882TIP3    H257062   2.562   1.248  16.017  0.6802  0.6610  0.0035
11883TIP3   OH257063   5.679   2.281  11.886 -0.4412  0.3790 -0.2243
11883TIP3    H157064   5.653   2.192  11.910 -0.2941  0.4001  0.0210
11883TIP3    H257065   5.746   2.304  11.951  1.7657 -0.4889 -2.1420
11884TIP3   OH257066   2.725   0.608   3.087 -0.2463 -0.2207 -0.2716
11884TIP3    H157067   2.698   0.526   3.128 -0.0103 -1.0198 -1.6846
11884TIP3    H257068   2.808   0.587   3.043 -0.2458  0.7397 -0.7554
11885TIP3   OH257069   4.499   2.855   2.767  0.5186  0.2474 -0.3411
11885TIP3    H157070   4.469   2.925   2.826  1.5372  0.0364  0.4449
11885TIP3    H257071   4.594   2.862   2.769  0.5569  0.2605 -2.0139
11886TIP3   OH257072   0.677   4.801  14.575 -0.1416  0.2391  0.1822
11886TIP3    H157073   0.585   4.788  14.597 -0.5524 -0.7132 -1.9416
11886TIP3    H257074   0.724   4.731  14.620 -0.6534 -0.2449 -0.0446
11887TIP3   OH257075   2.618   4.287   3.195 -0.2058  0.2553  0.3413
11887TIP3    H157076   2.551   4.327   3.139 -1.9680 -2.3617  0.5067
11887TIP3    H257077   2.582   4.293   3.283 -0.0819 -0.8248  0.4721
11888TIP3   OH257078   4.118   3.087   0.393 -0.2599  0.3623  0.1081
11888TIP3    H157079   4.097   3.174   0.358 -0.8173  0.1844 -0.0070
11888TIP3    H257080   4.033   3.047   0.411 -0.0863 -1.0108 -1.9504
11889TIP3   OH257081   2.704   2.739  16.524 -0.3625 -0.3177 -0.0053
11889TIP3    H157082   2.724   2.767  16.614 -0.2298  0.9575 -0.4238
11889TIP3    H257083   2.611   2.760  16.513  0.1723  1.6861 -0.9329
11890TIP3   OH257084   1.057   2.719   1.572  0.2478 -0.3252  0.2204
11890TIP3    H157085   0.981   2.661   1.576  2.3788 -3.5624 -3.0879
11890TIP3    H257086   1.041   2.775   1.496  1.0134 -0.8369 -0.3299
11891TIP3   OH257087   3.829   2.222  15.642  0.0281 -0.0647 -0.1350
11891TIP3    H157088   3.881   2.301  15.627 -0.9425  0.4283 -0.9161
11891TIP3    H257089   3.738   2.250  15.636 -0.3276 -1.3740 -1.1336
11892TIP3   OH257090   3.175   1.884   1.066  0.5425 -0.3710  0.5964
11892TIP3    H157091   3.244   1.852   1.008 -1.2401 -2.1964 -0.6098
11892TIP3    H257092   3.209   1.868   1.154  2.3878  0.4341  0.0515
11893TIP3   OH257093   5.102   3.966   0.626  0.7364 -0.5937 -0.3679
11893TIP3    H157094   5.138   3.926   0.547  2.6859 -0.8737  0.6096
11893TIP3    H257095   5.118   4.059   0.615  0.2364 -0.5465 -0.6831
11894TIP3   OH257096   6.660   5.729  16.599 -0.3494  0.4293 -0.7296
11894TIP3    H157097   6.607   5.768  16.529 -3.8797 -0.4582  1.3361
11894TIP3    H257098   6.643   5.635  16.592  0.4130  0.2059  0.4058
11895TIP3   OH257099   1.740   1.056   5.667 -0.0225 -0.4687  0.0015
11895TIP3    H157100   1.728   0.961   5.664  1.1204 -0.6142 -0.5167
11895TIP3    H257101   1.655   1.090   5.693  0.0520 -1.7609  2.0808
11896TIP3   OH257102   1.444   2.589  10.967  0.0309  0.0268 -0.1197
11896TIP3    H157103   1.357   2.549  10.956 -0.1538  0.0146  1.3286
11896TIP3    H257104   1.427   2.683  10.969  0.1154  0.0482 -0.4081
11897TIP3   OH257105   0.560   1.076   2.603  0.2365  0.4759  0.4362
11897TIP3    H157106   0.579   1.158   2.558  1.5874 -0.5445 -0.8801
11897TIP3    H257107   0.480   1.044   2.562  1.4807 -0.4701 -1.3105
11898TIP3   OH257108   1.304   4.484  14.867  0.1201 -0.0510 -0.0169
11898TIP3    H157109   1.305   4.458  14.775 -1.3634 -0.4355  0.0571
11898TIP3    H257110   1.221   4.451  14.900  0.1230  1.0840  1.1779
11899TIP3   OH257111   3.037   3.816  15.265  0.7011  0.5472  0.0030
11899TIP3    H157112   3.060   3.727  15.236 -1.6294 -0.0361 -0.1467
11899TIP3    H257113   2.977   3.802  15.338 -0.1337  2.0031 -0.3963
11900TIP3   OH257114   2.421   0.529  13.997 -0.1862 -0.4787  0.3085
11900TIP3    H157115   2.348   0.557  14.052 -0.7044  0.2708 -0.7502
11900TIP3    H257116   2.488   0.597  14.010 -0.3047 -0.3067  0.0198
11901TIP3   OH257117   1.435   5.744   1.302  0.0980  0.0902 -0.3769
11901TIP3    H157118   1.529   5.760   1.306 -0.0052  0.7343 -0.3470
11901TIP3    H257119   1.408   5.730   1.392  0.0638  0.5688 -0.3075
11902TIP3   OH257120   2.422   1.799   0.103 -0.6387  0.3880 -0.2639
11902TIP3    H157121   2.397   1.886   0.074  0.1238  0.3404 -1.0806
11902TIP3    H257122   2.489   1.813   0.169 -1.1595  0.4442  0.2555
11903TIP3   OH257123   4.386   0.660   5.689  0.0958  0.2223 -0.2248
11903TIP3    H157124   4.392   0.701   5.603  2.5233  2.1036  0.7978
11903TIP3    H257125   4.300   0.617   5.689 -0.6384  1.5877 -2.9605
11904TIP3   OH257126   2.226   6.288  17.005  0.3398 -0.5889 -0.1336
11904TIP3    H157127   2.254   6.378  17.023 -2.2120  0.0945  0.6546
11904TIP3    H257128   2.198   6.290  16.913 -1.7575  0.0272  0.4769
11905TIP3   OH257129   1.637   1.954  15.604 -0.7970  0.1337 -0.2507
11905TIP3    H157130   1.632   1.931  15.512 -1.9994  5.7760 -1.7601
11905TIP3    H257131   1.557   1.919  15.643 -0.0526 -2.6837 -1.1383
11906TIP3   OH257132   3.048   5.499  15.538 -0.3431  0.8159 -0.0533
11906TIP3    H157133   3.099   5.419  15.548  0.1229  1.1056 -0.0809
11906TIP3    H257134   3.043   5.513  15.443  0.7814  1.5734 -0.0179
11907TIP3   OH257135   4.789   3.569  17.017 -0.1843 -0.3146 -0.1571
11907TIP3    H157136   4.880   3.577  17.044  0.0435  1.1118 -1.3065
11907TIP3    H257137   4.768   3.477  17.033  1.2571 -0.5133  0.7033
11908TIP3   OH257138   3.020   2.288   6.205 -0.3138  0.0282  0.5400
11908TIP3    H157139   2.997   2.201   6.236 -3.7056  0.6929  0.0448
11908TIP3    H257140   2.953   2.310   6.141  1.1748  2.5279 -0.2775
11909TIP3   OH257141   6.573   1.325   1.072 -0.2013  0.5860 -0.0426
11909TIP3    H157142   6.502   1.263   1.056 -0.7658  1.5122 -1.2394
11909TIP3    H257143   6.636   1.307   1.002  1.0415 -0.6349  1.3697
11910TIP3   OH257144   1.675   2.769   4.011  0.0267 -0.4904  0.2421
11910TIP3    H157145   1.642   2.691   3.967  1.2031 -0.4394 -0.7422
11910TIP3    H257146   1.762   2.783   3.974  0.0549  0.9606  0.8217
11911TIP3   OH257147   0.255   3.025  16.380  0.6896 -0.3590  0.4113
11911TIP3    H157148   0.258   3.014  16.475 -2.2932 -3.7595  0.2144
11911TIP3    H257149   0.304   2.951  16.345  0.9411  0.3300 -0.7334
11912TIP3   OH257150   0.083   4.738  16.670  0.0427 -0.5005  0.2028
11912TIP3    H157151   0.031   4.808  16.631 -0.1263 -1.9371 -2.2832
11912TIP3    H257152   0.145   4.782  16.727  0.6993  1.8047 -2.1766
11913TIP3   OH257153   6.134   4.149  15.065  0.0018 -0.2177  0.0052
11913TIP3    H157154   6.165   4.105  14.986  0.7078  0.2299  0.0262
11913TIP3    H257155   6.100   4.079  15.121 -0.5666 -0.5258 -0.7211
11914TIP3   OH257156   3.404   3.028  14.449 -0.3373  0.3085 -0.1977
11914TIP3    H157157   3.414   2.934  14.467 -1.6510  0.0522 -0.7334
11914TIP3    H257158   3.357   3.062  14.525  0.9995  0.7285  0.4488
11915TIP3   OH257159   4.931   6.468  15.580 -0.1999 -0.5442  0.4618
11915TIP3    H157160   4.907   6.555  15.547 -1.3033  0.3726  3.5870
11915TIP3    H257161   4.848   6.424  15.595  0.3397 -1.7884 -0.1390
11916TIP3   OH257162   6.261   6.060   2.647  0.3862  0.3033 -0.3125
11916TIP3    H157163   6.284   6.125   2.712 -1.3834 -0.5715  1.2501
11916TIP3    H257164   6.333   5.997   2.648  0.6834  0.6559  0.3266
11917TIP3   OH257165   3.842   4.213   3.591 -0.4054 -0.3025 -0.2978
11917TIP3    H157166   3.844   4.179   3.681  0.0441 -0.0834 -0.2237
11917TIP3    H257167   3.838   4.135   3.536  1.6264 -0.5197 -0.1634
11918TIP3   OH257168   6.262   1.240   0.067  0.5301 -0.1267  0.3654
11918TIP3    H157169   6.183   1.263   0.019  1.3542  0.7485 -0.6073
11918TIP3    H257170   6.254   1.146   0.085 -0.3024 -0.2211 -0.5027
11919TIP3   OH257171   5.929   5.891  13.269  0.1316  0.3827 -0.1958
11919TIP3    H157172   6.017   5.879  13.304  0.6396  1.3590 -1.1215
11919TIP3    H257173   5.872   5.849  13.333  1.1163  1.4109  1.3703
11920TIP3   OH257174   1.692   2.580  14.760 -0.1010 -0.5557  0.1335
11920TIP3    H157175   1.618   2.626  14.801 -0.7356 -0.3672 -1.1931
11920TIP3    H257176   1.687   2.605  14.668  2.2256  0.2511  0.1975
11921TIP3   OH257177   0.502   1.952  14.533 -0.3622  0.0156  0.1254
11921TIP3    H157178   0.512   2.042  14.563 -0.4492  0.1989 -0.3873
11921TIP3    H257179   0.425   1.919  14.579  0.0381  0.0024  0.7915
11922TIP3   OH257180   4.067   2.702   4.520 -0.3406 -0.0322  0.1679
11922TIP3    H157181   4.028   2.780   4.480 -0.7139  0.0330  0.6577
11922TIP3    H257182   4.006   2.677   4.589  0.6749  0.2765  1.1780
11923TIP3   OH257183   0.133   3.361   3.052  0.4491  0.0196  0.1496
11923TIP3    H157184   0.204   3.398   3.105  0.5194  0.3312 -0.1600
11923TIP3    H257185   0.055   3.407   3.080  0.4146 -0.1300  0.2978
11924TIP3   OH257186   6.135   0.925   6.005 -0.6149 -0.1994  0.2294
11924TIP3    H157187   6.072   0.940   6.075 -0.2309 -0.0102  0.5384
11924TIP3    H257188   6.196   0.861   6.041  2.8995  3.9723  2.2335
11925TIP3   OH257189   3.652   5.471  12.042 -0.3253 -0.3706  0.0590
11925TIP3    H157190   3.674   5.558  12.007  0.6707 -1.3919 -1.9250
11925TIP3    H257191   3.557   5.472  12.049 -0.3256  0.8985  0.1186
11926TIP3   OH257192   3.975   1.474  17.143 -0.2899  0.1527 -0.9536
11926TIP3    H157193   4.036   1.462  17.070 -0.9007 -2.9806 -1.0190
11926TIP3    H257194   3.889   1.478  17.101 -0.6996 -2.2265 -0.4540
11927TIP3   OH257195   6.159   3.163   0.903  0.2231 -0.4160 -0.2468
11927TIP3    H157196   6.224   3.222   0.865  1.0942 -0.4563  1.1171
11927TIP3    H257197   6.090   3.221   0.935  0.0741 -0.2980 -0.7775
11928TIP3   OH257198   1.265   1.774   0.319 -0.2916  0.4074  0.2746
11928TIP3    H157199   1.356   1.757   0.340  0.4520  1.2631 -2.0706
11928TIP3    H257200   1.244   1.713   0.248 -0.8652  1.6846 -0.6824
11929TIP3   OH257201   5.879   2.638   5.783  0.2538 -0.6703  0.2820
11929TIP3    H157202   5.800   2.606   5.739 -1.6863  0.8254  2.5295
11929TIP3    H257203   5.928   2.683   5.715 -1.1388 -1.0641 -1.0104
11930TIP3   OH257204   3.691   2.414  10.665 -0.1862 -0.5380 -0.5766
11930TIP3    H157205   3.699   2.408  10.760 -1.7129 -1.2283 -0.4796
11930TIP3    H257206   3.613   2.468  10.651  0.8804  0.8076 -1.4508
11931TIP3   OH257207   2.209   5.673   4.192 -0.2339  0.0928 -0.4405
11931TIP3    H157208   2.295   5.715   4.191  0.3386 -1.0538 -0.2803
11931TIP3    H257209   2.154   5.729   4.136  0.8918  0.2508 -1.3975
11932TIP3   OH257210   3.794   0.811  11.507 -0.5197 -0.6956  0.3559
11932TIP3    H157211   3.758   0.732  11.546  0.4021 -0.7742  1.0814
11932TIP3    H257212   3.753   0.817  11.421 -0.2541 -2.2138  0.1138
11933TIP3   OH257213   3.261   4.269  11.055  0.4246  0.0106  0.0312
11933TIP3    H157214   3.261   4.250  10.962 -1.4652 -1.5964  0.3278
11933TIP3    H257215   3.169   4.267  11.080  0.7113  2.6297  1.5118
11934TIP3   OH257216   3.288   3.897   4.798  0.5624  0.3853 -0.4612
11934TIP3    H157217   3.196   3.907   4.823  0.8792  0.9170  0.5221
11934TIP3    H257218   3.287   3.895   4.702 -0.4883  0.2590 -0.4484
11935TIP3   OH257219   2.027   3.356   4.680  0.3591  0.7041  0.6412
11935TIP3    H157220   2.000   3.299   4.753 -1.6723  0.1126 -0.5189
11935TIP3    H257221   2.117   3.331   4.662  0.3158 -0.3727  1.7995
11936TIP3   OH257222   1.674   6.783  14.931 -0.1047  0.0637 -0.1555
11936TIP3    H157223   1.710   6.871  14.930  2.1245 -0.8231 -1.9675
11936TIP3    H257224   1.693   6.748  14.844  0.1475 -2.6179  0.9302
11937TIP3   OH257225   2.312   6.195  15.254 -0.5573 -0.2504  0.0481
11937TIP3    H157226   2.367   6.158  15.323  0.5129  0.1970 -0.5491
11937TIP3    H257227   2.292   6.121  15.197 -1.0515 -0.5292  0.5814
11938TIP3   OH257228   0.473   2.393  13.692 -0.0096  0.1094  0.0192
11938TIP3    H157229   0.517   2.388  13.777 -0.1270  1.2607  0.1540
11938TIP3    H257230   0.395   2.338  13.702  1.6588 -2.4062 -0.3962
11939TIP3   OH257231   0.462   5.367  16.813 -0.4132  0.0670 -0.0124
11939TIP3    H157232   0.523   5.303  16.849 -1.5170 -1.4026 -0.7080
11939TIP3    H257233   0.516   5.444  16.795  1.1368 -1.0174 -0.0974
11940TIP3   OH257234   2.923   3.065   5.489  0.6117 -0.3191 -0.0954
11940TIP3    H157235   2.892   2.975   5.477 -0.8927  0.1257  0.4199
11940TIP3    H257236   2.863   3.103   5.553  0.8691  1.2417 -0.7648
11941TIP3   OH257237   3.701   1.766   6.389  0.3464 -0.4247 -0.3730
11941TIP3    H157238   3.771   1.706   6.416  0.3612  0.2657  1.2237
11941TIP3    H257239   3.745   1.835   6.341  0.7083 -0.2810  0.1547
11942TIP3   OH257240   3.564   4.439  10.629  0.1978 -0.0498 -0.9176
11942TIP3    H157241   3.505   4.481  10.567 -0.9980 -0.7569 -0.2580
11942TIP3    H257242   3.549   4.345  10.616 -1.2397 -0.1905  1.5703
11943TIP3   OH257243   5.578   5.566  11.537  0.3699 -0.4571 -0.1788
11943TIP3    H157244   5.565   5.516  11.618  1.1478  0.2889  0.4196
11943TIP3    H257245   5.529   5.646  11.550 -2.0515 -1.6331 -1.7150
11944TIP3   OH257246   0.000   1.298   4.599 -0.1827  0.5883  0.1370
11944TIP3    H157247  -0.064   1.259   4.540  0.9429 -0.1173 -0.6517
11944TIP3    H257248   0.002   1.240   4.675  0.4434 -0.1000 -0.4009
11945TIP3   OH257249   0.283   5.894   3.048  0.2278 -0.0499 -0.1166
11945TIP3    H157250   0.351   5.961   3.036 -0.1546  0.9764  3.0297
11945TIP3    H257251   0.327   5.825   3.098 -0.3854 -0.4959 -0.1916
11946TIP3   OH257252   6.772   4.878   1.403 -0.7303 -0.5916 -0.0685
11946TIP3    H157253   6.860   4.913   1.387 -0.9668  0.2599  0.4415
11946TIP3    H257254   6.725   4.891   1.321 -0.6069 -0.3584 -0.1022
11947TIP3   OH257255   3.420   1.753  14.530 -0.5673 -0.5831  0.4867
11947TIP3    H157256   3.412   1.756  14.625  0.8240  0.2415  0.5991
11947TIP3    H257257   3.478   1.679  14.514 -0.5910 -0.5614  0.3019
11948TIP3   OH257258   2.833   3.764   4.092 -0.2643 -0.1277 -0.2536
11948TIP3    H157259   2.883   3.682   4.087  1.0818  0.6075  0.7521
11948TIP3    H257260   2.839   3.801   4.004  2.2628  0.6590  0.1778
11949TIP3   OH257261   2.851   1.758  11.197  0.0919  0.9814  0.3875
11949TIP3    H157262   2.856   1.664  11.211  1.9427  1.0546  0.3134
11949TIP3    H257263   2.819   1.794  11.280  1.2710  0.4578  1.0818
11950TIP3   OH257264   0.835   4.020   1.004 -0.1233 -0.3560 -0.2648
11950TIP3    H157265   0.876   4.024   0.918 -0.8079  0.4344 -0.5625
11950TIP3    H257266   0.758   3.964   0.992 -2.2559  2.6097 -1.0563
11951TIP3   OH257267   1.416   5.653  11.973 -0.1973 -0.4305  0.3160
11951TIP3    H157268   1.422   5.745  12.000  0.0801 -0.5328  0.6166
11951TIP3    H257269   1.488   5.641  11.911 -1.5992  0.1245 -1.4495
11952TIP3   OH257270   1.081   1.720   1.025  0.6453 -0.7040 -0.0684
11952TIP3    H157271   0.996   1.688   0.993  0.8521 -1.9883  0.5986
11952TIP3    H257272   1.131   1.741   0.947 -0.5322  0.7141 -0.4555
11953TIP3   OH257273   1.901   1.366  12.572 -0.0705 -0.1548  0.7662
11953TIP3    H157274   1.962   1.369  12.498  0.2836 -0.0029  1.0610
11953TIP3    H257275   1.883   1.458  12.592 -1.0797 -0.2036  0.1309
11954TIP3   OH257276   1.904   5.295   1.659 -0.0559 -0.3469 -0.0976
11954TIP3    H157277   1.837   5.245   1.613 -1.5725 -0.9884  2.6599
11954TIP3    H257278   1.866   5.383   1.668  0.2657 -0.1981 -0.1774
11955TIP3   OH257279   6.513   6.429  16.774 -0.4808 -0.0491  0.0023
11955TIP3    H157280   6.497   6.334  16.769 -1.9544  0.1242  1.0354
11955TIP3    H257281   6.480   6.454  16.860  1.3840  1.1543  0.3861
11956TIP3   OH257282   6.566   2.098   5.684 -0.1647  0.5119  0.1211
11956TIP3    H157283   6.533   2.011   5.662  2.0815 -0.1584 -0.7289
11956TIP3    H257284   6.584   2.094   5.778 -1.5249  0.5804  0.3976
11957TIP3   OH257285   1.359   3.826  15.834 -0.0520  0.2561  0.2145
11957TIP3    H157286   1.348   3.920  15.823  0.6605  0.4084  0.8174
11957TIP3    H257287   1.282   3.799  15.885  0.4469  0.7263  1.2127
11958TIP3   OH257288   2.039   0.920   6.323 -0.3767 -0.4297 -0.7593
11958TIP3    H157289   1.976   0.984   6.289  0.5131  0.7009 -0.3356
11958TIP3    H257290   1.998   0.884   6.401 -0.6077  0.1400 -0.6148
11959TIP3   OH257291   3.313   2.841  12.507  0.2525 -0.0006  0.1655
11959TIP3    H157292   3.385   2.793  12.466 -0.0283 -1.4311  1.2992
11959TIP3    H257293   3.241   2.778  12.511 -0.7362  1.1073 -0.0404
11960TIP3   OH257294   0.686   1.018   4.641  0.2062 -0.6361 -0.1245
11960TIP3    H157295   0.775   1.032   4.671  0.9973 -0.8636 -2.2531
11960TIP3    H257296   0.632   1.028   4.719  1.5266  4.9966  0.2599
11961TIP3   OH257297   3.503   1.226  11.583 -0.3998 -0.1863 -0.3034
11961TIP3    H157298   3.537   1.271  11.506  4.3867  1.5228  2.6046
11961TIP3    H257299   3.537   1.137  11.576 -0.9538 -0.3703 -0.7110
11962TIP3   OH257300   2.090   4.599  12.624  0.2964 -0.1718 -0.4948
11962TIP3    H157301   2.103   4.582  12.718 -0.3131 -0.2045 -0.4113
11962TIP3    H257302   2.173   4.575  12.583  0.2593 -1.0329 -0.0747
11963TIP3   OH257303   6.617   2.212  16.888  0.3457  0.0853  0.0252
11963TIP3    H157304   6.668   2.175  16.816 -0.1895 -0.8028  0.0888
11963TIP3    H257305   6.529   2.222  16.852  0.3628  0.7990  0.1836
11964TIP3   OH257306   1.093   2.194  12.666 -0.0840 -0.1259  0.1986
11964TIP3    H157307   1.154   2.126  12.697 -0.6503 -0.5838  0.3063
11964TIP3    H257308   1.143   2.275  12.673  0.9173 -0.6486 -0.8129
11965TIP3   OH257309   0.007   6.689  12.375 -0.6404  0.3285 -0.5461
11965TIP3    H157310   0.079   6.704  12.313 -2.2581  1.3700 -2.2138
11965TIP3    H257311   0.051   6.676  12.459  1.4320  4.8796 -0.7196
11966TIP3   OH257312   1.278   4.144   2.928  0.2581  0.2204  0.1825
11966TIP3    H157313   1.356   4.147   2.984  1.1845 -2.1240 -0.9129
11966TIP3    H257314   1.300   4.079   2.861 -2.5739 -0.3147 -0.2695
11967TIP3   OH257315   3.999   4.177   6.453  0.0368  0.0248 -0.1393
11967TIP3    H157316   4.006   4.082   6.464 -2.3432 -0.4716 -2.4020
11967TIP3    H257317   3.996   4.211   6.542  0.1229 -2.0988  0.7115
11968TIP3   OH257318   3.662   6.372   0.736 -0.8597  0.0517 -0.6738
11968TIP3    H157319   3.683   6.339   0.649 -0.9682 -2.1656  0.0987
11968TIP3    H257320   3.579   6.329   0.759 -0.9127  0.7281  0.4579
11969TIP3   OH257321   1.478   2.729   0.453  0.0770 -0.5940  0.6495
11969TIP3    H157322   1.423   2.655   0.477  1.1521 -1.1862  1.3317
11969TIP3    H257323   1.451   2.800   0.512 -0.4597 -0.6450  0.4717
11970TIP3   OH257324   1.127   4.937  11.750  0.2414  0.9177 -0.6347
11970TIP3    H157325   1.103   4.845  11.742  1.6622  0.5063 -0.2177
11970TIP3    H257326   1.052   4.984  11.712 -1.4984 -0.2933  1.2048
11971TIP3   OH257327   0.230   2.092   5.823 -0.3483 -0.2191 -0.2767
11971TIP3    H157328   0.278   2.152   5.880 -1.5982 -0.2273  0.7933
11971TIP3    H257329   0.248   2.005   5.860 -2.1955 -0.1258  0.9099
11972TIP3   OH257330   3.034   5.664  12.379 -0.2182 -0.1123  0.4068
11972TIP3    H157331   3.102   5.719  12.417 -1.1694  0.6652  0.9795
11972TIP3    H257332   2.990   5.624  12.454 -2.4698  1.8654  0.1819
11973TIP3   OH257333   6.217   6.579   5.649  0.2264  0.2307 -0.9304
11973TIP3    H157334   6.127   6.611   5.638  0.1147  0.4658  0.4843
11973TIP3    H257335   6.262   6.649   5.696  0.9854 -0.1480 -1.0781
11974TIP3   OH257336   0.735   3.192   6.220  0.1747 -0.1385 -0.0826
11974TIP3    H157337   0.735   3.119   6.158 -0.4004 -0.6577  0.5147
11974TIP3    H257338   0.791   3.258   6.180 -1.4553  0.1896 -1.9143
11975TIP3   OH257339   5.532   3.348   4.225  0.5918 -0.1415 -0.0040
11975TIP3    H157340   5.584   3.298   4.287 -0.1983  0.5137  1.2110
11975TIP3    H257341   5.466   3.287   4.193  1.0446 -0.4974 -0.2720
11976TIP3   OH257342   4.056   4.262  15.380  0.1594  0.0460 -0.3285
11976TIP3    H157343   3.995   4.302  15.442  1.4010 -0.3680  1.1934
11976TIP3    H257344   4.138   4.254  15.429  0.2347 -3.4642 -0.8878
11977TIP3   OH257345   4.210   2.104   6.663  0.4986  0.1007 -0.0671
11977TIP3    H157346   4.182   2.194   6.677 -1.3690 -0.4715  0.0091
11977TIP3    H257347   4.213   2.094   6.568 -1.5457 -0.4063 -0.1004
11978TIP3   OH257348   1.229   2.923  13.995  0.0794  0.0129 -0.2070
11978TIP3    H157349   1.157   2.861  13.981  0.5426 -0.5333 -0.2067
11978TIP3    H257350   1.271   2.930  13.909 -1.0001  1.6494 -0.6320
11979TIP3   OH257351   0.182   0.501   0.367  0.7020  0.0919 -0.4085
11979TIP3    H157352   0.213   0.415   0.394  0.8962  0.6023  1.0573
11979TIP3    H257353   0.218   0.514   0.280  0.4931 -1.4000 -0.7238
11980TIP3   OH257354   4.535   5.279  16.100  0.1320  0.2973 -0.7870
11980TIP3    H157355   4.610   5.301  16.155  2.1331 -3.5050 -1.8768
11980TIP3    H257356   4.536   5.345  16.031  0.6719  2.0136  0.8045
11981TIP3   OH257357   5.155   6.713   5.577 -0.6776  0.4581 -0.0809
11981TIP3    H157358   5.074   6.680   5.615  0.3722 -1.3108  0.6850
11981TIP3    H257359   5.225   6.669   5.627  0.7341  0.4548 -1.9959
11982TIP3   OH257360   0.382   3.668   4.708  0.1193  0.8469 -0.2018
11982TIP3    H157361   0.310   3.636   4.764  0.0865  1.3217  0.0300
11982TIP3    H257362   0.427   3.733   4.762  0.9859  0.2462 -0.1945
11983TIP3   OH257363   0.525   2.385  16.919  0.0843 -0.0127  0.1033
11983TIP3    H157364   0.527   2.462  16.862 -0.3178  0.7436  1.1069
11983TIP3    H257365   0.571   2.411  16.998 -0.6486 -0.5678  0.7286
11984TIP3   OH257366   0.469   1.945   3.986 -0.1116 -0.1869 -0.2054
11984TIP3    H157367   0.401   1.906   3.931 -0.2443  1.5249 -1.2807
11984TIP3    H257368   0.539   1.967   3.926 -0.7555  2.8430  0.0918
11985TIP3   OH257369   0.970   0.736  13.715 -0.0331  0.0050 -0.0188
11985TIP3    H157370   1.059   0.758  13.688 -0.9145  1.6314 -1.7385
11985TIP3    H257371   0.925   0.714  13.634 -0.7233 -2.7104  1.0434
11986TIP3   OH257372   4.174   1.847  16.265 -0.2267 -0.3622  0.0869
11986TIP3    H157373   4.088   1.808  16.252 -0.3405  0.1668 -0.7899
11986TIP3    H257374   4.215   1.845  16.179 -0.2560  1.4933  0.0072
11987TIP3   OH257375   3.758   1.979  14.265 -0.1895  0.1106 -0.4811
11987TIP3    H157376   3.814   2.055  14.283  0.2759  0.0187 -1.4901
11987TIP3    H257377   3.695   2.011  14.200  0.3235 -0.5005 -1.2822
11988TIP3   OH257378   0.363   1.717  14.017  0.5139  0.2407  0.5575
11988TIP3    H157379   0.291   1.742  13.959  0.8478 -0.0077  0.0325
11988TIP3    H257380   0.427   1.675  13.960  1.7762  1.8331  0.7457
11989TIP3   OH257381   1.262   4.970  15.333 -0.5084  0.3550 -0.0008
11989TIP3    H157382   1.297   4.988  15.420 -1.1185 -0.7611  0.4903
11989TIP3    H257383   1.178   5.017  15.332 -1.6804 -1.6163  0.9567
11990TIP3   OH257384   1.767   2.965  11.261 -0.1770 -0.4710  0.3247
11990TIP3    H157385   1.703   2.903  11.226  0.9364 -0.8258 -1.1386
11990TIP3    H257386   1.758   3.043  11.206  0.4772 -0.4413  0.2546
11991TIP3   OH257387   6.318   5.366  13.528 -0.5537  0.6142  0.0670
11991TIP3    H157388   6.397   5.353  13.580 -0.7129  2.2216  0.7398
11991TIP3    H257389   6.322   5.457  13.499 -1.5792  0.3744 -0.8710
11992TIP3   OH257390   2.623   5.200  14.255 -0.5516 -0.4183 -0.2234
11992TIP3    H157391   2.710   5.210  14.217 -0.1855 -2.9995 -0.1459
11992TIP3    H257392   2.589   5.119  14.217 -2.2113 -0.3697  1.0819
11993TIP3   OH257393   0.320   2.272   5.999 -0.6054 -0.2682  0.8189
11993TIP3    H157394   0.265   2.259   6.076  1.5926  1.1847  2.7065
11993TIP3    H257395   0.336   2.366   5.997 -2.1481 -0.0051 -2.5516
11994TIP3   OH257396   5.665   5.254  13.015  0.2143 -0.0895  0.4436
11994TIP3    H157397   5.662   5.163  12.987  0.7584  0.2199 -0.6515
11994TIP3    H257398   5.631   5.303  12.940 -3.5923  0.3550  2.3256
11995TIP3   OH257399   3.782   5.019  16.636  0.7714  0.5620 -0.0165
11995TIP3    H157400   3.735   4.963  16.698  0.0844 -0.4524 -1.4173
11995TIP3    H257401   3.818   4.959  16.571  1.6288  1.5870 -0.5149
11996TIP3   OH257402   6.151   5.422   4.989 -0.6318  0.3650  0.0519
11996TIP3    H157403   6.112   5.487   5.047 -0.2390 -1.1198  2.0143
11996TIP3    H257404   6.125   5.337   5.025  1.0578 -0.6148 -0.9214
11997TIP3   OH257405   5.412   1.235   1.420 -0.3919  0.6898 -0.1863
11997TIP3    H157406   5.379   1.228   1.331 -1.0999 -0.7469  0.1910
11997TIP3    H257407   5.370   1.314   1.455 -0.3175  1.1052 -1.0286
11998TIP3   OH257408   3.799   6.392  16.852 -0.1581 -0.0898  1.1237
11998TIP3    H157409   3.753   6.312  16.876  0.2989 -0.1192  1.9180
11998TIP3    H257410   3.849   6.415  16.930  0.9423  0.1011  0.3762
11999TIP3   OH257411   3.507   4.182   1.526 -0.0242 -0.2857  0.5394
11999TIP3    H157412   3.520   4.164   1.619  0.1855 -0.4872  0.4713
11999TIP3    H257413   3.427   4.135   1.503 -2.8056  3.5436  1.7250
12000TIP3   OH257414   0.915   2.760   2.822 -0.1667 -0.2954 -0.1563
12000TIP3    H157415   0.902   2.704   2.898 -0.7050 -2.2531 -1.6401
12000TIP3    H257416   0.827   2.771   2.785  0.1759  0.0400 -0.8958
12001TIP3   OH257417   2.762   2.455  16.685 -0.0062 -0.1533  0.3990
12001TIP3    H157418   2.847   2.497  16.695 -0.4082  0.2735  2.1806
12001TIP3    H257419   2.701   2.528  16.671 -0.2418 -0.3813  0.2274
12002TIP3   OH257420   2.485   1.852  12.000 -0.0040  0.3317 -0.6577
12002TIP3    H157421   2.505   1.854  12.094  1.6415  0.8025 -1.0075
12002TIP3    H257422   2.546   1.788  11.964  1.3280  2.2158 -1.8457
12003TIP3   OH257423   6.154   6.587  14.929 -0.0897 -0.5580 -0.6247
12003TIP3    H157424   6.078   6.589  14.871  0.4149  1.7408 -1.2493
12003TIP3    H257425   6.225   6.623  14.876  1.3885 -2.4172  0.0505
12004TIP3   OH257426   0.442   2.454  13.149  0.1124 -0.0889  0.0343
12004TIP3    H157427   0.462   2.519  13.216 -1.5456  1.2739 -0.7415
12004TIP3    H257428   0.361   2.412  13.179 -1.2719  1.3052 -1.5966
12005TIP3   OH257429   4.826   4.011   5.405  0.3769 -0.0271  0.2159
12005TIP3    H157430   4.823   3.992   5.311 -0.0391 -0.9629  0.4091
12005TIP3    H257431   4.748   3.969   5.440  0.1268  0.9698  0.8708
12006TIP3   OH257432   2.901   1.266  13.949  0.3349  0.0895  0.0033
12006TIP3    H157433   2.895   1.353  13.990  0.9558 -0.0346  0.3550
12006TIP3    H257434   2.972   1.275  13.885  0.2203 -0.0878 -0.1491
12007TIP3   OH257435   4.255   3.601  11.440 -0.3297 -0.7918  0.5121
12007TIP3    H157436   4.204   3.650  11.504 -0.9977 -1.2506  0.3391
12007TIP3    H257437   4.252   3.655  11.361  0.8804 -0.0046  0.9875
12008TIP3   OH257438   0.133   5.839  13.170 -0.0833  0.1955  0.1076
12008TIP3    H157439   0.117   5.792  13.252 -1.9700  2.1400  0.8820
12008TIP3    H257440   0.059   5.815  13.114  0.4923 -0.0404 -0.5701
12009TIP3   OH257441   4.003   2.775  15.735 -0.1192 -0.4645 -0.2700
12009TIP3    H157442   4.094   2.746  15.744 -1.0034 -2.9463  1.2721
12009TIP3    H257443   4.008   2.871  15.742  2.3936 -0.5288 -0.5553
12010TIP3   OH257444   4.186   1.548   0.486 -0.5082  0.4537  0.3849
12010TIP3    H157445   4.097   1.539   0.521 -0.8784  1.5076 -0.2356
12010TIP3    H257446   4.176   1.608   0.411  0.7547  0.7475  0.4411
12011TIP3   OH257447   3.473   3.682   3.420 -0.3180 -0.0475 -0.0304
12011TIP3    H157448   3.500   3.654   3.332 -2.1934  1.5935 -1.1793
12011TIP3    H257449   3.405   3.618   3.445  0.8928 -1.0893  0.6662
12012TIP3   OH257450   2.165   4.537  12.871 -0.0431 -0.2569  0.3866
12012TIP3    H157451   2.150   4.629  12.892  1.0402 -0.0346  0.2158
12012TIP3    H257452   2.257   4.522  12.892 -0.4373 -1.5322  1.2337
12013TIP3   OH257453   2.874   1.681  15.348  0.6033 -0.1557  0.1512
12013TIP3    H157454   2.864   1.586  15.340 -0.1608 -0.0135 -0.6036
12013TIP3    H257455   2.878   1.712  15.258  0.0888  0.6156  0.3936
12014TIP3   OH257456   5.733   3.838  15.803 -0.2831  0.1616  0.0211
12014TIP3    H157457   5.650   3.882  15.785  0.0284  1.0208  0.6782
12014TIP3    H257458   5.750   3.787  15.723 -2.4084 -1.6002  0.6094
12015TIP3   OH257459   5.721   1.456   1.805  0.3607  0.0252  0.0425
12015TIP3    H157460   5.746   1.513   1.878 -1.2974 -2.1999  2.4282
12015TIP3    H257461   5.693   1.517   1.736  0.8551  2.1406  1.6575
12016TIP3   OH257462   5.284   2.108   2.809 -0.5008 -0.6019 -0.0512
12016TIP3    H157463   5.208   2.106   2.750  0.0763 -0.0272 -0.8303
12016TIP3    H257464   5.303   2.201   2.821  0.0509 -0.7433  0.1780
12017TIP3   OH257465   5.520   0.392   1.646  0.2795  0.7617 -0.4637
12017TIP3    H157466   5.514   0.425   1.735  0.4512 -0.0302 -0.1563
12017TIP3    H257467   5.432   0.360   1.626  1.0293 -2.1659  0.6504
12018TIP3   OH257468   0.902   6.338   1.784 -0.3329 -0.0696 -0.1170
12018TIP3    H157469   0.884   6.414   1.728  0.3967  1.8234  2.1353
12018TIP3    H257470   0.825   6.332   1.841  0.1447 -0.2786  0.5049
12019TIP3   OH257471   5.023   3.391  12.264  0.4250  0.1073  0.0385
12019TIP3    H157472   4.964   3.330  12.308  0.1573 -0.1449 -0.6622
12019TIP3    H257473   5.088   3.414  12.330 -2.3797  3.0774  1.9279
12020TIP3   OH257474   4.893   2.323   3.009 -0.0355  0.6390 -0.0137
12020TIP3    H157475   4.921   2.264   3.079 -0.9816 -0.2905 -0.4017
12020TIP3    H257476   4.916   2.277   2.928 -1.7598  0.2983 -0.3256
12021TIP3   OH257477   6.163   2.142   0.088  0.1399  0.4877  0.0892
12021TIP3    H157478   6.167   2.232   0.123  0.1820  0.1688  0.9236
12021TIP3    H257479   6.187   2.087   0.163 -2.7028 -0.4046  0.3937
12022TIP3   OH257480   6.128   0.232  11.815 -0.2224  0.9078 -0.3199
12022TIP3    H157481   6.175   0.231  11.732 -0.2165 -1.4275 -0.3374
12022TIP3    H257482   6.114   0.325  11.834  3.5467  1.6507 -0.7762
12023TIP3   OH257483   1.499   6.185  14.160  0.1672  0.4271 -0.4254
12023TIP3    H157484   1.475   6.250  14.094  2.7220  1.8184 -0.0227
12023TIP3    H257485   1.532   6.111  14.109 -1.1351  0.0970 -0.8150
12024TIP3   OH257486   2.089   3.104  11.037 -1.0592  0.4120  0.0514
12024TIP3    H157487   2.037   3.135  10.963 -1.7827 -0.6834  0.0777
12024TIP3    H257488   2.170   3.072  10.998 -1.8715 -1.1426 -0.4142
12025TIP3   OH257489   5.206   2.734  15.016  0.0354 -0.2516 -0.2973
12025TIP3    H157490   5.277   2.738  15.080 -0.8714 -0.8531  0.7700
12025TIP3    H257491   5.210   2.644  14.983 -0.6585 -0.5022  0.2815
12026TIP3   OH257492   2.481   4.771  16.344 -0.3658  0.1699 -0.0516
12026TIP3    H157493   2.439   4.850  16.377 -2.0917 -1.0158  0.6879
12026TIP3    H257494   2.457   4.703  16.408  2.3531 -0.6381  0.1681
12027TIP3   OH257495   5.879   5.536  17.181  0.2499  0.1661  0.0268
12027TIP3    H157496   5.850   5.444  17.175  3.3282 -1.0587  2.4901
12027TIP3    H257497   5.807   5.581  17.225 -1.7784 -0.7649 -2.1819
12028TIP3   OH257498   5.609   0.869   2.099 -0.2378  0.5629 -0.7106
12028TIP3    H157499   5.596   0.879   2.004  1.8950  1.2318 -0.9596
12028TIP3    H257500   5.618   0.774   2.111 -0.6247  0.4661 -1.1538
12029TIP3   OH257501   2.051   5.766  14.882  0.0411  0.4717 -0.1791
12029TIP3    H157502   2.017   5.731  14.800  2.1885 -0.6147 -0.6288
12029TIP3    H257503   2.046   5.861  14.871 -0.6554  0.3294 -1.1501
12030TIP3   OH257504   3.861   3.924  11.918  0.0113 -0.8186  0.1914
12030TIP3    H157505   3.784   3.978  11.900 -0.3987 -1.7831 -0.9761
12030TIP3    H257506   3.908   3.972  11.987 -1.7117 -0.3217  1.0386
12031TIP3   OH257507   0.414   5.984   0.598 -0.6708 -0.0621 -0.1776
12031TIP3    H157508   0.474   5.932   0.545 -2.4778 -0.6630 -1.7289
12031TIP3    H257509   0.470   6.035   0.656  1.4344  1.0118 -3.0336
12032TIP3   OH257510   2.273   1.256  16.933 -0.2062 -0.5711  0.1273
12032TIP3    H157511   2.335   1.184  16.939 -1.2979 -1.4631  0.8306
12032TIP3    H257512   2.326   1.335  16.946  0.8258 -1.3084  0.3846
12033TIP3   OH257513   5.690   2.425   3.775 -0.8223 -0.6086  0.1812
12033TIP3    H157514   5.759   2.373   3.816 -0.2222  0.2422  0.2824
12033TIP3    H257515   5.701   2.409   3.681 -0.2992 -0.2577  0.1787
12034TIP3   OH257516   2.578   4.748   2.505  0.2120  0.0112  0.3872
12034TIP3    H157517   2.646   4.680   2.505 -0.4792 -0.6820  1.3277
12034TIP3    H257518   2.523   4.727   2.580 -0.1627  1.4662  0.5206
12035TIP3   OH257519   1.003   2.787  13.362 -0.4321 -0.3149  0.0569
12035TIP3    H157520   1.024   2.694  13.359  0.3526 -0.1264 -0.6117
12035TIP3    H257521   1.029   2.814  13.450 -0.2998 -0.6470  0.1236
12036TIP3   OH257522   3.186   3.917   0.728  0.0464  1.2350  0.4317
12036TIP3    H157523   3.259   3.942   0.672  1.6799  0.4525  2.1840
12036TIP3    H257524   3.171   3.993   0.784 -0.2913  1.2927  0.2617
12037TIP3   OH257525   6.003   5.733  14.035 -0.4870 -0.4295 -0.0138
12037TIP3    H157526   6.017   5.678  14.112 -0.5170 -1.8665 -1.0138
12037TIP3    H257527   5.944   5.683  13.980  1.1581 -0.3698 -1.9114
12038TIP3   OH257528   5.314   5.033  12.932 -0.5204 -0.1217 -0.0507
12038TIP3    H157529   5.275   5.104  12.984 -2.4022 -0.7785 -0.4960
12038TIP3    H257530   5.374   4.989  12.991  0.6418  1.8260  0.2358
12039TIP3   OH257531   5.887   6.521   5.749 -0.5449  0.2773  0.1049
12039TIP3    H157532   5.808   6.549   5.796 -1.5568  0.3785 -1.6199
12039TIP3    H257533   5.930   6.461   5.810 -0.5998  2.1883  2.1023
12040TIP3   OH257534   6.094   6.048  13.084 -0.2274 -0.2995  0.2768
12040TIP3    H157535   6.049   6.023  13.165 -1.4479 -2.3818 -1.0033
12040TIP3    H257536   6.050   5.997  13.016  2.3388 -0.3743 -1.3827
12041TIP3   OH257537   1.917   0.090  17.043  0.1266  0.2117  0.8237
12041TIP3    H157538   1.828   0.097  17.078 -0.3126 -0.8165 -0.0693
12041TIP3    H257539   1.911   0.026  16.973  1.2899  1.2040 -0.2163
12042TIP3   OH257540   0.873   6.228   0.661 -0.3699 -0.1323  0.1672
12042TIP3    H157541   0.895   6.279   0.583 -1.9072 -1.6803 -1.3327
12042TIP3    H257542   0.872   6.291   0.732  0.4815  1.4166 -1.1656
12043TIP3   OH257543   5.568   1.311   4.535  0.0834 -0.4340  0.3932
12043TIP3    H157544   5.516   1.267   4.468 -0.5693 -0.4668  0.9100
12043TIP3    H257545   5.619   1.242   4.577 -1.2464 -0.7789  1.4790
12044TIP3   OH257546   6.641   0.985  15.001 -0.1180 -0.1000  0.5589
12044TIP3    H157547   6.675   1.004  15.088 -2.7149  0.5782  1.4718
12044TIP3    H257548   6.593   1.064  14.976 -2.8614 -1.8201  0.2626
12045TIP3   OH257549   5.317   2.238   1.267  0.1214 -0.2153 -0.5014
12045TIP3    H157550   5.257   2.259   1.195 -0.2872  0.6176  0.0815
12045TIP3    H257551   5.272   2.268   1.346  0.0866 -2.1107  0.2300
12046TIP3   OH257552   4.435   4.496  15.373  0.0454  0.8378  0.1213
12046TIP3    H157553   4.395   4.581  15.356  0.1755  0.4927 -1.9731
12046TIP3    H257554   4.385   4.460  15.447  0.2767  2.8910  1.3242
12047TIP3   OH257555   0.661   2.333  15.848 -0.4709 -0.3212  0.2589
12047TIP3    H157556   0.682   2.426  15.837 -0.3616 -0.4936 -1.0068
12047TIP3    H257557   0.678   2.316  15.941  0.1958  0.7477  0.3423
12048TIP3   OH257558   5.051   2.926  12.954  0.0137  0.0135  0.2160
12048TIP3    H157559   5.105   2.849  12.970  0.8794  0.4416 -0.6419
12048TIP3    H257560   5.086   2.965  12.874 -2.2370 -0.2881 -0.9638
12049TIP3   OH257561   4.030   5.538   2.485 -0.1393 -0.1018  0.6242
12049TIP3    H157562   4.086   5.500   2.553 -1.4499 -0.1833  1.6781
12049TIP3    H257563   4.053   5.631   2.483  0.6431 -0.2901  0.4250
12050TIP3   OH257564   3.892   3.012  15.192 -0.1452 -0.1567 -0.4377
12050TIP3    H157565   3.909   3.027  15.099 -0.2491  1.3249 -0.2228
12050TIP3    H257566   3.831   2.938  15.194  2.7208 -2.6364 -1.3963
12051TIP3   OH257567   6.371   1.752   6.670  0.4724 -0.5745 -0.1905
12051TIP3    H157568   6.296   1.722   6.721 -1.0160  1.0248 -1.3753
12051TIP3    H257569   6.340   1.831   6.626  2.9179  0.2101 -0.5773
12052TIP3   OH257570   0.355   2.388   2.797  0.4340  0.6495 -0.4636
12052TIP3    H157571   0.305   2.463   2.766 -0.1495  0.4030 -0.1296
12052TIP3    H257572   0.303   2.312   2.770 -0.0593  0.4314  1.0427
12053TIP3   OH257573   0.445   2.806  11.344  0.4535  0.1280  0.2027
12053TIP3    H157574   0.539   2.793  11.335  0.4471 -0.1636  0.5661
12053TIP3    H257575   0.436   2.898  11.370  0.4990  0.8688 -2.3146
12054TIP3   OH257576   4.350   5.864   0.316 -0.1863 -0.1994  0.4660
12054TIP3    H157577   4.342   5.772   0.291  0.6197 -0.0380 -0.3878
12054TIP3    H257578   4.307   5.912   0.245 -1.9703  0.0191  1.6483
12055TIP3   OH257579   6.085   2.190   2.334  0.0588  0.6230 -0.0270
12055TIP3    H157580   6.089   2.253   2.406 -0.4888  0.3815  0.2181
12055TIP3    H257581   5.996   2.155   2.337  0.5059 -0.5406  0.1679
12056TIP3   OH257582   5.440   2.946   4.658  0.3823  0.2540 -0.0427
12056TIP3    H157583   5.431   3.016   4.593  1.6149  0.3991 -0.0774
12056TIP3    H257584   5.535   2.935   4.668  0.1989 -0.6844  0.7487
12057TIP3   OH257585   3.206   5.999  12.334  0.4897 -0.0620  0.2960
12057TIP3    H157586   3.126   5.979  12.381  0.7429  0.6664  1.0495
12057TIP3    H257587   3.182   5.996  12.241 -0.2723 -0.3710  0.5068
12058TIP3   OH257588   0.557   1.251   5.206 -0.3080 -0.3552 -0.7165
12058TIP3    H157589   0.523   1.255   5.295  0.3740  2.0824 -0.5363
12058TIP3    H257590   0.524   1.330   5.164  1.6754 -0.0553 -1.7846
12059TIP3   OH257591   4.432   6.675  11.935 -0.0472 -0.3876  0.3201
12059TIP3    H157592   4.512   6.676  11.882  0.9978 -0.9608  1.8348
12059TIP3    H257593   4.391   6.591  11.915  1.0417 -1.2032  1.3757
12060TIP3   OH257594   4.125   2.794  16.680  0.1123 -0.3855 -0.2639
12060TIP3    H157595   4.053   2.814  16.621 -1.1441 -1.4451  0.8582
12060TIP3    H257596   4.191   2.753  16.624  0.5747  2.0736 -1.6039
12061TIP3   OH257597   1.961   2.307  15.329  1.0332 -0.1073 -0.0560
12061TIP3    H157598   1.917   2.223  15.320 -0.9414  0.7772  0.9074
12061TIP3    H257599   1.984   2.332  15.239 -1.5794 -0.0482 -0.7574
12062TIP3   OH257600   0.634   1.023  15.893  0.1208 -0.0785  0.1244
12062TIP3    H157601   0.604   0.938  15.924 -0.7872  0.2663  0.1913
12062TIP3    H257602   0.598   1.086  15.956 -1.7221  0.6255 -1.6077
12063TIP3   OH257603   4.182   3.866   0.328  0.4122 -0.0383  0.1362
12063TIP3    H157604   4.179   3.891   0.236  0.1780 -1.8335 -0.3620
12063TIP3    H257605   4.156   3.773   0.329 -1.1167  0.3768  2.1627
12064TIP3   OH257606   2.070   5.876  14.611 -0.1853 -0.4692 -0.1267
12064TIP3    H157607   2.127   5.875  14.534  0.9042 -0.7672  0.6644
12064TIP3    H257608   2.027   5.791  14.610 -1.7092  0.2922 -1.5068
12065TIP3   OH257609   1.561   2.071  12.905  0.1520 -0.3665 -0.0190
12065TIP3    H157610   1.654   2.051  12.891  0.5556  2.1892 -1.2886
12065TIP3    H257611   1.558   2.109  12.992  0.6682  1.4823 -0.7761
12066TIP3   OH257612   5.796   5.617  13.862  0.4343 -0.2575  0.4912
12066TIP3    H157613   5.748   5.539  13.890 -1.9028  1.2173  0.7969
12066TIP3    H257614   5.739   5.659  13.797  1.7989  0.9980  0.0633
12067TIP3   OH257615   0.949   6.569  16.175  0.0640  0.2899  0.3558
12067TIP3    H157616   0.997   6.650  16.189  0.4412 -0.0404  1.0102
12067TIP3    H257617   0.876   6.573  16.237 -1.6147  1.4691 -1.6826
12068TIP3   OH257618   5.711   0.566  12.662 -0.5754  0.4332  0.2857
12068TIP3    H157619   5.760   0.582  12.581  0.0198 -1.8495  0.1630
12068TIP3    H257620   5.629   0.526  12.633  1.7598 -5.3893  0.9330
12069TIP3   OH257621   5.282   4.651  16.994 -0.2454  0.2058 -0.0991
12069TIP3    H157622   5.346   4.706  16.950  0.2262 -1.0044 -0.9645
12069TIP3    H257623   5.197   4.688  16.970  0.0724  0.7138 -0.4350
12070TIP3   OH257624   6.543   2.806   2.835  0.4222 -0.1500 -0.0975
12070TIP3    H157625   6.526   2.725   2.883  1.2800 -1.2303 -1.5682
12070TIP3    H257626   6.472   2.865   2.862 -1.5059 -2.1376 -0.6657
12071TIP3   OH257627   4.623   2.905  15.016  0.6105 -0.2758 -0.1682
12071TIP3    H157628   4.529   2.905  15.036  0.5188 -1.5746 -0.5547
12071TIP3    H257629   4.629   2.952  14.933 -0.0724 -2.7488 -1.6867
12072TIP3   OH257630   3.968   5.890  14.773 -0.4269  0.0510 -0.1380
12072TIP3    H157631   4.011   5.934  14.699 -0.1165  0.1671  0.1079
12072TIP3    H257632   4.039   5.842  14.816 -1.1241 -2.2676 -1.5341
12073TIP3   OH257633   2.849   1.911   0.236  0.1449 -0.1530 -0.2886
12073TIP3    H157634   2.934   1.899   0.195 -0.5864 -0.9248 -1.6174
12073TIP3    H257635   2.789   1.927   0.163 -1.2395 -1.8316  0.4506
12074TIP3   OH257636   0.753   0.842   3.607 -0.5078  0.3115  0.1235
12074TIP3    H157637   0.799   0.890   3.539  1.7965  0.6312  1.8588
12074TIP3    H257638   0.750   0.901   3.681 -0.1152 -1.1911  1.3695
12075TIP3   OH257639   2.101   3.333  14.974 -0.1215 -0.1344 -0.3800
12075TIP3    H157640   2.081   3.374  14.890  1.6689  0.5572 -0.5021
12075TIP3    H257641   2.121   3.242  14.953 -1.3713 -0.3918 -0.4718
12076TIP3   OH257642   0.848   2.929  13.687 -0.0910  0.0207 -0.9840
12076TIP3    H157643   0.935   2.939  13.647  1.0767  0.1570  1.5094
12076TIP3    H257644   0.838   2.834  13.698  0.7707  0.1216  0.8570
12077TIP3   OH257645   0.833   0.493   3.452 -0.0355  0.5082  0.0750
12077TIP3    H157646   0.888   0.417   3.469 -0.8768 -0.4247 -1.3074
12077TIP3    H257647   0.776   0.499   3.529 -2.1603 -2.2230 -1.1833
12078TIP3   OH257648   4.414   0.423   3.729 -0.2538 -0.4539  0.0341
12078TIP3    H157649   4.448   0.368   3.658  0.5052  1.1456 -0.8642
12078TIP3    H257650   4.320   0.406   3.730 -0.4273  0.3091 -2.0788
12079TIP3   OH257651   4.234   5.888   4.280  1.1109  0.5624  0.4291
12079TIP3    H157652   4.152   5.880   4.329  1.5626  1.7377  1.4131
12079TIP3    H257653   4.208   5.879   4.188  0.0187 -0.0129  0.7777
12080TIP3   OH257654   6.289   1.596   4.151 -0.2832 -0.3862 -0.0330
12080TIP3    H157655   6.344   1.611   4.074  0.9740 -0.3986  0.8524
12080TIP3    H257656   6.200   1.615   4.120  0.1276 -0.9405 -1.6445
12081TIP3   OH257657   3.146   6.683  13.536  0.3090 -0.2369 -0.0380
12081TIP3    H157658   3.238   6.710  13.535 -0.1731  1.4662  0.0423
12081TIP3    H257659   3.134   6.643  13.622  0.2811  2.1342  1.1230
12082TIP3   OH257660   0.873   3.886  13.924  0.0107 -0.6557  0.3406
12082TIP3    H157661   0.783   3.854  13.931 -1.1132  1.8739 -1.5717
12082TIP3    H257662   0.908   3.842  13.846 -0.9074  1.2069 -1.1772
12083TIP3   OH257663   3.131   6.395   2.146 -0.1606 -0.2847 -0.8458
12083TIP3    H157664   3.226   6.387   2.155  0.0471  0.7783 -2.0304
12083TIP3    H257665   3.100   6.421   2.233  0.5959 -0.8808 -0.3926
12084TIP3   OH257666   0.331   0.567  14.055 -0.0556 -0.1744  0.6267
12084TIP3    H157667   0.418   0.537  14.028 -0.2212 -1.3200  1.3185
12084TIP3    H257668   0.306   0.630  13.987  0.7174 -0.8963 -0.3561
12085TIP3   OH257669   3.982   5.557   4.599  0.2669  0.1115 -0.0432
12085TIP3    H157670   4.018   5.490   4.541 -0.5002 -1.8380  1.6649
12085TIP3    H257671   3.893   5.571   4.566  0.0470 -0.5300  0.2714
12086TIP3   OH257672   2.390   0.165  14.945 -0.1045 -0.3418 -0.0261
12086TIP3    H157673   2.405   0.244  14.894  2.0149 -1.6432 -1.4861
12086TIP3    H257674   2.312   0.185  14.997  1.1392  3.1534  0.6244
12087TIP3   OH257675   5.299   2.814  12.862  0.0442 -0.0759  0.2627
12087TIP3    H157676   5.363   2.859  12.918 -0.1046  0.3439  0.0937
12087TIP3    H257677   5.270   2.881  12.800  2.4237 -1.2486 -2.2550
12088TIP3   OH257678   2.238   1.753   3.738 -0.4074  0.0392 -0.0327
12088TIP3    H157679   2.296   1.680   3.715 -0.8491 -0.6304  0.9445
12088TIP3    H257680   2.241   1.811   3.661 -1.9209 -2.1614 -1.8331
12089TIP3   OH257681   3.579   2.848   6.217 -0.1454 -0.1354 -0.3291
12089TIP3    H157682   3.672   2.868   6.230  0.1141 -1.0103 -0.8586
12089TIP3    H257683   3.533   2.909   6.276  0.8175 -0.7402  1.0757
12090TIP3   OH257684   4.029   0.973  13.516 -0.5395  0.0276  0.5133
12090TIP3    H157685   4.119   1.005  13.522  0.1209 -1.6732 -0.0720
12090TIP3    H257686   3.999   0.970  13.607  0.4228 -0.5789  0.8188
12091TIP3   OH257687   2.519   0.467  12.498 -0.5786  0.3095 -0.3367
12091TIP3    H157688   2.440   0.483  12.447 -1.1577  0.3284  0.5556
12091TIP3    H257689   2.490   0.414  12.572  0.5656 -1.2606 -0.9619
12092TIP3   OH257690   4.366   0.957   3.731  0.3241  0.4976  0.6636
12092TIP3    H157691   4.442   0.938   3.676  0.6427  1.8212  0.6244
12092TIP3    H257692   4.306   0.884   3.715  0.1922  1.1106 -1.8671
12093TIP3   OH257693   0.868   3.916  11.486  0.3080 -0.0692 -0.1438
12093TIP3    H157694   0.913   3.834  11.505  1.3318  0.6980  0.8493
12093TIP3    H257695   0.825   3.901  11.402 -0.8701 -2.1529  0.7890
12094TIP3   OH257696   1.090   1.762  14.932 -0.3027  0.4353  0.1761
12094TIP3    H157697   1.097   1.676  14.974 -0.0775 -0.2804 -1.2941
12094TIP3    H257698   1.012   1.756  14.876  1.0562  0.3471 -1.7796
12095TIP3   OH257699   2.976   4.160   1.231  0.4905  0.0263 -0.2990
12095TIP3    H157700   2.921   4.121   1.298 -1.3115 -0.1200 -1.8043
12095TIP3    H257701   2.918   4.223   1.187  2.4753  2.2061  0.1507
12096TIP3   OH257702   1.146   2.594  13.866  0.1652  0.6163 -0.3531
12096TIP3    H157703   1.085   2.667  13.877 -0.3465  0.1209  0.1536
12096TIP3    H257704   1.168   2.568  13.955 -2.2083 -1.9589 -0.4705
12097TIP3   OH257705   5.107   4.116   2.388 -0.3527 -0.2789 -0.2717
12097TIP3    H157706   5.160   4.157   2.320  0.8605  1.3456  1.5993
12097TIP3    H257707   5.042   4.183   2.411 -0.4690 -0.6457  0.4678
12098TIP3   OH257708   5.685   1.086   4.658 -0.4165  0.2930  0.4870
12098TIP3    H157709   5.625   1.074   4.731  0.3397 -1.7076  0.7950
12098TIP3    H257710   5.700   0.998   4.624  1.0130  0.9537 -0.6479
12099TIP3   OH257711   2.421   4.185  17.092  0.6264  0.1365  0.0969
12099TIP3    H157712   2.386   4.272  17.112 -0.1752 -0.2269  0.2833
12099TIP3    H257713   2.497   4.177  17.150 -0.8207 -0.3107  1.9952
12100TIP3   OH257714   6.612   2.034  13.696  0.0220 -0.2699 -0.0739
12100TIP3    H157715   6.555   1.959  13.677  0.2944 -0.7930  1.1418
12100TIP3    H257716   6.682   2.027  13.631  0.0238 -1.0590 -0.0039
12101TIP3   OH257717   3.074   3.283   0.005  0.0708 -0.4601  0.3438
12101TIP3    H157718   3.029   3.356   0.050 -1.0591 -0.3645 -0.9266
12101TIP3    H257719   3.146   3.326  -0.042 -0.0645 -0.2809  0.2975
12102TIP3   OH257720   0.537   3.665   3.967 -0.2008  0.1652 -0.4516
12102TIP3    H157721   0.519   3.635   4.056  0.3157 -1.0091 -0.7294
12102TIP3    H257722   0.632   3.674   3.964 -0.3379  1.8247 -0.3900
12103TIP3   OH257723   1.327   4.741  15.880 -0.2067  0.1909 -0.4540
12103TIP3    H157724   1.273   4.776  15.809 -1.1552 -0.2769  0.0224
12103TIP3    H257725   1.321   4.646  15.870  1.0150  0.1302 -0.7471
12104TIP3   OH257726   2.419   1.753   1.337 -0.3514  0.1801  0.4692
12104TIP3    H157727   2.439   1.819   1.403 -1.2573 -0.6992  1.6522
12104TIP3    H257728   2.414   1.671   1.386  1.5337 -0.9126 -1.0913
12105TIP3   OH257729   3.549   4.137   1.825 -0.4351  0.1955 -0.2661
12105TIP3    H157730   3.609   4.212   1.825  1.4877 -1.2774 -0.4331
12105TIP3    H257731   3.484   4.158   1.891  0.8633  1.4133  0.6675
12106TIP3   OH257732   5.234   2.639   0.400 -0.0999  0.7373  0.1282
12106TIP3    H157733   5.320   2.646   0.440 -0.6856  0.5526  1.4556
12106TIP3    H257734   5.219   2.725   0.359  0.8953  0.6137 -0.5062
12107TIP3   OH257735   5.518   3.957   2.608 -0.2369 -0.5556  0.2573
12107TIP3    H157736   5.511   3.893   2.679 -2.4246 -0.9267 -0.2376
12107TIP3    H257737   5.528   4.041   2.651 -0.1131 -0.9327  0.9721
12108TIP3   OH257738   2.268   3.524   2.601 -0.6528  0.0173 -0.6477
12108TIP3    H157739   2.336   3.590   2.616 -0.4136 -0.4609  0.4482
12108TIP3    H257740   2.289   3.488   2.514  0.5589 -0.1764 -0.2958
12109TIP3   OH257741   4.838   0.911  13.411  0.1757  0.3102 -0.5080
12109TIP3    H157742   4.811   0.845  13.475  2.5868  1.8664  2.2907
12109TIP3    H257743   4.880   0.862  13.341 -2.6143 -1.4571 -0.9808
12110TIP3   OH257744   4.471   1.799  13.479 -0.7411  0.0036  0.3683
12110TIP3    H157745   4.516   1.733  13.532 -0.7431  0.4804  0.9777
12110TIP3    H257746   4.393   1.755  13.445  0.1876 -0.8350 -0.7077
12111TIP3   OH257747   3.695   3.915  11.087  0.2953  1.2223  0.7166
12111TIP3    H157748   3.752   3.855  11.039 -2.4383 -1.1220  0.2454
12111TIP3    H257749   3.671   3.982  11.023 -0.2081  0.2937 -0.0780
12112TIP3   OH257750   0.200   5.251   0.947  0.0839 -0.3110  0.5099
12112TIP3    H157751   0.256   5.327   0.938 -0.5520 -0.0298 -1.4646
12112TIP3    H257752   0.215   5.201   0.867  0.0182 -1.9380  1.4932
12113TIP3   OH257753   3.591   1.364   4.717  1.0756  0.1744  0.2382
12113TIP3    H157754   3.641   1.444   4.734  2.9312 -0.4418 -1.9953
12113TIP3    H257755   3.564   1.333   4.803  3.5659  1.1982  1.4357
12114TIP3   OH257756   4.710   4.317   2.222 -0.7658  0.1448 -0.1776
12114TIP3    H157757   4.787   4.302   2.277 -0.3259 -0.3258 -0.9263
12114TIP3    H257758   4.650   4.366   2.279 -0.0319  0.2732  0.4978
12115TIP3   OH257759   2.215   4.919   3.846  0.7786 -0.3202 -0.3833
12115TIP3    H157760   2.191   4.856   3.915  3.0867  1.2234  1.9371
12115TIP3    H257761   2.145   4.984   3.847  0.5536 -0.5660  0.1692
12116TIP3   OH257762   1.708   0.572  17.088 -0.0182  0.1512  0.9360
12116TIP3    H157763   1.686   0.501  17.028 -0.4658 -1.3314  2.8256
12116TIP3    H257764   1.630   0.627  17.089  0.2015  0.5109 -0.2541
12117TIP3   OH257765   0.679   2.433   1.752  0.1384 -0.3376  0.5952
12117TIP3    H157766   0.585   2.439   1.769  0.2728  0.5157  1.0592
12117TIP3    H257767   0.689   2.354   1.698 -0.8811 -0.2484  0.2682
12118TIP3   OH257768   2.327   0.908  12.059 -0.2531  0.1345  0.0945
12118TIP3    H157769   2.418   0.930  12.078 -0.3481  0.1158  0.5613
12118TIP3    H257770   2.326   0.813  12.051 -0.5646 -0.0178  1.8339
12119TIP3   OH257771   4.543   0.995  14.940  0.2197  0.5649  0.7986
12119TIP3    H157772   4.584   0.911  14.918 -2.0624  0.1802 -2.3070
12119TIP3    H257773   4.613   1.059  14.930  1.1346 -0.5620 -0.1896
12120TIP3   OH257774   5.971   2.662   4.719  0.3038  0.2054  0.0777
12120TIP3    H157775   6.022   2.715   4.658 -0.9612  0.3634 -0.8847
12120TIP3    H257776   5.950   2.722   4.791  2.7205 -0.2846  1.2375
12121TIP3   OH257777   1.091   4.421  14.341 -0.3790 -0.1640  0.0319
12121TIP3    H157778   1.073   4.465  14.424  0.9947 -0.3535  0.4518
12121TIP3    H257779   1.186   4.404  14.343 -0.3203 -0.1476 -1.5801
12122TIP3   OH257780   2.878   3.104   2.818 -0.2370 -0.3495 -0.4406
12122TIP3    H157781   2.835   3.059   2.891 -2.5205  1.5925 -0.5614
12122TIP3    H257782   2.945   3.042   2.789 -0.9695 -2.2038  1.6660
12123TIP3   OH257783   2.095   5.270   5.562  0.1117  0.2747 -0.3427
12123TIP3    H157784   2.056   5.354   5.588 -1.9720 -1.1827  1.5231
12123TIP3    H257785   2.184   5.273   5.597  0.1840  1.8491 -0.6267
12124TIP3   OH257786   2.754   6.476  13.582  0.1050  0.6413 -0.5614
12124TIP3    H157787   2.719   6.559  13.550  2.9472  1.0789 -2.8019
12124TIP3    H257788   2.778   6.429  13.502  0.3525 -1.4926  0.7605
12125TIP3   OH257789   6.393   4.704  13.265  0.1790 -0.1300 -0.0608
12125TIP3    H157790   6.360   4.755  13.191 -1.2600 -0.1098  0.5844
12125TIP3    H257791   6.471   4.751  13.294 -2.1585  2.8114  1.7249
12126TIP3   OH257792   4.414   4.026  14.652  0.5615 -0.1129 -0.2488
12126TIP3    H157793   4.455   4.103  14.613 -0.1692  1.1463  1.4230
12126TIP3    H257794   4.459   4.015  14.736 -1.2553  0.1804  0.7777
12127TIP3   OH257795   0.431   5.520  13.223  0.2969  0.3272 -0.6664
12127TIP3    H157796   0.431   5.513  13.128 -1.9536  0.9490 -0.7389
12127TIP3    H257797   0.432   5.429  13.254  0.9824  0.1217 -1.2866
12128TIP3   OH257798   4.892   3.630  15.788 -0.0234 -0.1783 -0.1678
12128TIP3    H157799   4.875   3.549  15.836 -0.5753  0.6282  1.0249
12128TIP3    H257800   4.932   3.602  15.706  0.0751 -1.6377  0.3708
12129TIP3   OH257801   1.573   5.871   5.672 -0.4130  0.1687 -0.0450
12129TIP3    H157802   1.591   5.800   5.733  1.9183  0.5984 -0.2060
12129TIP3    H257803   1.494   5.843   5.625  0.8275 -2.5805 -0.5244
12130TIP3   OH257804   0.209   3.569  14.369 -0.0720 -0.2847  0.1687
12130TIP3    H157805   0.234   3.612  14.451  0.1466 -1.1906  0.5806
12130TIP3    H257806   0.180   3.641  14.313 -0.5555  0.3109  1.1591
12131TIP3   OH257807   3.245   5.773  12.524 -0.2480 -0.0158  0.3351
12131TIP3    H157808   3.279   5.847  12.475 -2.0145  0.2573 -0.5314
12131TIP3    H257809   3.284   5.696  12.481  0.8625  0.3712  0.6512
12132TIP3   OH257810   3.481   4.634  15.496 -0.2655  0.2217 -0.1726
12132TIP3    H157811   3.500   4.662  15.407 -0.9126  1.7053  0.1443
12132TIP3    H257812   3.543   4.683  15.550 -0.4239 -0.0589  0.2655
12133TIP3   OH257813   1.778   3.877  12.674  0.1052 -0.3304 -1.0151
12133TIP3    H157814   1.698   3.849  12.720 -0.2089  1.0141 -0.7352
12133TIP3    H257815   1.788   3.969  12.698  1.2716 -0.2722 -1.7415
12134TIP3   OH257816   2.584   2.665   3.619 -0.2655 -0.1168 -0.2312
12134TIP3    H157817   2.666   2.651   3.571  0.1790 -0.5957  0.6489
12134TIP3    H257818   2.517   2.622   3.566  0.1353 -0.1921 -0.6803
12135TIP3   OH257819   2.017   0.900   1.625 -0.4219  0.1072  0.3306
12135TIP3    H157820   2.018   0.806   1.608 -0.3220  0.2014 -0.1873
12135TIP3    H257821   2.108   0.928   1.612 -0.3799  0.2151  0.8331
12136TIP3   OH257822   4.654   5.151   1.517 -0.5490 -0.7162  0.1876
12136TIP3    H157823   4.678   5.189   1.601  1.2572  0.0557 -0.6408
12136TIP3    H257824   4.603   5.073   1.539 -1.6930  0.5080  1.9399
12137TIP3   OH257825   1.573   6.149   2.948  0.1392  0.7767  0.1773
12137TIP3    H157826   1.633   6.091   2.901 -0.8590 -0.6792  0.6716
12137TIP3    H257827   1.624   6.184   3.020  0.9751  1.1231 -0.5777
12138TIP3   OH257828   2.508   0.127  16.805  0.0731  0.2096 -0.3227
12138TIP3    H157829   2.552   0.080  16.734  1.6980  1.1001  0.0638
12138TIP3    H257830   2.475   0.207  16.764 -0.5717 -0.1238 -0.4612
12139TIP3   OH257831   0.453   4.593   5.568 -0.0583  0.1709  0.1634
12139TIP3    H157832   0.527   4.550   5.524 -1.7139 -0.5692 -1.9783
12139TIP3    H257833   0.490   4.627   5.649  2.9686  0.9491 -1.4547
12140TIP3   OH257834   6.743   4.555  13.591 -0.3576  0.4191 -0.5377
12140TIP3    H157835   6.651   4.581  13.603 -0.3928  0.0129  0.0817
12140TIP3    H257836   6.754   4.479  13.648 -0.7058 -1.9956 -3.6021
12141TIP3   OH257837   4.416   4.128  11.022 -0.2697 -0.2447 -0.1900
12141TIP3    H157838   4.340   4.117  11.078  0.6244  0.6215  1.2458
12141TIP3    H257839   4.466   4.047  11.031  1.2230  0.8970  2.4326
12142TIP3   OH257840   5.819   0.295   1.014 -0.2307 -0.0700 -0.2512
12142TIP3    H157841   5.881   0.329   0.951 -0.9061  0.5338 -0.5927
12142TIP3    H257842   5.740   0.347   1.001 -0.3503  0.1173  1.1408
12143TIP3   OH257843   0.963   4.947   3.389  0.2963  0.1614  0.4388
12143TIP3    H157844   0.900   5.017   3.376  1.8553  1.8443  1.6108
12143TIP3    H257845   0.921   4.887   3.451 -1.0820 -0.0281 -0.6494
12144TIP3   OH257846   2.854   3.468   0.633 -0.1621  0.1245 -0.0056
12144TIP3    H157847   2.823   3.439   0.547 -1.3015  0.1464  0.3966
12144TIP3    H257848   2.939   3.424   0.643  0.2202  0.5167 -1.3568
12145TIP3   OH257849   3.208   0.829  15.047 -0.1683 -0.0375  0.1648
12145TIP3    H157850   3.218   0.922  15.067 -0.7774  0.3844 -1.4113
12145TIP3    H257851   3.272   0.785  15.103 -0.2899  1.2784  1.3507
12146TIP3   OH257852   2.242   1.215  15.814 -0.2544  0.0172 -0.7119
12146TIP3    H157853   2.257   1.211  15.909 -1.8135  1.5632 -0.3738
12146TIP3    H257854   2.179   1.146  15.797 -0.5599  0.2364 -0.4863
12147TIP3   OH257855   2.877   4.721  10.170  0.4603 -0.2218 -0.4244
12147TIP3    H157856   2.896   4.799  10.119  1.9951 -1.4099 -1.7549
12147TIP3    H257857   2.787   4.699  10.148 -0.3780  1.8299  0.8860
12148TIP3   OH257858   5.383   3.809  15.819 -0.0496  0.0096  0.3568
12148TIP3    H157859   5.369   3.877  15.752 -0.1078  0.3528  0.7117
12148TIP3    H257860   5.327   3.837  15.892 -2.6499 -2.1611 -0.7122
12149TIP3   OH257861   1.819   1.717   3.886  0.0241 -0.0310  0.0888
12149TIP3    H157862   1.861   1.655   3.827 -0.3364 -2.0183  1.8552
12149TIP3    H257863   1.742   1.670   3.919 -1.1572  1.9513  0.2461
12150TIP3   OH257864   1.386   6.317   1.842  0.1796  0.9839 -0.0046
12150TIP3    H157865   1.312   6.294   1.898  0.0003  1.2306 -0.1347
12150TIP3    H257866   1.351   6.310   1.753  1.3539 -2.5727 -0.2571
12151TIP3   OH257867   2.342   6.473   4.711  0.1067 -0.3607  0.4377
12151TIP3    H157868   2.402   6.449   4.782  0.7661 -1.7489 -0.5633
12151TIP3    H257869   2.350   6.569   4.705  1.5454 -0.4270  0.9216
12152TIP3   OH257870   2.518   0.844  16.542 -0.1248 -0.0871  0.2681
12152TIP3    H157871   2.566   0.762  16.529 -1.4710 -0.8636  0.0389
12152TIP3    H257872   2.585   0.908  16.567  1.1827 -0.8554 -1.1420
12153TIP3   OH257873   5.007   2.578   2.953  0.8088  0.2057  0.7407
12153TIP3    H157874   5.098   2.555   2.933  1.0264  0.2695  1.6271
12153TIP3    H257875   4.968   2.496   2.983  0.5048  0.1228  0.1124
12154TIP3   OH257876   0.326   4.096  13.865 -0.0128  0.0822  0.2272
12154TIP3    H157877   0.315   4.001  13.867 -0.3586  0.1293  0.4602
12154TIP3    H257878   0.243   4.132  13.898 -1.0970  0.5449 -2.8325
12155TIP3   OH257879   3.225   4.512   2.819 -0.4467 -0.4694 -0.4607
12155TIP3    H157880   3.201   4.600   2.845  1.8053 -0.1147  0.4809
12155TIP3    H257881   3.312   4.521   2.778 -1.1436 -1.9207 -2.3710
12156TIP3   OH257882   3.779   2.922  13.562 -0.1163 -0.1378 -0.3755
12156TIP3    H157883   3.786   2.839  13.610 -0.2480 -0.3458 -0.7175
12156TIP3    H257884   3.841   2.980  13.607 -1.6438  0.2621  1.2597
12157TIP3   OH257885   6.440   0.835   3.644 -0.2695  0.0880  0.4911
12157TIP3    H157886   6.485   0.886   3.712 -0.3406  1.0177 -0.1594
12157TIP3    H257887   6.478   0.747   3.652 -0.0517  0.2665  1.5239
12158TIP3   OH257888   5.805   1.478   4.099  0.3289 -0.2253  0.2315
12158TIP3    H157889   5.764   1.552   4.054  1.2020  0.3302  0.3450
12158TIP3    H257890   5.899   1.491   4.086  0.5059 -1.1025  0.5892
12159TIP3   OH257891   5.009   5.718   3.547  0.3324  0.2783 -0.1338
12159TIP3    H157892   4.949   5.665   3.495  1.8672 -0.0033 -1.6333
12159TIP3    H257893   5.034   5.662   3.620 -0.6685  0.1615  0.1349
12160TIP3   OH257894   1.793   0.030   1.797  0.0341  0.0063 -0.1845
12160TIP3    H157895   1.825   0.117   1.775  1.1015 -0.1451  0.7389
12160TIP3    H257896   1.719   0.045   1.855  0.7055  0.2894  0.6080
12161TIP3   OH257897   0.954   3.413  13.694  0.2167 -0.5141 -0.5390
12161TIP3    H157898   0.989   3.408  13.605 -1.2499 -3.8686 -0.9778
12161TIP3    H257899   1.014   3.359  13.746 -1.9238 -2.9804 -0.5453
12162TIP3   OH257900   2.730   6.289   3.501  0.8157 -0.2945 -0.0054
12162TIP3    H157901   2.679   6.232   3.559  0.0643  0.1449 -0.2276
12162TIP3    H257902   2.679   6.293   3.420  2.0722 -1.2309 -0.8440
12163TIP3   OH257903   3.355   5.611  11.662 -0.1020 -0.3357  0.4002
12163TIP3    H157904   3.394   5.622  11.749  1.5993 -0.7865 -0.2847
12163TIP3    H257905   3.280   5.553  11.677  1.9780 -2.9693  1.1503
12164TIP3   OH257906   6.697   5.006  11.475  0.1418  0.0796  0.3286
12164TIP3    H157907   6.792   5.005  11.486 -0.0402  0.5576  2.0487
12164TIP3    H257908   6.683   5.066  11.402  1.1800 -0.2879 -0.1857
12165TIP3   OH257909   2.065   2.974   0.757 -0.0565 -0.0454  0.4131
12165TIP3    H157910   2.122   2.899   0.745  0.9274  0.7871 -0.2102
12165TIP3    H257911   1.982   2.948   0.717  0.3614 -0.6882 -0.0362
12166TIP3   OH257912   5.818   2.443   2.115 -0.0739  0.3373  0.0611
12166TIP3    H157913   5.793   2.516   2.170  0.3289  1.3091 -1.0164
12166TIP3    H257914   5.882   2.480   2.054  1.9393 -1.4566  1.0211
12167TIP3   OH257915   4.954   6.363   1.771  0.2181 -0.2285  0.3500
12167TIP3    H157916   4.969   6.349   1.864 -1.6625 -1.2792  0.5274
12167TIP3    H257917   5.000   6.291   1.728  1.1572  0.3057  0.4570
12168TIP3   OH257918   3.111   4.708  13.118  0.0151 -0.5993 -0.2313
12168TIP3    H157919   3.160   4.708  13.200 -1.5709  0.0264  0.7385
12168TIP3    H257920   3.174   4.678  13.053  1.9552  1.0513  0.8157
12169TIP3   OH257921   0.686   1.946  16.976 -1.0139  0.4208 -0.1912
12169TIP3    H157922   0.639   2.016  16.931 -0.1605  1.0085 -0.1692
12169TIP3    H257923   0.756   1.990  17.024 -0.7906 -0.3893  0.2436
12170TIP3   OH257924   1.229   4.992   2.554  0.4591  0.3318  0.4791
12170TIP3    H157925   1.134   4.993   2.542  0.1682 -0.6269  2.4824
12170TIP3    H257926   1.241   4.993   2.649  2.3069 -4.3840  0.4409
12171TIP3   OH257927   0.018   5.199   6.855  0.0810 -0.7584 -0.0026
12171TIP3    H157928   0.014   5.121   6.910 -2.2430  0.4436  1.5884
12171TIP3    H257929   0.101   5.240   6.879  0.9687 -2.3030 -0.3027
12172TIP3   OH257930   6.438   3.164  12.486 -0.0785 -0.0500  0.4648
12172TIP3    H157931   6.468   3.116  12.408  1.3014  0.6454  0.5512
12172TIP3    H257932   6.399   3.244  12.451  0.2748  0.1238  0.4603
12173TIP3   OH257933   5.807   5.563   3.749  0.6105  0.1239 -0.3256
12173TIP3    H157934   5.851   5.646   3.731 -1.4846  0.7824 -2.7975
12173TIP3    H257935   5.814   5.552   3.844  2.6364  2.1248 -0.1988
12174TIP3   OH257936   1.731   3.438   0.687  0.2241  0.2536 -0.1232
12174TIP3    H157937   1.749   3.525   0.652  0.9335 -0.6735 -2.1424
12174TIP3    H257938   1.741   3.379   0.612 -1.5373 -1.4289  0.9035
12175TIP3   OH257939   6.005   3.819   2.690 -0.1087  0.6032 -0.5207
12175TIP3    H157940   5.977   3.766   2.765  1.9756  0.2133  0.0243
12175TIP3    H257941   6.024   3.755   2.621 -1.2956  0.9151 -1.1570
12176TIP3   OH257942   1.494   4.074  14.163  0.6393 -0.1787  0.0662
12176TIP3    H157943   1.445   4.136  14.108  0.0048  0.7652  1.6711
12176TIP3    H257944   1.544   4.021  14.100 -0.4114  0.5762 -1.4505
12177TIP3   OH257945   1.643   4.008   0.677  0.2544 -0.0628 -0.0427
12177TIP3    H157946   1.550   4.012   0.697  0.1417 -0.3234 -0.5049
12177TIP3    H257947   1.654   4.064   0.600  0.8048  1.4987  1.1421
12178TIP3   OH257948   3.215   5.706  11.214 -0.1407 -0.2977 -0.3554
12178TIP3    H157949   3.152   5.777  11.225 -0.0585 -0.0356 -1.4731
12178TIP3    H257950   3.162   5.627  11.218 -0.2771 -0.1663  0.5844
12179TIP3   OH257951   1.116   6.331  11.135  0.5045  0.2101 -0.0849
12179TIP3    H157952   1.094   6.317  11.043  0.9300 -1.8878  0.0978
12179TIP3    H257953   1.034   6.356  11.177  0.5510  2.3364 -1.2422
12180TIP3   OH257954   3.268   2.715   5.412 -0.1080  0.0465 -0.0455
12180TIP3    H157955   3.267   2.623   5.384  0.4464 -0.0543  0.2575
12180TIP3    H257956   3.276   2.764   5.331 -0.3589 -0.1802 -0.2075
12181TIP3   OH257957   1.720   0.768  14.620 -0.4615 -0.2575  0.2006
12181TIP3    H157958   1.760   0.710  14.555 -1.6359  0.5948 -1.3164
12181TIP3    H257959   1.740   0.727  14.704  0.2568 -1.9007 -0.7503
12182TIP3   OH257960   4.014   1.507   5.791  0.5118  0.4722  0.2259
12182TIP3    H157961   4.005   1.481   5.699  0.3512  1.8482 -0.1559
12182TIP3    H257962   3.995   1.427   5.840  1.9376 -0.6310 -0.9636
12183TIP3   OH257963   1.960   1.038   1.401 -0.2702 -0.8336  0.3111
12183TIP3    H157964   1.953   1.131   1.421  1.2554 -0.3267 -1.3817
12183TIP3    H257965   1.973   0.996   1.486 -2.5394  0.3016  1.2682
12184TIP3   OH257966   3.753   0.770   2.517 -0.4372 -1.0981  0.2740
12184TIP3    H157967   3.831   0.787   2.568 -2.2275 -1.3195  3.2078
12184TIP3    H257968   3.723   0.856   2.488  0.9238 -1.0269 -0.9976
12185TIP3   OH257969   1.855   6.450  14.966  0.1246 -0.3839  0.2610
12185TIP3    H157970   1.835   6.400  14.886  0.4884  0.3325 -0.2885
12185TIP3    H257971   1.939   6.492  14.947 -1.0410  1.9224 -0.0056
12186TIP3   OH257972   5.636   2.801  12.855 -0.2390  0.3852  0.7431
12186TIP3    H157973   5.681   2.720  12.881  1.4007  0.9411 -0.3474
12186TIP3    H257974   5.557   2.770  12.810  0.3546 -0.6052  0.3582
12187TIP3   OH257975   5.670   0.312  12.481 -0.1626  0.5067  0.1685
12187TIP3    H157976   5.750   0.280  12.522  0.4064 -0.6613 -1.7732
12187TIP3    H257977   5.601   0.255  12.514  0.2736 -0.3454 -0.3656
12188TIP3   OH257978   3.850   5.067   0.312 -0.0546  0.4478  0.3721
12188TIP3    H157979   3.810   4.991   0.271  0.0990  1.1125 -1.0334
12188TIP3    H257980   3.934   5.077   0.267 -0.1640  1.5627  0.4017
12189TIP3   OH257981   1.176   2.799   0.382  0.0295  0.2060 -0.3326
12189TIP3    H157982   1.214   2.738   0.445  0.4462 -1.0126 -1.7212
12189TIP3    H257983   1.250   2.831   0.331 -0.4121  0.3898 -0.8667
12190TIP3   OH257984   2.460   1.499  12.872 -0.1345  0.1795  0.7445
12190TIP3    H157985   2.512   1.560  12.924  0.0443  1.1796 -0.5841
12190TIP3    H257986   2.496   1.505  12.784  0.0559 -2.0584  0.6320
12191TIP3   OH257987   0.315   2.009   4.472  0.1825 -0.3406 -0.8736
12191TIP3    H157988   0.393   1.994   4.526  1.2323  0.1812 -2.2239
12191TIP3    H257989   0.283   2.095   4.498 -0.1845 -0.7074 -0.0595
12192TIP3   OH257990   5.859   2.345   2.779  0.0611  0.4381 -0.3992
12192TIP3    H157991   5.855   2.440   2.768 -0.6056  0.5503  0.7296
12192TIP3    H257992   5.843   2.310   2.691  1.8623  1.3723 -1.1462
12193TIP3   OH257993   3.830   6.726   5.648 -0.2170  0.4139  0.1355
12193TIP3    H157994   3.737   6.741   5.665 -0.4457 -0.7456 -0.0858
12193TIP3    H257995   3.851   6.646   5.696  0.6845  0.6924  0.2215
12194TIP3   OH257996   1.632   0.051   1.280 -0.1376  0.1922  0.0103
12194TIP3    H157997   1.626   0.110   1.356 -0.9298  0.5616 -0.3351
12194TIP3    H257998   1.567   0.084   1.219 -0.8805 -1.2857 -0.0193
12195TIP3   OH257999   6.567   1.111   4.999 -0.0688 -0.1770  0.6205
12195TIP3    H158000   6.507   1.037   4.989  1.0381 -0.9764 -0.1547
12195TIP3    H258001   6.509   1.187   5.008 -1.2142 -0.9146 -0.2912
12196TIP3   OH258002   0.822   5.576  14.126 -0.3465 -0.2314  0.1124
12196TIP3    H158003   0.766   5.621  14.063  0.1273 -2.0402 -1.6731
12196TIP3    H258004   0.819   5.630  14.205 -2.0100  1.3870 -1.0306
12197TIP3   OH258005   4.079   4.407   5.280  0.0721 -0.8299  0.0606
12197TIP3    H158006   4.110   4.325   5.241  3.0790  0.1595  0.1790
12197TIP3    H258007   4.145   4.426   5.348  1.2051  3.2541 -2.0482
12198TIP3   OH258008   1.331   0.018  12.934 -0.1116 -0.3061 -0.3970
12198TIP3    H158009   1.271   0.063  12.994  2.1254 -0.2570  1.9300
12198TIP3    H258010   1.290   0.025  12.848 -2.2484  1.8030  0.7313
12199TIP3   OH258011   3.727   5.764  13.999 -0.3993 -0.0180 -0.1311
12199TIP3    H158012   3.822   5.765  13.996 -0.1657 -2.4329  3.1407
12199TIP3    H258013   3.701   5.704  13.929  0.6501 -1.2788  0.5340
12200TIP3   OH258014   6.186   2.431   4.387  0.5824 -0.1701  0.3117
12200TIP3    H158015   6.142   2.401   4.467 -1.2992  1.3163 -0.1124
12200TIP3    H258016   6.279   2.416   4.403  0.0549 -1.8146  1.9420
12201TIP3   OH258017   5.426   5.969   5.437  0.2420  0.0100 -0.0492
12201TIP3    H158018   5.510   5.961   5.481 -0.0906  1.3272  0.8366
12201TIP3    H258019   5.449   5.981   5.345  1.0712  1.4406  0.3228
12202TIP3   OH258020   3.875   0.794  14.561  0.5276  0.3686  1.0355
12202TIP3    H158021   3.951   0.834  14.519  0.1356  0.3228  0.2692
12202TIP3    H258022   3.898   0.701  14.567 -0.2417  0.0216 -0.9693
12203TIP3   OH258023   0.776   4.686  16.322 -0.3883 -0.9728  0.4107
12203TIP3    H158024   0.691   4.643  16.325 -0.5737 -0.5122  2.4245
12203TIP3    H258025   0.755   4.780  16.327  0.1604 -0.7741 -0.8278
12204TIP3   OH258026   6.192   5.175   0.698 -0.3121 -0.8356 -0.2487
12204TIP3    H158027   6.269   5.228   0.678 -2.0521  2.0170  0.4428
12204TIP3    H258028   6.211   5.136   0.783  0.2140  0.1230  0.0713
12205TIP3   OH258029   3.914   6.431  16.138 -0.2622 -0.4500 -0.1352
12205TIP3    H158030   3.925   6.385  16.055  2.6334  1.3555 -0.8362
12205TIP3    H258031   3.821   6.452  16.142 -0.6610 -1.6517 -2.3362
12206TIP3   OH258032   0.583   0.723  16.556  0.2684 -0.0018  0.3728
12206TIP3    H158033   0.597   0.665  16.631  2.6079 -0.4105 -0.3321
12206TIP3    H258034   0.533   0.670  16.494 -2.4030  0.6098  1.9173
12207TIP3   OH258035   1.910   5.978  16.890  0.2726 -0.4216 -0.2575
12207TIP3    H158036   1.884   5.886  16.888  1.7485 -0.8430 -0.5003
12207TIP3    H258037   1.975   5.982  16.960  0.4216  0.3834 -0.4413
12208TIP3   OH258038   3.557   5.955  16.175  0.0526 -0.3681 -0.2076
12208TIP3    H158039   3.524   6.045  16.176  0.4278 -0.2366  0.4237
12208TIP3    H258040   3.617   5.952  16.100 -0.5031 -0.2874 -0.6531
12209TIP3   OH258041   1.630   4.569  15.251  0.6743 -0.2161 -0.1080
12209TIP3    H158042   1.630   4.659  15.285 -2.0390 -0.1992 -0.0199
12209TIP3    H258043   1.549   4.563  15.200  0.2782 -2.9231  0.7571
12210TIP3   OH258044   0.519   2.434   6.121 -0.1972 -0.2280 -0.4580
12210TIP3    H158045   0.610   2.440   6.150  0.3253 -0.4965 -1.9659
12210TIP3    H258046   0.485   2.355   6.163  0.1622  0.0686  0.3865
12211TIP3   OH258047   2.101   0.086   2.436 -0.7819  0.5933  0.1093
12211TIP3    H158048   2.189   0.062   2.465 -0.6804  2.2831  1.2855
12211TIP3    H258049   2.110   0.104   2.342  0.1081  0.6683  0.2083
12212TIP3   OH258050   5.934   5.195  11.804 -0.6190  0.2070 -0.0053
12212TIP3    H158051   5.847   5.171  11.834 -1.3900  1.5461 -1.1114
12212TIP3    H258052   5.924   5.283  11.767  0.8293 -0.3297 -1.7656
12213TIP3   OH258053   0.504   6.500   4.943 -0.2271 -0.1590 -0.1526
12213TIP3    H158054   0.463   6.444   5.009 -2.3660 -0.9483 -2.0882
12213TIP3    H258055   0.546   6.439   4.882  2.2609  0.5826  0.7350
12214TIP3   OH258056   5.714   6.434   0.031 -0.2005  0.6529  0.1680
12214TIP3    H158057   5.661   6.442   0.110  2.0671 -2.5780  2.1457
12214TIP3    H258058   5.803   6.457   0.060  0.6996 -0.7968 -1.3503
12215TIP3   OH258059   1.560   1.954  14.013 -0.0005  0.3262  0.0567
12215TIP3    H158060   1.598   2.014  13.949  2.5662 -0.3920  0.8467
12215TIP3    H258061   1.618   1.960  14.089 -0.6302 -1.9564  0.7490
12216TIP3   OH258062   4.701   4.974  13.407 -0.1741  0.1163  0.1390
12216TIP3    H158063   4.606   4.962  13.415 -0.0633 -1.7078 -1.0435
12216TIP3    H258064   4.730   4.998  13.495 -1.4399 -1.3540  0.9718
12217TIP3   OH258065   5.680   6.738   3.674  0.1221  0.4519  0.0332
12217TIP3    H158066   5.644   6.729   3.586  0.5805 -0.0322 -0.1081
12217TIP3    H258067   5.769   6.771   3.661 -0.0086  0.9340  0.3439
12218TIP3   OH258068   1.510   5.800  16.392  0.4483  0.3092  0.0911
12218TIP3    H158069   1.487   5.715  16.355 -1.6638  0.9797 -0.2470
12218TIP3    H258070   1.593   5.823  16.350  0.8392 -1.3878 -0.1081
12219TIP3   OH258071   0.533   2.689  14.535  0.2356 -0.5216  0.1450
12219TIP3    H158072   0.464   2.683  14.469  0.7393 -1.3931 -0.3222
12219TIP3    H258073   0.489   2.715  14.615 -0.1808  2.0512 -0.8847
12220TIP3   OH258074   4.996   2.569   1.650  0.0285 -0.6760 -0.0759
12220TIP3    H158075   5.088   2.596   1.641 -0.6547  1.2906 -1.5037
12220TIP3    H258076   4.968   2.546   1.562 -2.0033  2.7577 -0.4282
12221TIP3   OH258077   3.879   3.441  16.567  0.0316 -0.0898 -0.0269
12221TIP3    H158078   3.806   3.502  16.573 -0.1436 -0.1878 -1.2464
12221TIP3    H258079   3.899   3.435  16.474  2.6133  1.1629  0.3818
12222TIP3   OH258080   2.939   2.800   1.834 -0.1474  0.5004  0.0480
12222TIP3    H158081   2.990   2.722   1.853 -1.9185 -0.7373 -0.1081
12222TIP3    H258082   2.891   2.818   1.915 -0.3685  0.9420 -0.1772
12223TIP3   OH258083   6.113   0.542  15.085 -0.1502 -0.1055 -0.1845
12223TIP3    H158084   6.059   0.473  15.123  1.3051 -0.4770  1.2878
12223TIP3    H258085   6.052   0.599  15.039 -1.7654 -0.5968  1.3229
12224TIP3   OH258086   2.086   2.595   0.402  0.5250  1.1633  0.4823
12224TIP3    H158087   2.065   2.579   0.494  1.2136  0.5219  0.5314
12224TIP3    H258088   2.049   2.681   0.384 -0.8733  0.6698  0.9556
12225TIP3   OH258089   3.475   4.574   2.750  0.3012 -0.0828  0.3835
12225TIP3    H158090   3.525   4.655   2.743 -1.3120  1.0510  1.6315
12225TIP3    H258091   3.496   4.526   2.670  0.1002  2.2547 -1.1220
12226TIP3   OH258092   3.486   2.450  14.594  0.2872 -0.0031  0.2427
12226TIP3    H158093   3.566   2.422  14.548 -0.8099 -1.8162 -0.5945
12226TIP3    H258094   3.429   2.482  14.525 -0.8691 -1.5260  0.4731
12227TIP3   OH258095   1.262   3.221   5.381  0.5290  0.0739  0.0229
12227TIP3    H158096   1.223   3.134   5.370  2.3520 -1.0156  1.7949
12227TIP3    H258097   1.341   3.219   5.326 -0.1085  1.0745 -0.9389
12228TIP3   OH258098   0.895   2.578   4.207  0.3353  0.0350  0.1542
12228TIP3    H158099   0.948   2.575   4.127  2.9715 -0.6037  1.8816
12228TIP3    H258100   0.853   2.492   4.211  2.5556 -1.0412  0.9820
12229TIP3   OH258101   5.982   1.786  14.446  0.2282 -0.1889 -0.0666
12229TIP3    H158102   5.957   1.694  14.441 -0.2745  0.0115 -1.6109
12229TIP3    H258103   6.071   1.786  14.481 -0.1348 -1.2001  0.8678
12230TIP3   OH258104   0.030   0.864  11.855 -0.5047 -0.0418 -0.3153
12230TIP3    H158105   0.098   0.894  11.916 -1.1478  0.1812  0.2942
12230TIP3    H258106   0.075   0.859  11.771 -0.2884  2.4420 -0.4024
12231TIP3   OH258107   1.595   5.831  11.819  0.1561  0.0662  0.0724
12231TIP3    H158108   1.638   5.859  11.900  1.5668 -1.2388 -0.1855
12231TIP3    H258109   1.614   5.901  11.756 -0.5492  0.8596  0.7333
12232TIP3   OH258110   0.178   5.099   0.729 -0.0604  0.1755 -0.2104
12232TIP3    H158111   0.164   5.151   0.650 -1.7894 -0.3264 -0.2511
12232TIP3    H258112   0.255   5.046   0.710  0.5505  1.2911 -0.9041
12233TIP3   OH258113   3.156   0.882   3.283  0.1117  0.4810 -0.4557
12233TIP3    H158114   3.106   0.803   3.303 -0.1445  1.0861  1.4086
12233TIP3    H258115   3.098   0.933   3.226 -0.9451  0.6470  0.7345
12234TIP3   OH258116   4.996   3.017  14.038  0.1451  0.7030  0.1825
12234TIP3    H158117   5.016   3.044  13.948 -0.4635  1.2098  0.1984
12234TIP3    H258118   4.900   3.020  14.043 -0.1344 -3.3887 -0.4484
12235TIP3   OH258119   5.777   0.260   5.183  0.4320 -0.0446  0.0328
12235TIP3    H158120   5.725   0.340   5.192 -0.9918 -1.2385  2.8404
12235TIP3    H258121   5.712   0.190   5.171  1.5402 -1.1397  0.2868
12236TIP3   OH258122   6.312   6.436  15.715  0.5782 -0.3820 -0.2003
12236TIP3    H158123   6.379   6.412  15.778  0.9703 -0.4714 -0.6537
12236TIP3    H258124   6.264   6.355  15.698 -0.0800 -0.1757  0.6371
12237TIP3   OH258125   4.421   5.042   5.071 -0.4835  0.1679 -0.3041
12237TIP3    H158126   4.369   5.002   5.141 -0.1540 -0.9399 -0.6793
12237TIP3    H258127   4.510   5.012   5.087 -0.3343  0.2581 -0.9411
12238TIP3   OH258128   5.764   2.854   4.221  0.4308  0.1190  0.1614
12238TIP3    H158129   5.759   2.773   4.272  0.2352 -1.1883 -1.8740
12238TIP3    H258130   5.855   2.883   4.233  0.7923 -0.9398  0.1108
12239TIP3   OH258131   3.464   3.914   1.320 -0.3862  0.1684 -0.2752
12239TIP3    H158132   3.381   3.866   1.311 -0.2643  0.2619 -2.0782
12239TIP3    H258133   3.454   3.989   1.261 -0.2424  1.9202  1.8714
12240TIP3   OH258134   1.115   0.991  15.139  0.3524  0.3685  0.1218
12240TIP3    H158135   1.118   1.009  15.045  3.4900 -0.1224  0.0480
12240TIP3    H258136   1.092   0.898  15.144  0.8841  0.2125 -0.2134
12241TIP3   OH258137   1.475   3.451  13.867 -0.2681 -0.5279 -0.1092
12241TIP3    H158138   1.432   3.524  13.823  0.8006 -0.9644 -1.9571
12241TIP3    H258139   1.486   3.480  13.957 -1.4227  0.8937 -0.4122
12242TIP3   OH258140   4.624   5.709  12.264 -0.6256  0.1619 -0.5970
12242TIP3    H158141   4.694   5.762  12.301 -0.9375 -0.5150  0.9717
12242TIP3    H258142   4.579   5.769  12.204  0.7771  0.8329 -1.0214
12243TIP3   OH258143   2.333   4.427   5.220 -0.5600 -0.2449 -0.1296
12243TIP3    H158144   2.247   4.440   5.178  1.0005  3.2381 -2.4859
12243TIP3    H258145   2.366   4.346   5.181 -1.5239 -0.0117 -1.4834
12244TIP3   OH258146   2.797   4.608  11.916 -0.1465  0.3731  0.4794
12244TIP3    H158147   2.862   4.550  11.957  0.2866  0.1925 -0.4359
12244TIP3    H258148   2.786   4.679  11.979 -0.2943 -0.4363  1.3876
12245TIP3   OH258149   0.530   2.769   1.073  0.6588  0.1997 -0.4003
12245TIP3    H158150   0.539   2.676   1.049 -1.7057  0.3182 -1.9205
12245TIP3    H258151   0.579   2.777   1.155  1.1461 -2.3326 -0.3843
12246TIP3   OH258152   1.045   0.439  14.986  0.1129 -0.2824 -0.1443
12246TIP3    H158153   0.978   0.447  15.054  0.9705  1.7045  0.4829
12246TIP3    H258154   1.014   0.496  14.916  0.7965  0.1028 -0.1318
12247TIP3   OH258155   3.720   3.446  12.129  0.6720 -0.3323 -1.1168
12247TIP3    H158156   3.751   3.466  12.217 -1.2754  0.0155 -0.4966
12247TIP3    H258157   3.749   3.520  12.076  0.2397  0.3461 -0.3982
12248TIP3   OH258158   2.153   4.941  16.587 -0.6254  0.0410 -0.6228
12248TIP3    H158159   2.146   4.969  16.495 -0.1856 -0.3400 -0.7787
12248TIP3    H258160   2.218   4.870  16.585  1.1205  1.5702  0.3301
12249TIP3   OH258161   0.823   0.808   4.430  0.4603  0.5281  0.1552
12249TIP3    H158162   0.865   0.796   4.515 -2.6193  0.0249  1.6984
12249TIP3    H258163   0.799   0.720   4.402  0.6629  0.7760 -0.8220
12250TIP3   OH258164   2.063   0.734   2.717  0.3873  0.2030  0.3950
12250TIP3    H158165   2.069   0.742   2.812 -0.0713 -0.2867  0.4669
12250TIP3    H258166   1.971   0.750   2.697  0.5920  0.8737 -0.0240
12251TIP3   OH258167   5.038   5.756  15.425 -0.0723 -0.6204  0.0376
12251TIP3    H158168   5.130   5.766  15.449  0.5920 -0.4783 -2.3996
12251TIP3    H258169   5.020   5.663  15.438  0.4513 -0.6718  0.4111
12252TIP3   OH258170   6.689   3.211  13.686 -0.0640  0.1228  0.1249
12252TIP3    H158171   6.706   3.117  13.679  0.1634  0.1070  0.8316
12252TIP3    H258172   6.703   3.231  13.778  4.1243  1.6444 -0.7047
12253TIP3   OH258173   6.269   5.769  15.169  0.4474  0.8926 -0.2463
12253TIP3    H158174   6.293   5.795  15.258 -0.8370 -1.8779  0.9823
12253TIP3    H258175   6.175   5.790  15.162  0.0338 -0.8837 -0.1663
12254TIP3   OH258176   0.528   4.116   1.978 -0.2090  0.4518  0.5910
12254TIP3    H158177   0.598   4.169   1.938 -0.6570  0.8163  0.2849
12254TIP3    H258178   0.526   4.036   1.927 -0.5891  0.8001  0.0619
12255TIP3   OH258179   2.396   0.664  16.093 -0.2186  0.3668  0.1182
12255TIP3    H158180   2.361   0.576  16.083 -0.1103  0.1854  1.3152
12255TIP3    H258181   2.414   0.673  16.186  1.0378  1.1718 -0.1828
12256TIP3   OH258182   0.673   5.734   3.090  0.1161 -0.5449 -0.0875
12256TIP3    H158183   0.738   5.701   3.152  1.3534  0.6438 -0.7212
12256TIP3    H258184   0.630   5.807   3.135 -1.7824 -2.1881  0.8554
12257TIP3   OH258185   2.635   2.989   5.977  0.2311 -0.2390  0.0337
12257TIP3    H158186   2.620   2.900   6.007 -1.8141  0.5987  1.6630
12257TIP3    H258187   2.722   3.012   6.010 -0.3552 -0.7239  2.0031
12258TIP3   OH258188   2.566   4.422  12.317 -0.0838 -0.5093 -0.0214
12258TIP3    H158189   2.566   4.348  12.256  1.1490 -1.4245  1.0609
12258TIP3    H258190   2.647   4.469  12.298  0.0254 -0.4765  0.5284
12259TIP3   OH258191   1.060   1.518   4.699 -0.3344  0.0771 -0.0150
12259TIP3    H158192   1.093   1.540   4.786  0.4253 -0.0602 -0.2690
12259TIP3    H258193   1.000   1.589   4.678 -0.5162  0.1156  0.6200
12260TIP3   OH258194   6.520   3.111   3.813 -0.1400  0.0433  0.2898
12260TIP3    H158195   6.560   3.157   3.740 -0.0439  0.3237  0.5212
12260TIP3    H258196   6.506   3.022   3.780  1.6841 -0.3734  0.5607
12261TIP3   OH258197   2.394   6.331   2.165  0.1379  0.2196 -0.1116
12261TIP3    H158198   2.372   6.287   2.247 -0.9851  1.0770  0.0592
12261TIP3    H258199   2.386   6.263   2.098  1.4893 -0.5967  0.5272
12262TIP3   OH258200   4.631   3.468  12.086  0.0658  0.0797  0.3084
12262TIP3    H158201   4.555   3.485  12.031 -0.5285  1.4233  1.5321
12262TIP3    H258202   4.701   3.520  12.046 -0.3984  1.1599  0.8621
12263TIP3   OH258203   1.970   5.679   1.208  0.4833  0.5366  0.1499
12263TIP3    H158204   2.015   5.626   1.274 -0.2698 -2.8291 -1.9051
12263TIP3    H258205   2.006   5.648   1.124 -2.7506  0.5361 -1.3095
12264TIP3   OH258206   1.147   0.735  14.379  0.2289  0.7245  0.2731
12264TIP3    H158207   1.067   0.712  14.426  0.5327 -1.6811 -0.3162
12264TIP3    H258208   1.210   0.757  14.448 -0.4243  0.9635  0.7995
12265TIP3   OH258209   3.109   4.077   4.412  0.0713  0.5155  0.0625
12265TIP3    H158210   3.047   4.046   4.346 -1.7865  0.3771  1.8353
12265TIP3    H258211   3.102   4.172   4.409  0.0275  0.5117  0.0413
12266TIP3   OH258212   2.647   4.940  11.759  0.3564  0.5985  0.2427
12266TIP3    H158213   2.616   5.000  11.691 -2.5024 -2.3981 -1.2381
12266TIP3    H258214   2.584   4.950  11.830  1.1675  0.9188  0.9338
12267TIP3   OH258215   1.998   3.283   6.753  0.1698  0.2247  0.0720
12267TIP3    H158216   2.089   3.309   6.737 -0.0678  0.3544 -1.1755
12267TIP3    H258217   2.006   3.198   6.796  0.8940 -0.1938 -0.8406
12268TIP3   OH258218   1.585   0.325   3.460  0.1113  0.3251 -0.1076
12268TIP3    H158219   1.547   0.384   3.395 -0.8005 -2.3848 -2.0932
12268TIP3    H258220   1.680   0.329   3.444  0.1824  2.1698  0.6192
12269TIP3   OH258221   3.046   6.753  15.942  0.3087 -0.0956 -0.2913
12269TIP3    H158222   2.967   6.731  15.892  0.9297 -1.1049 -0.8371
12269TIP3    H258223   3.013   6.785  16.026 -0.6459 -3.5698  0.7431
12270TIP3   OH258224   3.099   1.437   3.321  0.1858 -0.2938 -0.3283
12270TIP3    H158225   3.105   1.513   3.379 -2.2049 -1.0786  1.0320
12270TIP3    H258226   3.135   1.467   3.238 -0.6258  2.3209  0.2239
12271TIP3   OH258227   1.687   0.475  12.634  0.4280  0.3933 -0.6064
12271TIP3    H158228   1.773   0.517  12.632 -1.2270  3.8969 -1.5391
12271TIP3    H258229   1.681   0.429  12.550  0.7642  1.4994 -1.2457
12272TIP3   OH258230   1.121   4.884   0.406 -0.5426 -0.2097  0.0397
12272TIP3    H158231   1.108   4.933   0.487  0.5076 -0.2868  0.2586
12272TIP3    H258232   1.192   4.929   0.361 -0.1797 -0.9903 -0.1783
12273TIP3   OH258233   3.349   4.700   0.046  0.1566 -0.1938  0.3289
12273TIP3    H158234   3.444   4.708   0.057  0.1509  2.4112 -1.0257
12273TIP3    H258235   3.338   4.619  -0.003  1.6610 -0.7810  0.9246
12274TIP3   OH258236   3.345   4.002  13.759 -0.4097  0.0652 -0.7027
12274TIP3    H158237   3.400   4.015  13.837  0.5925  0.0407 -1.3956
12274TIP3    H258238   3.266   3.959  13.792  0.0945 -0.1271  0.2675
12275TIP3   OH258239   2.681   0.086   2.486 -0.5686  0.0831  0.2371
12275TIP3    H158240   2.755   0.035   2.451 -0.1770  1.0754 -0.4043
12275TIP3    H258241   2.672   0.159   2.425 -2.9886 -0.7755 -0.4782
12276TIP3   OH258242   2.179   1.488   1.373 -0.1126 -0.5410  0.3330
12276TIP3    H158243   2.196   1.534   1.291 -0.1977 -0.6265  0.2666
12276TIP3    H258244   2.180   1.557   1.439 -1.1083 -0.3118  0.1243
12277TIP3   OH258245   2.719   1.031   0.041  0.4354  0.1422 -0.2282
12277TIP3    H158246   2.698   0.984  -0.040  1.2006 -0.5335 -0.0434
12277TIP3    H258247   2.775   0.971   0.089  0.2480  0.6749  0.6641
12278TIP3   OH258248   4.299   3.720  11.183  0.7303  0.1073  0.2260
12278TIP3    H158249   4.334   3.809  11.176  2.2129 -0.4958 -0.3053
12278TIP3    H258250   4.226   3.718  11.121  2.6153  0.0665 -2.0440
12279TIP3   OH258251   0.137   3.594  14.806 -0.4496  0.5476 -0.0499
12279TIP3    H158252   0.080   3.526  14.770  0.2346  0.5770 -1.1999
12279TIP3    H258253   0.184   3.629  14.731  0.0457  1.5105  0.6942
12280TIP3   OH258254   5.181   4.879  13.785  1.0670 -0.1743 -0.3426
12280TIP3    H158255   5.160   4.914  13.872 -0.3975  0.2066 -0.8410
12280TIP3    H258256   5.218   4.792  13.803  1.0241  0.0084  0.6801
12281TIP3   OH258257   1.881   0.461  14.584 -0.9802 -0.4377  0.0612
12281TIP3    H158258   1.858   0.404  14.511 -0.1284 -0.5862 -0.0982
12281TIP3    H258259   1.834   0.425  14.660  0.5827 -2.1468  0.2454
12282TIP3   OH258260   3.741   2.972  14.668 -0.0446 -1.0980  0.0784
12282TIP3    H158261   3.801   3.046  14.683 -0.9150 -0.3335 -0.1983
12282TIP3    H258262   3.771   2.934  14.585 -0.4877 -0.1699 -0.5138
12283TIP3   OH258263   5.222   6.157  12.622  0.3343  0.7401  0.5201
12283TIP3    H158264   5.208   6.178  12.530 -1.3268 -0.6681  0.4231
12283TIP3    H258265   5.232   6.061  12.623 -0.9747  0.5997  1.9359
12284TIP3   OH258266   3.834   4.389  15.515  0.1201  0.1122 -0.2562
12284TIP3    H158267   3.770   4.323  15.544 -1.2907  1.5138 -0.1326
12284TIP3    H258268   3.862   4.432  15.595 -0.9710  1.4525 -0.5768
12285TIP3   OH258269   3.577   1.038   4.650 -0.2400  0.1146 -0.0988
12285TIP3    H158270   3.642   1.096   4.611  0.9574 -1.8952 -1.1841
12285TIP3    H258271   3.619   1.006   4.730 -0.2484 -0.4500 -0.3159
12286TIP3   OH258272   6.319   3.468   3.255  0.4367  0.0286  0.2328
12286TIP3    H158273   6.322   3.561   3.278  2.4994  0.5379 -1.8350
12286TIP3    H258274   6.346   3.466   3.163 -0.0097 -2.5872  0.1375
12287TIP3   OH258275   0.877   6.214   3.542 -0.3059 -0.0725 -0.5081
12287TIP3    H158276   0.950   6.162   3.509 -0.5425 -0.6806 -0.0648
12287TIP3    H258277   0.831   6.243   3.463  0.5805  0.5638 -0.8039
12288TIP3   OH258278   3.514   1.201  15.100  0.6272 -0.3486 -0.1109
12288TIP3    H158279   3.436   1.149  15.084  0.8376 -0.2968 -1.3334
12288TIP3    H258280   3.579   1.138  15.131  0.2865 -0.4870  0.3272
12289TIP3   OH258281   5.680   2.462   0.726  0.0380  0.0062 -0.3968
12289TIP3    H158282   5.686   2.370   0.699  1.7665 -0.5704  1.8100
12289TIP3    H258283   5.758   2.503   0.689 -0.3952  0.4475 -0.8297
12290TIP3   OH258284   2.939   3.799   2.117 -0.2075 -0.3029 -0.5002
12290TIP3    H158285   3.010   3.745   2.154  1.3867  1.8128 -0.3836
12290TIP3    H258286   2.929   3.766   2.028 -0.5853 -2.0604  0.1633
12291TIP3   OH258287   4.902   0.202   0.533 -0.0263 -0.9776  0.2091
12291TIP3    H158288   4.985   0.166   0.564  0.6359  0.3050 -0.0378
12291TIP3    H258289   4.858   0.129   0.492  0.0306 -2.2062  2.2530
12292TIP3   OH258290   4.297   2.119  15.476 -0.0293  0.7881  0.1000
12292TIP3    H158291   4.268   2.189  15.535  0.0690 -0.3963  1.5886
12292TIP3    H258292   4.217   2.086  15.436 -0.1436  1.3057 -0.1029
12293TIP3   OH258293   5.156   2.057  13.053 -0.2643  0.1921 -0.0096
12293TIP3    H158294   5.092   1.987  13.064 -0.3489  0.2983  0.1806
12293TIP3    H258295   5.120   2.131  13.102 -0.0836  0.3108 -0.0525
12294TIP3   OH258296   5.849   6.164  12.725 -0.2385  0.6386 -0.7499
12294TIP3    H158297   5.779   6.228  12.727  0.4941  1.4708 -1.1390
12294TIP3    H258298   5.912   6.194  12.791 -0.4453 -0.3276 -0.1095
12295TIP3   OH258299   2.017   1.153  12.402 -0.7117 -0.1376  0.6849
12295TIP3    H158300   2.083   1.136  12.335 -0.5474  2.1248  0.2142
12295TIP3    H258301   2.067   1.155  12.484 -0.4522 -0.0491  0.5273
12296TIP3   OH258302   1.447   6.257   4.816 -0.5032 -0.1056 -0.0838
12296TIP3    H158303   1.381   6.301   4.763 -1.6680  1.0726  2.2571
12296TIP3    H258304   1.403   6.178   4.848  0.6119 -1.4818 -1.8704
12297TIP3   OH258305   2.020   6.580   3.418 -0.0116  0.4406  0.1452
12297TIP3    H158306   1.967   6.614   3.490  0.3293  1.5346 -0.1096
12297TIP3    H258307   2.070   6.508   3.457 -1.9770 -0.8799  0.2807
12298TIP3   OH258308   1.477   2.292   2.385  0.2244  0.0027 -0.0045
12298TIP3    H158309   1.501   2.384   2.391 -0.2962  0.0221  2.5298
12298TIP3    H258310   1.406   2.289   2.321 -0.5510  1.5566  0.7581
12299TIP3   OH258311   6.000   0.157  10.527  0.5784 -0.0132 -0.1428
12299TIP3    H158312   6.007   0.114  10.612  0.8687 -1.5145 -0.9013
12299TIP3    H258313   6.090   0.169  10.498  0.4682 -0.1646 -0.5561
12300TIP3   OH258314   5.619   5.710   0.743 -0.5007  0.5552 -0.3616
12300TIP3    H158315   5.694   5.654   0.763 -0.7359  0.9480  1.6528
12300TIP3    H258316   5.572   5.663   0.674  0.4220 -0.7154 -0.1441
12301TIP3   OH258317   1.599   2.930  15.491 -0.3266  0.2759  0.3220
12301TIP3    H158318   1.674   2.921  15.549 -0.3933  1.6169  0.6449
12301TIP3    H258319   1.611   3.016  15.449 -1.1307  0.0478 -0.4080
12302TIP3   OH258320   0.434   2.050  13.891  0.7682 -0.1070 -0.3077
12302TIP3    H158321   0.427   2.146  13.885  1.3949 -0.1576 -2.0760
12302TIP3    H258322   0.492   2.026  13.820 -1.0642 -2.0217 -1.2020
12303TIP3   OH258323   3.093   3.442  16.726 -0.3430  0.2662 -0.3703
12303TIP3    H158324   3.044   3.442  16.644  0.7792 -0.4172 -1.0474
12303TIP3    H258325   3.045   3.503  16.782 -0.8832  1.0430 -1.6624
12304TIP3   OH258326   1.600   2.700   3.540 -0.2714 -0.1692 -0.3036
12304TIP3    H158327   1.516   2.658   3.520 -0.3352 -0.0147 -0.3576
12304TIP3    H258328   1.642   2.640   3.602 -1.1379  0.5790  1.0192
12305TIP3   OH258329   3.506   6.306  12.518  0.2571  0.5704  0.0530
12305TIP3    H158330   3.427   6.360  12.512  0.0549  0.1255 -1.4416
12305TIP3    H258331   3.578   6.369  12.517 -0.0718  1.0390  2.3010
12306TIP3   OH258332   1.064   4.710   5.710 -0.1631 -0.1475 -0.1068
12306TIP3    H158333   1.006   4.674   5.643 -0.6915  0.2073  0.1571
12306TIP3    H258334   1.023   4.686   5.793 -1.3461  2.3625  0.0718
12307TIP3   OH258335   5.173   6.182   1.078 -0.1388  1.0179 -0.6279
12307TIP3    H158336   5.109   6.194   1.148  1.6901  2.8845  0.7892
12307TIP3    H258337   5.258   6.195   1.121  1.0612  1.2355 -2.9993
12308TIP3   OH258338   3.795   1.522  14.353  0.1366  0.0913 -0.3503
12308TIP3    H158339   3.843   1.604  14.337  0.1243  0.0492 -0.6046
12308TIP3    H258340   3.851   1.473  14.413  0.0796  0.3461 -0.0896
12309TIP3   OH258341   0.292   1.319  14.603  0.0010 -0.1262 -0.1215
12309TIP3    H158342   0.243   1.392  14.567  0.0091 -0.0930 -0.0644
12309TIP3    H258343   0.325   1.272  14.526  0.3623  0.1779 -0.1549
12310TIP3   OH258344   4.677   5.271  16.919 -0.2102 -0.4298 -0.0419
12310TIP3    H158345   4.697   5.273  16.825  0.4116  1.1863  0.0934
12310TIP3    H258346   4.582   5.264  16.923 -0.2136 -0.8910 -0.7964
12311TIP3   OH258347   4.553   4.081  13.728 -0.1349 -0.4301 -0.2062
12311TIP3    H158348   4.473   4.097  13.779  0.1916 -0.1671  0.2285
12311TIP3    H258349   4.574   4.167  13.691 -0.0289 -0.4917 -0.2857
12312TIP3   OH258350   6.009   3.284   4.212  0.1285 -0.1213  0.4186
12312TIP3    H158351   5.992   3.286   4.306  1.0479  0.6057  0.5706
12312TIP3    H258352   6.098   3.251   4.204 -0.5374 -1.8173 -0.2819
12313TIP3   OH258353   2.375   1.741   3.005  0.2519 -0.3257  0.6893
12313TIP3    H158354   2.420   1.731   3.088  0.1560  1.0414  0.9082
12313TIP3    H258355   2.290   1.779   3.027  0.4899  0.6884 -0.0935
12314TIP3   OH258356   3.512   2.968  13.479 -0.0933 -0.0417 -0.2847
12314TIP3    H158357   3.513   2.970  13.384  1.1819 -2.4529 -0.3684
12314TIP3    H258358   3.603   2.977  13.505 -0.0684 -2.3835  0.5668
12315TIP3   OH258359   1.766   1.320  13.269 -0.0211 -0.0247 -0.3322
12315TIP3    H158360   1.739   1.229  13.259  1.8134 -0.4582 -1.4731
12315TIP3    H258361   1.714   1.352  13.343 -2.5515 -1.2224 -1.5184
12316TIP3   OH258362   6.204   5.883   2.949  0.2575 -0.1940 -0.6246
12316TIP3    H158363   6.200   5.914   3.039  0.4649 -2.0264  0.0333
12316TIP3    H258364   6.289   5.913   2.917  0.5183 -0.2208  0.0434
12317TIP3   OH258365   3.724   2.005   4.449 -0.3483  0.1650  0.1462
12317TIP3    H158366   3.714   2.026   4.356  1.3296 -0.9364 -0.3103
12317TIP3    H258367   3.664   1.932   4.464  0.9991 -1.1332 -0.6317
12318TIP3   OH258368   1.792   6.565   4.307 -0.0376  0.1943  0.1090
12318TIP3    H158369   1.785   6.540   4.399  1.0663  1.7326  0.6386
12318TIP3    H258370   1.702   6.565   4.275 -0.6636  1.7090  1.7775
12319TIP3   OH258371   3.812   3.895  16.713  0.1419  0.4796  0.2849
12319TIP3    H158372   3.721   3.872  16.692 -0.0681  1.4735  0.0413
12319TIP3    H258373   3.843   3.943  16.636  0.9332 -0.0134  0.2926
12320TIP3   OH258374   1.955   6.450  11.168  0.4815 -0.0896 -0.2845
12320TIP3    H158375   2.005   6.502  11.104  0.0648 -0.4586 -0.9132
12320TIP3    H258376   1.950   6.506  11.245  2.8247 -0.4742  0.1847
12321TIP3   OH258377   4.491   2.080  11.615  0.6042 -0.0581  0.6691
12321TIP3    H158378   4.567   2.071  11.558  0.3816 -1.7667  0.6370
12321TIP3    H258379   4.520   2.141  11.683  1.5786  0.2961 -0.0402
12322TIP3   OH258380   3.057   3.689   5.369  0.1362 -0.3032 -0.0220
12322TIP3    H158381   3.130   3.688   5.307  0.0155  0.6971 -0.2010
12322TIP3    H258382   3.098   3.673   5.454  0.2752 -1.8846 -0.3790
12323TIP3   OH258383   0.690   2.660   3.332 -0.2165  0.3586 -0.3951
12323TIP3    H158384   0.783   2.679   3.348 -0.3862 -0.0815  1.2407
12323TIP3    H258385   0.685   2.564   3.333 -0.8752  0.3943  0.7335
12324TIP3   OH258386   2.508   2.976   5.722  0.0536  0.1138 -0.4535
12324TIP3    H158387   2.545   2.970   5.810  0.2705  0.2721 -0.5340
12324TIP3    H258388   2.430   3.031   5.732 -1.5705 -2.2261  0.1707
12325TIP3   OH258389   6.659   2.949  13.620 -0.4640 -0.2907  0.4213
12325TIP3    H158390   6.565   2.946  13.639 -0.1263 -1.5366  2.0983
12325TIP3    H258391   6.666   2.997  13.538 -2.4738  0.8943  0.9085
12326TIP3   OH258392   3.498   2.864   5.941  0.1943 -0.0247  0.3561
12326TIP3    H158393   3.523   2.869   6.034 -0.3336  2.3955  0.3916
12326TIP3    H258394   3.471   2.773   5.929 -0.3243 -0.2296  2.7324
12327TIP3   OH258395   3.526   4.178  14.075 -0.3453 -0.1590 -0.2693
12327TIP3    H158396   3.508   4.210  14.164  0.6803  0.6841 -0.3406
12327TIP3    H258397   3.485   4.092  14.071  0.2438 -0.5359  1.2915
12328TIP3   OH258398   1.769   6.054   3.538 -0.0046  0.1791 -0.4632
12328TIP3    H158399   1.717   6.086   3.465  0.1065  1.0153 -0.1812
12328TIP3    H258400   1.770   6.126   3.601  0.6699 -0.1864 -0.0393
12329TIP3   OH258401   0.953   5.740  16.202 -0.4430  0.1027 -0.9811
12329TIP3    H158402   0.964   5.812  16.140 -1.4332  0.1971 -1.0551
12329TIP3    H258403   0.975   5.779  16.287 -0.0070  0.2217 -1.1444
12330TIP3   OH258404   0.758   0.186   0.582 -0.4671  0.4539  0.3257
12330TIP3    H158405   0.721   0.157   0.499 -1.4724  1.2074  0.4968
12330TIP3    H258406   0.838   0.232   0.558  0.8158 -1.8763  0.0123
12331TIP3   OH258407   2.306   4.778  15.136  0.0837  0.2479  0.2620
12331TIP3    H158408   2.381   4.738  15.092 -0.8329 -0.4256 -0.7049
12331TIP3    H258409   2.325   4.765  15.229  1.5575  0.8112  0.0642
12332TIP3   OH258410   3.319   1.294  10.986  0.0967  0.1570  0.4597
12332TIP3    H158411   3.414   1.300  10.985  0.0181  1.4647 -0.5284
12332TIP3    H258412   3.301   1.200  10.991  1.4422 -0.2480 -1.6921
12333TIP3   OH258413   2.862   4.741   6.166  0.5356  0.2745  0.4716
12333TIP3    H158414   2.861   4.652   6.131  1.6334  0.2337  0.5395
12333TIP3    H258415   2.793   4.786   6.117 -1.7592 -1.2652  2.1673
12334TIP3   OH258416   2.899   6.692  14.924  0.1744 -0.7088 -0.6280
12334TIP3    H158417   2.939   6.717  14.841 -0.5276 -0.4246 -0.8814
12334TIP3    H258418   2.896   6.596  14.921  1.3547 -0.7610 -0.3595
12335TIP3   OH258419   4.067   2.690  17.128 -0.4298 -0.5082  0.2422
12335TIP3    H158420   4.078   2.784  17.113  1.0945 -0.7396 -0.1717
12335TIP3    H258421   4.138   2.667  17.188 -1.1837 -1.2819  0.8405
12336TIP3   OH258422   3.297   3.791  14.451  0.2178  0.8656 -0.3856
12336TIP3    H158423   3.240   3.752  14.384 -0.1524  0.0153  0.4139
12336TIP3    H258424   3.386   3.770  14.422  0.0053 -1.0553  0.3223
12337TIP3   OH258425   3.124   4.918   3.400 -0.2570  0.3610  0.1712
12337TIP3    H158426   3.118   4.918   3.305 -1.1275  0.5366  0.2270
12337TIP3    H258427   3.089   4.833   3.426  0.3342  0.1558  0.3179
12338TIP3   OH258428   1.444   5.071   1.926  0.5239 -0.4025  0.2356
12338TIP3    H158429   1.506   5.132   1.888  0.5895 -1.0284 -0.6646
12338TIP3    H258430   1.404   5.026   1.851 -0.4935 -0.5103  0.8251
12339TIP3   OH258431   3.332   0.370  15.589  0.3292 -0.0601 -0.0896
12339TIP3    H158432   3.365   0.332  15.508  0.1180 -1.4309  0.4525
12339TIP3    H258433   3.391   0.337  15.657 -0.6971 -0.5565  0.5678
12340TIP3   OH258434   0.780   0.630   0.550  0.0685 -0.4126  0.0725
12340TIP3    H158435   0.753   0.624   0.642 -3.0941  0.3639 -0.7310
12340TIP3    H258436   0.743   0.552   0.509  0.2452 -0.0417 -0.8157
12341TIP3   OH258437   3.333   0.708  15.299  0.3673 -0.0414 -0.0037
12341TIP3    H158438   3.242   0.679  15.297  0.0300  0.9149  1.0082
12341TIP3    H258439   3.328   0.802  15.317  1.5779 -0.1669  1.1047
12342TIP3   OH258440   5.885   3.019   5.608 -0.6197  0.2173  0.2102
12342TIP3    H158441   5.809   3.059   5.564  0.4734 -0.5196 -2.4248
12342TIP3    H258442   5.958   3.076   5.585  0.3279 -1.3147 -0.6617
12343TIP3   OH258443   2.735   5.708  14.625  0.6475 -0.3084 -0.3866
12343TIP3    H158444   2.758   5.621  14.591  2.0494  0.2371 -0.8288
12343TIP3    H258445   2.641   5.716  14.606 -0.2360 -2.9445  2.3301
12344TIP3   OH258446   0.908   2.502   0.057  0.4618  0.5966  0.0523
12344TIP3    H158447   0.969   2.563   0.015  1.4992 -0.4026  0.0775
12344TIP3    H258448   0.964   2.431   0.090 -0.8913 -1.3633 -1.7259
12345TIP3   OH258449   0.713   4.384   5.458 -0.0439  0.0281  0.3000
12345TIP3    H158450   0.651   4.329   5.505 -0.8621  0.2344 -0.5281
12345TIP3    H258451   0.761   4.323   5.402 -0.7646  0.1193 -0.4178
12346TIP3   OH258452   3.311   6.659  12.650 -0.9911 -0.0914  0.1914
12346TIP3    H158453   3.345   6.723  12.713 -1.2529 -0.5809  0.8403
12346TIP3    H258454   3.287   6.711  12.574  1.3182  0.2644 -0.3461
12347TIP3   OH258455   4.216   3.031  10.791 -0.3394 -0.1181 -0.4681
12347TIP3    H158456   4.132   3.067  10.764  0.0450  0.5697 -0.7344
12347TIP3    H258457   4.236   3.075  10.874 -0.2363 -0.2827 -0.4038
12348TIP3   OH258458   1.868   1.656  11.796  0.4351  0.5852 -0.0941
12348TIP3    H158459   1.954   1.660  11.839 -0.6292  1.9785  1.9476
12348TIP3    H258460   1.864   1.735  11.742  0.2154  0.7794  0.2101
12349TIP3   OH258461   5.588   0.454   5.263  0.0590  0.3198 -0.3045
12349TIP3    H158462   5.619   0.525   5.319 -0.3347  1.0484 -1.0005
12349TIP3    H258463   5.494   0.452   5.277  0.0906 -0.1882 -0.1524
12350TIP3   OH258464   5.290   3.666   4.125  0.0323  0.1498 -0.2226
12350TIP3    H158465   5.243   3.700   4.201  0.8742 -1.3730  0.9907
12350TIP3    H258466   5.276   3.571   4.128  0.9972 -0.0444 -1.3374
12351TIP3   OH258467   0.940   5.670   2.094 -0.4871 -0.2328  0.1033
12351TIP3    H158468   0.874   5.634   2.035 -0.9118  0.6938 -0.0013
12351TIP3    H258469   1.023   5.652   2.051 -0.8398  1.2296 -1.2526
12352TIP3   OH258470   1.457   6.500  14.431  0.4296 -0.6904 -0.4053
12352TIP3    H158471   1.487   6.410  14.445 -1.8413 -1.8389 -2.3594
12352TIP3    H258472   1.493   6.524  14.346  1.1707  0.3139  0.1912
12353TIP3   OH258473   2.720   6.606  13.305  0.2402  0.4051 -0.0199
12353TIP3    H158474   2.667   6.653  13.370 -2.5617 -1.7522 -0.6257
12353TIP3    H258475   2.659   6.587  13.234  1.4567 -3.3964 -0.1495
12354TIP3   OH258476   4.270   0.357   2.957  0.5231  0.0467  0.7174
12354TIP3    H158477   4.254   0.274   3.002  0.6612 -0.0740  0.5471
12354TIP3    H258478   4.243   0.340   2.867  2.2551 -0.3804  0.2622
12355TIP3   OH258479   0.094   0.471  17.081 -0.6951 -0.0771 -0.1024
12355TIP3    H158480   0.101   0.480  16.986 -2.9004 -0.7842 -0.3661
12355TIP3    H258481   0.075   0.559  17.113  2.3420  0.5941 -0.0501
12356TIP3   OH258482   3.523   4.776   6.111  1.5199 -0.0312 -0.4894
12356TIP3    H158483   3.475   4.844   6.158  0.9708 -1.1732  0.6513
12356TIP3    H258484   3.564   4.822   6.038 -0.1361  1.2373 -0.6734
12357TIP3   OH258485   3.281   2.828  15.871  0.6602  0.6218  0.3201
12357TIP3    H158486   3.207   2.790  15.919 -0.3610  2.2389  0.0859
12357TIP3    H258487   3.240   2.881  15.803  2.0770 -0.9294 -1.8118
12358TIP3   OH258488   4.075   3.477   3.015 -0.0601  0.5782  0.2143
12358TIP3    H158489   4.047   3.397   2.970  0.2246  0.4882  0.1955
12358TIP3    H258490   4.171   3.471   3.018  0.0434  1.4405 -0.7697
12359TIP3   OH258491   5.388   1.656   2.909 -0.4479 -0.0113  0.9762
12359TIP3    H158492   5.439   1.596   2.964 -2.9539 -2.0049  1.1998
12359TIP3    H258493   5.337   1.599   2.852 -3.5452  1.8292  1.7649
12360TIP3   OH258494   0.501   5.783  11.889 -0.1763 -0.3430  0.7640
12360TIP3    H158495   0.443   5.758  11.961 -1.6497  1.9556  0.4289
12360TIP3    H258496   0.540   5.866  11.917 -0.1023  0.1394 -0.7346
12361TIP3   OH258497   2.851   0.587   0.043  0.2390  0.1302  0.0703
12361TIP3    H158498   2.863   0.503  -0.001 -0.4909  0.4571 -0.7588
12361TIP3    H258499   2.789   0.568   0.114  0.6258 -0.1770  0.3322
12362TIP3   OH258500   5.202   0.063   3.044  0.7768  0.0577 -0.0629
12362TIP3    H158501   5.289   0.039   3.077  1.2406 -0.9444 -1.9885
12362TIP3    H258502   5.210   0.156   3.021  2.4346 -0.8849 -3.5806
12363TIP3   OH258503   3.690   0.321   3.827  0.2924 -0.1424  0.7971
12363TIP3    H158504   3.604   0.358   3.850  0.2098  0.0914  0.1297
12363TIP3    H258505   3.670   0.253   3.762  0.6768  0.5100 -0.0180
12364TIP3   OH258506   1.808   0.406   3.995 -0.6464 -0.3284  0.1489
12364TIP3    H158507   1.893   0.426   3.956 -0.6594 -0.0986  0.2336
12364TIP3    H258508   1.826   0.334   4.056 -0.3054  0.4310  0.9547
12365TIP3   OH258509   0.418   5.244  11.022  0.0584 -0.9344 -0.7893
12365TIP3    H158510   0.376   5.186  10.958 -2.6045 -1.9529  1.7872
12365TIP3    H258511   0.421   5.329  10.978 -1.0247 -1.7695 -2.5509
12366TIP3   OH258512   1.825   5.798   3.110 -0.1324 -0.4976  0.1668
12366TIP3    H158513   1.891   5.827   3.174 -0.6896  1.4450 -0.1128
12366TIP3    H258514   1.863   5.820   3.025 -1.4439  1.3462  0.0277
12367TIP3   OH258515   2.713   6.278   3.809 -0.6025  0.0261  0.3102
12367TIP3    H158516   2.629   6.234   3.817  0.5216 -2.5973 -1.4132
12367TIP3    H258517   2.776   6.207   3.793  1.8623  1.9523  1.1119
12368TIP3   OH258518   0.860   0.694  14.363 -0.2370 -0.5326  0.7025
12368TIP3    H158519   0.800   0.621  14.377 -0.7904  0.4001  3.4141
12368TIP3    H258520   0.817   0.750  14.298 -1.3820 -0.8543  1.1936
12369TIP3   OH258521   5.020   3.524   0.104  0.6864  0.1685 -0.4424
12369TIP3    H158522   4.986   3.608   0.133 -0.1959 -0.3956  0.1669
12369TIP3    H258523   5.025   3.471   0.183  1.7059 -0.1986 -0.7431
12370TIP3   OH258524   1.397   2.967   0.582 -0.2690  0.0762  0.4106
12370TIP3    H158525   1.324   2.976   0.643 -0.2497  0.0906  0.4319
12370TIP3    H258526   1.426   3.057   0.566 -2.0684  0.3195 -1.8224
12371TIP3   OH258527   1.631   2.671   5.350  0.0352  0.5124  0.0227
12371TIP3    H158528   1.666   2.654   5.438 -0.6917  0.4982  0.3155
12371TIP3    H258529   1.537   2.685   5.364 -0.1430  0.1814 -0.7887
12372TIP3   OH258530   0.639   4.914  14.091  0.0196 -0.2926  0.4792
12372TIP3    H158531   0.690   4.931  14.012 -0.7504 -0.1193  0.0104
12372TIP3    H258532   0.673   4.830  14.124  1.1535  0.2168  0.6356
12373TIP3   OH258533   5.539   4.038  16.431  0.1113 -0.0001 -0.5849
12373TIP3    H158534   5.598   4.079  16.367 -0.8197  0.2175 -1.3187
12373TIP3    H258535   5.544   3.945  16.413 -0.5176  0.1010 -1.3029
12374TIP3   OH258536   2.643   5.143   3.220 -0.2923 -0.0201  0.4751
12374TIP3    H158537   2.590   5.164   3.296  0.1825  0.7176  0.6022
12374TIP3    H258538   2.610   5.201   3.151 -1.0577 -1.0319 -0.0246
12375TIP3   OH258539   5.539   0.332  14.831  0.1856  0.1543  0.0582
12375TIP3    H158540   5.611   0.388  14.862 -0.3306 -0.0816  1.7579
12375TIP3    H258541   5.520   0.364  14.743  0.2737  2.2982  0.7851
12376TIP3   OH258542   0.172   2.327  16.219  0.3148  0.1693 -0.1101
12376TIP3    H158543   0.121   2.326  16.137 -0.4332  2.4809  0.2891
12376TIP3    H258544   0.127   2.392  16.273 -0.2793 -2.6262  2.8638
12377TIP3   OH258545   4.259   3.966   0.770  0.5627 -0.0325  0.4712
12377TIP3    H158546   4.203   3.888   0.779 -0.3354  0.8182  2.4761
12377TIP3    H258547   4.309   3.949   0.690 -2.0784 -1.1427 -1.0480
12378TIP3   OH258548   1.525   3.244   3.214 -0.0327  0.2978  0.0781
12378TIP3    H158549   1.497   3.251   3.305  0.7738  2.5374  0.1889
12378TIP3    H258550   1.456   3.288   3.164  0.3356  0.5259 -0.2296
12379TIP3   OH258551   4.858   6.568   0.140  0.4455  0.1598  0.2634
12379TIP3    H158552   4.944   6.581   0.100 -0.6365  5.0259 -0.9281
12379TIP3    H258553   4.798   6.560   0.066 -0.4589 -0.1230  1.0183
12380TIP3   OH258554   0.289   5.026   3.225 -0.0241 -0.3121  0.1477
12380TIP3    H158555   0.226   4.956   3.210  0.5217 -0.8982  0.5789
12380TIP3    H258556   0.267   5.060   3.312 -0.0957 -0.1349  0.0629
12381TIP3   OH258557   5.337   5.663  11.615  0.0843  0.8757 -0.2119
12381TIP3    H158558   5.374   5.729  11.673  1.1326  0.6751 -0.6441
12381TIP3    H258559   5.244   5.684  11.611 -0.0670  0.7224  1.7826
12382TIP3   OH258560   6.653   4.901  14.139  0.1557  0.1448 -0.0202
12382TIP3    H158561   6.653   4.815  14.097  0.0412 -0.0159  0.3132
12382TIP3    H258562   6.576   4.945  14.102 -1.2846 -0.8290  1.7281
12383TIP3   OH258563   2.824   2.403   4.581 -0.3219 -1.0094  0.0081
12383TIP3    H158564   2.851   2.425   4.670 -1.9319 -0.5265  0.3986
12383TIP3    H258565   2.761   2.333   4.591  1.0422 -2.3999 -0.9148
12384TIP3   OH258566   5.641   3.684   4.795  0.3298  0.2565 -0.3916
12384TIP3    H158567   5.729   3.721   4.797  0.0359  1.0111 -0.9152
12384TIP3    H258568   5.649   3.599   4.837  0.8017  1.3849  1.8683
12385TIP3   OH258569   1.724   4.137   2.297  0.6111 -0.0866  0.4837
12385TIP3    H158570   1.785   4.069   2.268  0.3000  0.3392 -1.1785
12385TIP3    H258571   1.639   4.092   2.301  0.8668 -0.4577  1.9541
12386TIP3   OH258572   0.107   4.282   6.125 -0.0862 -0.1630  0.3985
12386TIP3    H158573   0.022   4.262   6.163 -0.5051 -0.3215 -0.6005
12386TIP3    H258574   0.099   4.371   6.092 -0.0800 -0.4141 -0.2866
12387TIP3   OH258575   1.634   3.081   6.654  0.0165  0.0332 -0.4296
12387TIP3    H158576   1.626   3.007   6.594 -0.2006 -0.7791  0.5938
12387TIP3    H258577   1.601   3.048   6.738  2.1084  0.5570  0.6278
12388TIP3   OH258578   5.143   6.376  15.191 -0.3083  0.2811  0.0445
12388TIP3    H158579   5.163   6.391  15.098  0.0412 -0.4267  0.0037
12388TIP3    H258580   5.048   6.388  15.197 -0.2808  0.6897 -0.3368
12389TIP3   OH258581   0.905   0.965   5.284 -0.2239 -0.1295 -0.3066
12389TIP3    H158582   0.905   0.899   5.214 -1.7917 -0.5542  0.0853
12389TIP3    H258583   0.830   0.943   5.338  0.2338  0.9770  0.8010
12390TIP3   OH258584   5.027   5.430  16.352 -0.0285  0.4638 -0.3403
12390TIP3    H158585   5.092   5.478  16.301  0.6609 -1.4417 -1.3129
12390TIP3    H258586   5.027   5.472  16.438  2.9662  0.0986 -0.1160
12391TIP3   OH258587   3.834   0.351   0.872 -0.6130 -0.0470  0.0917
12391TIP3    H158588   3.866   0.438   0.849 -3.0409  1.4785  2.0905
12391TIP3    H258589   3.770   0.330   0.804  0.2164 -0.4293 -0.5755
12392TIP3   OH258590   1.549   4.118   4.475  0.0569 -0.1291  0.1308
12392TIP3    H158591   1.470   4.127   4.529  0.0083 -0.6224  0.1459
12392TIP3    H258592   1.598   4.047   4.516  0.3637 -0.0240 -0.0561
12393TIP3   OH258593   0.535   4.923   4.451 -0.5327 -0.9127  0.2709
12393TIP3    H158594   0.492   4.967   4.524  0.7406  1.1371 -0.1747
12393TIP3    H258595   0.510   4.973   4.374  1.8345 -0.2598 -0.1038
12394TIP3   OH258596   4.839   4.329   4.696 -0.6817 -0.1544  0.4354
12394TIP3    H158597   4.905   4.324   4.627 -0.6629  2.7439  0.1473
12394TIP3    H258598   4.864   4.262   4.760  1.6430 -0.1344 -0.4200
12395TIP3   OH258599   3.221   4.228  10.279  0.3408 -0.2440  0.3100
12395TIP3    H158600   3.313   4.203  10.283  0.6029  0.3987 -1.3372
12395TIP3    H258601   3.189   4.190  10.198 -0.9720 -0.8277  1.0843
12396TIP3   OH258602   3.571   3.790   4.239 -0.2434 -0.1263  0.5314
12396TIP3    H158603   3.476   3.800   4.241 -0.0351  2.5912 -0.9914
12396TIP3    H258604   3.604   3.855   4.302  0.7456  2.1355 -2.1910
12397TIP3   OH258605   2.152   3.489  10.922 -0.0881  0.0220 -0.1415
12397TIP3    H158606   2.178   3.524  11.008  1.1488 -0.3415 -0.3639
12397TIP3    H258607   2.229   3.500  10.867 -1.0254  0.6761 -1.3573
12398TIP3   OH258608   0.474   4.933  11.569 -0.2632  0.5606 -0.0409
12398TIP3    H158609   0.512   4.928  11.656 -0.5599  2.7325  0.2529
12398TIP3    H258610   0.545   4.909  11.510  1.0945  2.8359  0.6068
12399TIP3   OH258611   3.027   6.176  10.407 -0.4484 -0.0533 -0.3580
12399TIP3    H158612   2.932   6.182  10.418 -0.3024  2.0812 -0.1274
12399TIP3    H258613   3.040   6.098  10.352 -2.2243 -1.2372  0.8433
12400TIP3   OH258614   6.347   4.798  12.423 -0.2328  0.4583 -0.0531
12400TIP3    H158615   6.278   4.861  12.442 -0.8767 -0.0829 -0.5446
12400TIP3    H258616   6.312   4.714  12.455 -0.4796 -0.1015 -1.7187
12401TIP3   OH258617   0.492   1.562  12.695  0.2324 -0.0391  0.4314
12401TIP3    H158618   0.506   1.583  12.603  1.2475 -1.2981  0.2771
12401TIP3    H258619   0.515   1.642  12.742  0.0903  0.4886 -0.3908
12402TIP3   OH258620   6.072   2.510  14.091 -0.0048  0.6843  0.6354
12402TIP3    H158621   6.126   2.587  14.110  0.6296  0.4446 -0.1377
12402TIP3    H258622   6.112   2.439  14.142  2.3547 -0.2070 -2.2615
12403TIP3   OH258623   3.983   0.535  11.838  0.3028 -0.0090 -0.1846
12403TIP3    H158624   3.942   0.621  11.851  0.1090 -0.1890  0.4026
12403TIP3    H258625   3.990   0.498  11.926 -1.2160 -1.3309 -0.5953
12404TIP3   OH258626   5.461   0.588  16.433  0.0795  0.3064 -0.4130
12404TIP3    H158627   5.390   0.589  16.368  0.9636 -1.7736 -1.4948
12404TIP3    H258628   5.535   0.549  16.386  1.3372  0.5957  1.2783
12405TIP3   OH258629   3.676   4.938  15.082 -0.6824 -0.5475 -0.3323
12405TIP3    H158630   3.760   4.909  15.047  0.5136  0.7318  1.3904
12405TIP3    H258631   3.637   4.991  15.012  0.6504  0.1374 -0.5619
12406TIP3   OH258632   0.911   1.529   5.269 -0.0556 -0.6734  0.3764
12406TIP3    H158633   0.946   1.450   5.310  0.7812 -0.4168  0.1767
12406TIP3    H258634   0.879   1.581   5.342  0.5001 -0.6697  0.6263
12407TIP3   OH258635   6.734   4.781  14.847 -0.5056 -0.7387 -0.6393
12407TIP3    H158636   6.639   4.788  14.848 -0.3427  1.8525  0.7411
12407TIP3    H258637   6.761   4.824  14.766 -0.4814 -0.9492 -0.7428
12408TIP3   OH258638   4.474   2.488   2.100 -0.4756 -0.0675  0.2537
12408TIP3    H158639   4.393   2.531   2.072  0.3648 -0.0359 -2.2993
12408TIP3    H258640   4.531   2.561   2.126 -0.2386  0.1566 -0.8396
12409TIP3   OH258641   4.201   5.399  16.834  0.4403 -0.4828 -0.2034
12409TIP3    H158642   4.219   5.366  16.746  1.9572  0.3043 -0.2281
12409TIP3    H258643   4.279   5.374  16.884 -0.1884 -0.4710  0.7721
12410TIP3   OH258644   0.026   4.397  15.874 -0.4151 -0.0176 -0.4029
12410TIP3    H158645  -0.007   4.421  15.788 -0.4608 -0.2223 -0.4418
12410TIP3    H258646  -0.015   4.313  15.894 -1.1675  0.5009  0.2419
12411TIP3   OH258647   0.491   2.321   4.447  0.4472  0.3472 -0.2508
12411TIP3    H158648   0.407   2.338   4.489  0.4793  1.5405 -0.6644
12411TIP3    H258649   0.557   2.338   4.515  0.5595  3.3068 -1.0388
12412TIP3   OH258650   5.285   0.134  12.334 -0.3288  0.3046 -0.0024
12412TIP3    H158651   5.208   0.101  12.287  0.4009 -2.3543  0.5542
12412TIP3    H258652   5.250   0.170  12.416 -1.1925  1.1831 -0.7535
12413TIP3   OH258653   3.803   5.261  14.661 -0.7051 -0.6086 -0.5340
12413TIP3    H158654   3.792   5.305  14.745 -0.3074  0.1506 -0.8648
12413TIP3    H258655   3.715   5.238  14.634 -0.8110 -1.0865  0.2099
12414TIP3   OH258656   1.256   1.748  12.707 -0.1359  0.7914  0.0873
12414TIP3    H158657   1.209   1.724  12.627 -0.1025  1.3887 -0.1088
12414TIP3    H258658   1.246   1.842  12.714  0.3184  0.8114  0.5019
12415TIP3   OH258659   3.000   5.609  15.035 -0.5542 -0.0761  0.3168
12415TIP3    H158660   2.935   5.672  15.066 -0.7984 -0.3880  0.4498
12415TIP3    H258661   3.083   5.655  15.040 -1.0219  1.1185 -2.0276
12416TIP3   OH258662   0.815   2.526   5.042 -0.3946  0.6397  0.4583
12416TIP3    H158663   0.769   2.605   5.072 -0.0869  0.9074  0.2249
12416TIP3    H258664   0.875   2.557   4.974  0.1626  0.3019  0.7875
12417TIP3   OH258665   5.320   3.214   0.976 -0.7547 -0.5984  0.0630
12417TIP3    H158666   5.269   3.292   0.957 -0.3400 -0.0488  1.1922
12417TIP3    H258667   5.318   3.164   0.894 -4.0022 -1.1155  0.3864
12418TIP3   OH258668   4.597   3.201  10.839  0.2407 -0.2342 -0.8671
12418TIP3    H158669   4.539   3.238  10.905 -0.3282  1.0789 -2.0683
12418TIP3    H258670   4.558   3.116  10.818 -1.9167  1.1127 -2.4672
12419TIP3   OH258671   1.310   0.792  14.002 -0.1242  0.2213 -0.7049
12419TIP3    H158672   1.286   0.885  13.993 -1.6901 -0.2008 -1.0932
12419TIP3    H258673   1.351   0.770  13.919 -0.1365  0.4628 -0.7753
12420TIP3   OH258674   3.142   4.931   6.041  0.1564 -0.2471 -0.2656
12420TIP3    H158675   3.176   4.949   6.129 -0.4243 -0.2728 -0.0366
12420TIP3    H258676   3.049   4.916   6.053  0.1579 -0.7485 -0.8204
12421TIP3   OH258677   5.808   2.034   6.867  0.0363  0.2966 -0.2983
12421TIP3    H158678   5.881   2.094   6.854  1.5177 -1.0196  1.6940
12421TIP3    H258679   5.833   1.954   6.821  0.3654 -0.5357  1.2905
12422TIP3   OH258680   1.586   5.955  16.137 -0.8426 -0.0152 -0.0058
12422TIP3    H158681   1.520   6.024  16.141 -0.6083  0.1631  1.3576
12422TIP3    H258682   1.597   5.936  16.044 -1.1763  1.5380 -0.3749
12423TIP3   OH258683   5.544   0.386  14.564  0.2031  0.2574 -0.0297
12423TIP3    H158684   5.556   0.469  14.519 -0.6100 -0.0877 -0.8937
12423TIP3    H258685   5.563   0.320  14.497 -2.9079 -0.2787 -0.4405
12424TIP3   OH258686   5.347   3.086  12.376 -0.3652 -0.2269  0.2961
12424TIP3    H158687   5.258   3.065  12.403 -0.5301  0.8029  0.5478
12424TIP3    H258688   5.345   3.082  12.280 -0.6127 -0.4486  0.3097
12425TIP3   OH258689   0.971   1.742  11.591  0.1195  0.3024  0.6555
12425TIP3    H158690   0.905   1.717  11.526 -0.6248  1.8219  0.8026
12425TIP3    H258691   0.964   1.674  11.659 -0.5738 -0.1285  0.1642
12426TIP3   OH258692   4.436   4.976   1.632  0.1225  0.3013  0.3429
12426TIP3    H158693   4.518   4.951   1.673  0.1908 -1.0714 -0.5837
12426TIP3    H258694   4.425   5.069   1.653  2.4661  0.7849 -0.4674
12427TIP3   OH258695   3.880   2.541   2.405 -0.6171 -0.4512 -0.6626
12427TIP3    H158696   3.862   2.633   2.426 -3.8409 -1.1250 -0.1107
12427TIP3    H258697   3.940   2.512   2.473  0.4523  1.2440 -0.8515
12428TIP3   OH258698   0.435   6.138   5.922 -0.2824 -0.3985  0.1520
12428TIP3    H158699   0.360   6.146   5.981  0.3779  2.6327  0.6654
12428TIP3    H258700   0.500   6.088   5.972 -0.3289  0.7666  1.3968
12429TIP3   OH258701   3.867   0.814  11.865  0.0990 -0.3129 -0.4526
12429TIP3    H158702   3.876   0.909  11.854 -0.9876 -0.2602 -1.0016
12429TIP3    H258703   3.773   0.798  11.859 -0.0122 -1.0812  2.6425
12430TIP3   OH258704   2.935   4.906  15.753 -0.3819  0.2117  0.0717
12430TIP3    H158705   2.915   4.969  15.821 -1.8634  1.4408 -1.4714
12430TIP3    H258706   2.857   4.903  15.698  0.5621 -1.1716 -1.2531
12431TIP3   OH258707   1.656   6.509   4.562 -0.0511 -1.2334  0.5344
12431TIP3    H158708   1.690   6.484   4.648 -0.6930 -0.9830  0.8636
12431TIP3    H258709   1.612   6.592   4.576 -2.2294 -2.3319  0.4610
12432TIP3   OH258710   4.977   3.357  10.637  0.5394  0.1199  0.0244
12432TIP3    H158711   5.064   3.397  10.646 -0.4741  2.4478 -0.4208
12432TIP3    H258712   4.992   3.265  10.658  2.6402  0.9523  2.4488
12433TIP3   OH258713   5.169   3.413  14.339 -0.0688 -0.3092 -0.4203
12433TIP3    H158714   5.230   3.340  14.326 -0.1769 -0.4123 -0.3632
12433TIP3    H258715   5.084   3.370  14.349 -0.0340 -0.2163  0.2967
12434TIP3   OH258716   4.708   1.602   3.092  0.0267  0.3150 -0.1052
12434TIP3    H158717   4.644   1.660   3.134 -1.0464 -0.3219 -0.8162
12434TIP3    H258718   4.686   1.515   3.125 -1.2052 -0.2877 -2.3485
12435TIP3   OH258719   6.320   1.371   5.325  0.0735  0.3749  0.0420
12435TIP3    H158720   6.244   1.320   5.355  1.0916 -1.9638 -1.2475
12435TIP3    H258721   6.372   1.385   5.404 -0.1649 -0.6937  0.3946
12436TIP3   OH258722   3.475   3.445   3.797  0.3549 -0.7553 -0.3632
12436TIP3    H158723   3.406   3.493   3.750 -0.6469 -2.7028 -0.9256
12436TIP3    H258724   3.555   3.465   3.749  0.2974  1.8465  0.5205
12437TIP3   OH258725   4.755   0.554  16.949 -0.0613  0.1668 -0.1644
12437TIP3    H158726   4.672   0.507  16.955 -0.4665  1.0271  1.3706
12437TIP3    H258727   4.799   0.536  17.033  0.1248  1.8352  0.1150
12438TIP3   OH258728   2.479   0.094   1.271 -0.0768 -0.2932  0.4638
12438TIP3    H158729   2.390   0.115   1.244 -0.6110  0.3512  2.6301
12438TIP3    H258730   2.469   0.025   1.336  0.8756  0.9335  1.9458
12439TIP3   OH258731   6.695   1.048  11.025  0.2148  0.1317 -0.1895
12439TIP3    H158732   6.600   1.033  11.023  0.0292  1.0515  1.0901
12439TIP3    H258733   6.712   1.101  10.947 -0.3195 -0.0064 -0.4075
12440TIP3   OH258734   5.197   1.044   3.767  0.3072 -0.4594 -0.0035
12440TIP3    H158735   5.255   1.035   3.842 -0.3387 -1.9463  0.3543
12440TIP3    H258736   5.183   1.138   3.757  3.1262 -0.0489 -0.3964
12441TIP3   OH258737   0.354   3.776  12.251  0.8836  0.5045 -0.1816
12441TIP3    H158738   0.370   3.817  12.166  1.6054 -0.5204 -0.5565
12441TIP3    H258739   0.416   3.819  12.310  1.5691  0.0326 -0.5494
12442TIP3   OH258740   2.738   0.567  11.814 -0.6814  0.1973 -0.6394
12442TIP3    H158741   2.651   0.573  11.774 -0.2448  1.2264 -1.4413
12442TIP3    H258742   2.797   0.551  11.741 -0.0117  1.0415 -0.2930
12443TIP3   OH258743   5.337   0.615   0.744 -0.4235  0.2863  0.0228
12443TIP3    H158744   5.315   0.521   0.745 -2.2075  0.6485 -1.6099
12443TIP3    H258745   5.396   0.626   0.819 -1.7356 -1.7742  1.4375
12444TIP3   OH258746   6.224   4.816   6.400 -0.1883 -0.4716  0.9313
12444TIP3    H158747   6.239   4.828   6.307 -0.6249  1.5420  1.0973
12444TIP3    H258748   6.292   4.755   6.428  3.3544  3.0332  0.3183
12445TIP3   OH258749   0.757   4.756   1.467 -0.2274  0.2746 -1.1367
12445TIP3    H158750   0.842   4.766   1.509 -0.1230 -2.0868 -0.6838
12445TIP3    H258751   0.694   4.781   1.536  0.0025 -1.8876 -0.0916
12446TIP3   OH258752   3.724   5.833  15.759  0.3148  0.4569  0.0434
12446TIP3    H158753   3.706   5.862  15.670 -1.1288 -2.2403 -0.6227
12446TIP3    H258754   3.798   5.773  15.751 -0.0341 -0.0579  0.5884
12447TIP3   OH258755   6.432   3.246  16.537 -0.2061  0.1012 -0.1595
12447TIP3    H158756   6.525   3.269  16.534  0.0421 -1.0427 -1.8167
12447TIP3    H258757   6.421   3.204  16.622  0.8835 -0.1368 -0.1196
12448TIP3   OH258758   0.907   5.078   0.925  0.6093 -0.4286 -0.2032
12448TIP3    H158759   0.813   5.064   0.937  0.6689  0.7054  1.8116
12448TIP3    H258760   0.948   5.001   0.965  0.6223  0.7950  2.2463
12449TIP3   OH258761   2.984   4.224   5.782  0.2218 -0.4565 -0.0084
12449TIP3    H158762   2.920   4.183   5.724  0.1035 -1.1099  0.5712
12449TIP3    H258763   3.025   4.292   5.729 -2.2335  1.1995  0.1703
12450TIP3   OH258764   5.646   6.280  13.594  0.5622  0.2953 -0.5482
12450TIP3    H158765   5.708   6.324  13.535  0.3535 -0.1017 -1.0649
12450TIP3    H258766   5.676   6.304  13.682 -0.3828  2.6493 -0.8277
12451TIP3   OH258767   2.709   5.218   0.781  0.0697  0.5430 -0.1142
12451TIP3    H158768   2.790   5.266   0.798  1.8513 -2.1810 -0.5716
12451TIP3    H258769   2.643   5.262   0.834  2.0062  2.3862  0.8193
12452TIP3   OH258770   0.536   3.773  14.301 -0.1117 -0.2390  0.1199
12452TIP3    H158771   0.476   3.842  14.274  2.0431  1.0056 -1.7275
12452TIP3    H258772   0.617   3.818  14.325  1.2968 -2.0658 -0.9669
12453TIP3   OH258773   2.968   1.594   1.079  0.3853 -0.0402  0.2821
12453TIP3    H158774   2.945   1.598   0.987 -1.6259 -0.5290  0.7369
12453TIP3    H258775   3.057   1.558   1.080  0.5555  0.2833 -1.4525
12454TIP3   OH258776   2.089   1.313   2.281 -0.2424  0.4134  0.2351
12454TIP3    H158777   2.107   1.252   2.353 -0.8838  0.4096  0.3999
12454TIP3    H258778   2.111   1.399   2.318 -2.0733  0.5851  0.9912
12455TIP3   OH258779   0.424   4.186  13.615  0.3189  0.4121  0.2056
12455TIP3    H158780   0.358   4.244  13.576  0.3227 -0.7195 -1.5260
12455TIP3    H258781   0.386   4.160  13.699 -1.6101 -0.4231 -0.8758
12456TIP3   OH258782   0.498   6.623   6.092 -0.3988  0.7220  0.0680
12456TIP3    H158783   0.463   6.667   6.015 -0.4657  0.2875 -0.1555
12456TIP3    H258784   0.429   6.561   6.118 -0.1409  0.4588  0.1294
12457TIP3   OH258785   4.874   5.113   0.181  0.1446  0.3958 -0.0679
12457TIP3    H158786   4.820   5.118   0.260 -0.4304 -0.5800 -0.3897
12457TIP3    H258787   4.846   5.187   0.128 -2.5013 -1.3906 -1.2318
12458TIP3   OH258788   3.441   1.427   3.356 -0.0831  0.6324  0.0419
12458TIP3    H158789   3.388   1.426   3.276  0.8244 -2.1811 -0.5490
12458TIP3    H258790   3.400   1.362   3.413 -0.6765  2.5502  1.9127
12459TIP3   OH258791   1.814   3.769  16.128 -0.0623  0.5048  0.4248
12459TIP3    H158792   1.749   3.720  16.077  1.3650 -1.4186  0.3961
12459TIP3    H258793   1.771   3.853  16.148 -2.2653 -0.4475 -0.1861
12460TIP3   OH258794   2.896   4.201  14.066  0.2119  0.0486  0.2933
12460TIP3    H158795   2.912   4.136  14.134  0.4865 -0.2979 -0.1034
12460TIP3    H258796   2.983   4.236  14.046 -0.1658  2.0597  2.0175
12461TIP3   OH258797   4.555   1.175  11.255  0.0595  0.2288 -0.6908
12461TIP3    H158798   4.646   1.186  11.285 -0.1894  0.5446 -0.0469
12461TIP3    H258799   4.547   1.081  11.242 -0.6249 -0.2973  2.9058
12462TIP3   OH258800   2.352   1.601  11.819  0.0798 -0.2096  0.2423
12462TIP3    H158801   2.448   1.606  11.820  0.1718 -1.5245 -0.4107
12462TIP3    H258802   2.328   1.629  11.731 -0.1752  0.5704  0.5538
12463TIP3   OH258803   0.392   4.189  10.977  0.5741 -0.2428 -0.2585
12463TIP3    H158804   0.443   4.238  10.914  0.3037 -1.8493 -1.7709
12463TIP3    H258805   0.456   4.133  11.021  0.5607 -0.0795 -0.0294
12464TIP3   OH258806   5.972   4.888  14.744 -0.1685 -0.0392 -0.0761
12464TIP3    H158807   5.928   4.835  14.811 -0.7076 -2.3017 -2.1382
12464TIP3    H258808   5.903   4.906  14.680  0.5342  1.4107 -0.4323
12465TIP3   OH258809   0.472   2.973  14.716 -0.0637  0.1331  0.2782
12465TIP3    H158810   0.433   3.019  14.791  0.4069 -0.1796  0.7130
12465TIP3    H258811   0.556   3.017  14.703  0.6886 -1.0259  1.1173
12466TIP3   OH258812   4.250   6.145   1.660  0.2442 -0.3978  0.3404
12466TIP3    H158813   4.333   6.156   1.707 -0.1335  1.8238  0.5092
12466TIP3    H258814   4.256   6.057   1.622  2.5923 -0.3387  0.5023
12467TIP3   OH258815   1.789   6.741   3.556  0.1145  0.1282 -0.1135
12467TIP3    H158816   1.816   6.783   3.637 -2.5980  1.9213 -0.0576
12467TIP3    H258817   1.799   6.810   3.489  1.2659 -0.9859 -1.1162
12468TIP3   OH258818   6.634   2.823   5.813 -0.3590  0.0975 -0.0864
12468TIP3    H158819   6.629   2.851   5.904  1.6581 -0.9914  0.3909
12468TIP3    H258820   6.608   2.900   5.762  1.3760  1.6413  1.3245
12469TIP3   OH258821   2.334   0.232  13.706 -0.1950  0.5236  0.1216
12469TIP3    H158822   2.302   0.245  13.795 -0.7971 -0.6615  0.0846
12469TIP3    H258823   2.374   0.316  13.683 -0.9005  1.1590  1.1476
12470TIP3   OH258824   2.757   6.441  10.474 -0.0236  0.6568 -0.4027
12470TIP3    H158825   2.730   6.528  10.505  1.0697  0.7358  0.3630
12470TIP3    H258826   2.852   6.441  10.485  0.0408 -0.4190 -0.9797
12471TIP3   OH258827   3.632   1.172   1.793  0.2637  0.7541 -0.5362
12471TIP3    H158828   3.608   1.084   1.766  0.7338 -0.5397  3.1103
12471TIP3    H258829   3.728   1.172   1.792  0.3396  0.0844  2.8220
12472TIP3   OH258830   4.864   1.916   2.042 -0.0017  0.0257  0.2526
12472TIP3    H158831   4.919   1.940   1.967  0.9044  0.1192  0.9374
12472TIP3    H258832   4.841   1.824   2.026  0.7820 -0.1716  0.2076
12473TIP3   OH258833   3.570   5.239  13.676 -0.0209 -0.2027 -0.6713
12473TIP3    H158834   3.484   5.275  13.653  0.2841  1.4997  0.7299
12473TIP3    H258835   3.586   5.270  13.765  2.2312 -0.1663 -1.0546
12474TIP3   OH258836   6.291   3.147  15.504  0.2395 -0.4778  0.0108
12474TIP3    H158837   6.265   3.124  15.593  0.8391 -0.2365  0.2486
12474TIP3    H258838   6.234   3.220  15.480  0.1890 -0.4356  0.2587
12475TIP3   OH258839   4.056   6.700  11.011 -0.8234  0.0462  0.2527
12475TIP3    H158840   4.080   6.677  11.100  0.2112  0.5076  0.1090
12475TIP3    H258841   4.119   6.769  10.987  0.0310 -1.2953 -1.4415
12476TIP3   OH258842   0.218   3.875  11.520 -0.3283  0.3098  0.5294
12476TIP3    H158843   0.126   3.871  11.494 -0.3855 -0.5011  0.8570
12476TIP3    H258844   0.237   3.788  11.554  0.6347  0.3945  0.2158
12477TIP3   OH258845   4.776   4.244  16.419 -0.5964 -0.6720  0.3539
12477TIP3    H158846   4.854   4.265  16.471  0.2775 -3.6235  0.3643
12477TIP3    H258847   4.797   4.274  16.331  0.5419 -1.3410  0.3822
12478TIP3   OH258848   3.502   6.722  14.865 -0.5498  0.3486  0.2567
12478TIP3    H158849   3.464   6.652  14.812  1.1497  0.7225 -1.4767
12478TIP3    H258850   3.472   6.803  14.824  0.6648  0.6438 -0.0448
12479TIP3   OH258851   3.397   2.125  16.025 -0.0761 -0.2525 -0.5593
12479TIP3    H158852   3.350   2.104  15.944  0.0727 -0.3784 -0.6133
12479TIP3    H258853   3.487   2.141  15.996  0.0428 -0.5989 -0.3747
12480TIP3   OH258854   6.144   1.546   4.536 -0.4224 -0.2802  0.5492
12480TIP3    H158855   6.205   1.604   4.490 -0.4459 -0.4605  0.2931
12480TIP3    H258856   6.134   1.587   4.622 -0.2515 -0.0328  0.4549
12481TIP3   OH258857   2.009   5.362  15.327  0.1043 -0.7457  0.1282
12481TIP3    H158858   2.057   5.369  15.244 -0.4393  0.4201 -0.0864
12481TIP3    H258859   2.059   5.416  15.388 -0.8035  0.2863 -0.0360
12482TIP3   OH258860   3.130   2.117  15.101  0.9102 -0.3939  0.5108
12482TIP3    H158861   3.198   2.181  15.081  0.6257 -1.0128 -2.5519
12482TIP3    H258862   3.056   2.169  15.133  0.9457  0.7478 -1.2518
12483TIP3   OH258863   1.811   3.993  12.032  0.1082 -0.2791 -0.6327
12483TIP3    H158864   1.780   3.918  12.083  0.8175 -0.0724  0.1013
12483TIP3    H258865   1.770   4.069  12.072  1.5740  0.0001  0.3636
12484TIP3   OH258866   3.644   2.970  11.746  0.0430 -0.2530 -0.1832
12484TIP3    H158867   3.594   2.942  11.823 -0.0840  2.2015  0.6741
12484TIP3    H258868   3.578   2.982  11.678  0.0353 -1.4790 -0.3941
12485TIP3   OH258869   6.362   5.048  13.817  0.5608 -0.1652 -0.3822
12485TIP3    H158870   6.343   5.017  13.905 -0.0723 -1.1737 -0.8532
12485TIP3    H258871   6.394   4.970  13.771 -1.1167 -0.1558 -1.6144
12486TIP3   OH258872   4.374   6.176  13.065  0.0277 -0.0700 -0.0978
12486TIP3    H158873   4.442   6.205  13.004  0.3036 -0.5711 -0.0327
12486TIP3    H258874   4.346   6.091  13.032  0.4985 -0.5535  0.7206
12487TIP3   OH258875   2.001   5.429  14.429  0.0383 -0.4997 -0.2895
12487TIP3    H158876   1.907   5.416  14.438 -0.3438  2.1933  0.2274
12487TIP3    H258877   2.013   5.458  14.338  0.2144  0.1270 -0.0743
12488TIP3   OH258878   2.019   6.377  14.705 -0.3712 -0.3868 -0.1520
12488TIP3    H158879   2.071   6.298  14.706 -0.6925 -0.6243 -1.1683
12488TIP3    H258880   2.068   6.440  14.758  1.3856 -0.3346 -1.7791
12489TIP3   OH258881   2.812   4.401  10.798  0.0407  0.4989  0.1712
12489TIP3    H158882   2.803   4.371  10.708  2.7853 -0.3457  0.1179
12489TIP3    H258883   2.795   4.495  10.794 -0.9411  0.2798 -1.0205
12490TIP3   OH258884   6.251   0.804   4.242  0.1760 -0.1810  0.1562
12490TIP3    H158885   6.199   0.785   4.165  0.8895  1.5761 -0.7950
12490TIP3    H258886   6.211   0.753   4.312  0.1157 -2.5824 -1.5721
12491TIP3   OH258887   3.048   0.340  14.778 -0.4309  0.2437 -0.2249
12491TIP3    H158888   3.111   0.410  14.796 -0.6617 -0.0368  1.7545
12491TIP3    H258889   2.967   0.386  14.756 -0.7023  0.6305  1.4976
12492TIP3   OH258890   0.703   3.828  15.226  0.3047  0.1865 -0.4326
12492TIP3    H158891   0.774   3.793  15.172  0.0793 -2.9762  1.2484
12492TIP3    H258892   0.640   3.757  15.232 -1.2057  1.6326  1.3534
12493TIP3   OH258893   1.399   3.623   1.591 -0.5501 -0.0633  0.3456
12493TIP3    H158894   1.421   3.530   1.599  0.4511  0.2834  1.7774
12493TIP3    H258895   1.433   3.648   1.505  1.6446 -0.3730  1.0915
12494TIP3   OH258896   1.932   1.571  16.899 -0.2843  0.1054 -0.0851
12494TIP3    H158897   1.962   1.482  16.881  0.1737  0.0726  0.8068
12494TIP3    H258898   1.849   1.559  16.946  0.8534  0.0942  1.9730
12495TIP3   OH258899   5.737   3.484   0.001 -0.2406  0.4783 -0.3788
12495TIP3    H158900   5.674   3.524  -0.059  1.0020  0.8972 -1.4296
12495TIP3    H258901   5.748   3.395  -0.032 -0.1708  0.4469 -0.2730
12496TIP3   OH258902   3.680   4.431  14.779  0.1728 -0.2452  0.0857
12496TIP3    H158903   3.619   4.357  14.775  0.2262 -0.3518  1.0760
12496TIP3    H258904   3.765   4.391  14.796  0.3102 -0.0069 -0.0402
12497TIP3   OH258905   5.485   1.914   2.856 -0.0021  0.4075  0.1109
12497TIP3    H158906   5.402   1.953   2.830  0.4932  0.8905 -0.7898
12497TIP3    H258907   5.462   1.827   2.887 -0.6674 -0.0623 -1.6350
12498TIP3   OH258908   6.559   3.024   0.930 -0.5296 -0.2737  0.0903
12498TIP3    H158909   6.605   3.038   1.012 -2.5199 -0.1523  1.2201
12498TIP3    H258910   6.587   3.096   0.874  0.4734 -0.0838  0.8246
12499TIP3   OH258911   6.784   2.634   0.411  0.1628  0.3744 -0.0284
12499TIP3    H158912   6.820   2.720   0.432 -0.2260  0.3592  0.7479
12499TIP3    H258913   6.839   2.601   0.340  0.1585  1.3672 -0.5064
12500TIP3   OH258914   5.774   4.931   3.099  0.4301  0.0874 -0.4200
12500TIP3    H158915   5.745   4.964   3.014  0.2148  1.5211  0.1870
12500TIP3    H258916   5.869   4.934   3.095  0.4490  4.4390  0.9394
12501TIP3   OH258917   4.934   1.533   5.589  0.2722  0.6067 -0.4760
12501TIP3    H158918   4.924   1.535   5.684  0.9155  1.3752 -0.4157
12501TIP3    H258919   5.002   1.597   5.571  0.6289 -0.0196 -1.4008
12502TIP3   OH258920   6.188   4.260   3.547  0.3318 -0.6171 -1.2674
12502TIP3    H158921   6.147   4.195   3.604  0.2180  0.2808 -0.3059
12502TIP3    H258922   6.278   4.230   3.536  0.8306  0.0470  0.7501
12503TIP3   OH258923   3.353   6.434  10.890  0.8915 -0.4134 -0.0366
12503TIP3    H158924   3.321   6.520  10.863  0.7701 -0.4009  0.1534
12503TIP3    H258925   3.348   6.434  10.985  0.8963 -0.6300 -0.0357
12504TIP3   OH258926   2.076   1.371  12.079 -0.0347 -0.3171  0.3011
12504TIP3    H158927   2.076   1.278  12.058 -1.7888  0.0468 -1.4319
12504TIP3    H258928   2.160   1.385  12.123  0.3813 -2.6412  0.3437
12505TIP3   OH258929   6.652   5.068   1.740 -0.2180  0.3804 -0.8222
12505TIP3    H158930   6.657   5.116   1.822  0.5340  0.3425 -0.8459
12505TIP3    H258931   6.714   5.113   1.682 -0.2523 -0.0073 -1.1618
12506TIP3   OH258932   0.384   0.471   2.587 -0.7329  0.1851 -0.2192
12506TIP3    H158933   0.332   0.392   2.577 -0.9541  0.4942 -1.6563
12506TIP3    H258934   0.334   0.525   2.649 -1.0965 -0.3677 -0.0290
12507TIP3   OH258935   2.726   2.374   3.743 -0.1094  0.1301 -0.0376
12507TIP3    H158936   2.807   2.346   3.702 -1.1216 -0.6134 -1.5819
12507TIP3    H258937   2.659   2.358   3.677 -2.0546 -2.6851  2.4712
12508TIP3   OH258938   4.599   4.166   2.479 -0.5302  1.0554 -0.2481
12508TIP3    H158939   4.596   4.258   2.454  1.6722  1.2566  0.1623
12508TIP3    H258940   4.630   4.120   2.402  1.6437  1.0950  0.5715
12509TIP3   OH258941   3.554   0.475  10.480 -0.1906  0.1538  0.3930
12509TIP3    H158942   3.630   0.471  10.538  1.9187  3.4913 -1.9440
12509TIP3    H258943   3.586   0.520  10.402 -3.5770 -2.0029 -2.3777
12510TIP3   OH258944   4.873   5.000   4.059  0.0545 -0.1458  0.5723
12510TIP3    H158945   4.953   4.948   4.057  0.4600  0.4748  0.0973
12510TIP3    H258946   4.847   5.007   3.967 -1.0127 -1.0427  0.7982
12511TIP3   OH258947   3.167   6.346   5.009  0.6289 -0.3112  0.3186
12511TIP3    H158948   3.104   6.324   4.940  2.0960  1.5038 -1.6560
12511TIP3    H258949   3.252   6.337   4.967  1.6486 -0.9678  2.4580
12512TIP3   OH258950   6.607   1.632   5.366  0.1509  0.1786  0.1467
12512TIP3    H158951   6.544   1.699   5.393  0.7859  1.2169 -0.9010
12512TIP3    H258952   6.561   1.583   5.298 -0.3152 -0.4568  0.9153
12513TIP3   OH258953   5.922   1.030   0.577  0.1661  0.5366  0.2419
12513TIP3    H158954   5.988   1.079   0.528 -0.6918 -0.2171 -1.7399
12513TIP3    H258955   5.959   0.942   0.586 -0.7294 -0.0084 -1.2613
12514TIP3   OH258956   3.608   0.521   4.579  0.2168 -0.0242  0.6141
12514TIP3    H158957   3.622   0.437   4.622  0.7531  0.9935  2.5141
12514TIP3    H258958   3.609   0.585   4.651 -2.5460  1.3594 -0.5027
12515TIP3   OH258959   3.808   5.621   1.079 -0.1559 -0.0612  0.6446
12515TIP3    H158960   3.772   5.648   1.163 -0.8657  2.0038 -0.2923
12515TIP3    H258961   3.732   5.615   1.021  0.4942 -0.0035 -0.2285
12516TIP3   OH258962   5.738   5.780   1.083  0.2398 -0.3531 -0.1268
12516TIP3    H158963   5.773   5.691   1.090 -1.0474 -0.8108  0.7079
12516TIP3    H258964   5.809   5.830   1.042  0.6620 -1.9427 -1.4310
12517TIP3   OH258965   1.973   4.624  11.786 -0.3681  0.3009 -0.3610
12517TIP3    H158966   1.952   4.640  11.879 -0.2285  0.6951 -0.3963
12517TIP3    H258967   1.935   4.538  11.768 -1.7082  0.8764 -0.3440
12518TIP3   OH258968   2.556   3.555  14.627  0.1117  0.3824 -0.0130
12518TIP3    H158969   2.489   3.602  14.578  0.4638 -0.4477 -1.2859
12518TIP3    H258970   2.508   3.484  14.671  0.1126 -0.0946 -0.7692
12519TIP3   OH258971   5.046   0.154  12.717 -0.0113 -0.1391 -0.2128
12519TIP3    H158972   4.981   0.104  12.768  0.0497 -1.9225 -1.8208
12519TIP3    H258973   4.995   0.225  12.678 -0.4573  0.0608  0.7123
12520TIP3   OH258974   4.462   3.481  14.385 -0.0747 -0.2854 -0.5572
12520TIP3    H158975   4.553   3.503  14.406  0.3283 -0.6843 -1.8375
12520TIP3    H258976   4.418   3.565  14.376  0.5497 -0.0519 -1.5414
12521TIP3   OH258977   0.627   4.583  13.516 -0.5766 -0.3312 -0.1151
12521TIP3    H158978   0.703   4.551  13.564 -0.6105 -1.2507 -0.6438
12521TIP3    H258979   0.553   4.571  13.576 -0.5737 -1.1923 -0.2724
12522TIP3   OH258980   0.071   0.697  13.190  0.1538  0.6688  0.3646
12522TIP3    H158981   0.121   0.767  13.232  0.6008  1.1449 -0.9609
12522TIP3    H258982   0.013   0.742  13.129  2.1398 -0.2393 -2.2872
12523TIP3   OH258983   3.120   2.661  13.836 -0.5198 -0.2367  0.7985
12523TIP3    H158984   3.065   2.710  13.775 -0.5317  0.5447  1.4358
12523TIP3    H258985   3.155   2.727  13.896  1.6297 -0.6285  0.0140
12524TIP3   OH258986   0.885   1.562   1.174 -0.5490  0.5755 -0.6792
12524TIP3    H158987   0.966   1.562   1.226 -1.4314  1.1214  0.7306
12524TIP3    H258988   0.884   1.477   1.130  0.4833  0.3200 -0.2121
12525TIP3   OH258989   3.462   5.450  14.853 -0.3526 -0.7691 -0.4461
12525TIP3    H158990   3.553   5.445  14.881  0.0129  0.3485 -1.4270
12525TIP3    H258991   3.413   5.406  14.923  0.8046 -0.1984  0.7322
12526TIP3   OH258992   5.229   4.218  13.061  0.0249 -0.7614 -0.0374
12526TIP3    H158993   5.190   4.154  13.002  1.5453 -3.6371  1.9458
12526TIP3    H258994   5.185   4.202  13.145  1.3606 -0.0955  0.7915
12527TIP3   OH258995   5.991   4.771  10.686  0.3740  0.3075 -0.1162
12527TIP3    H158996   5.990   4.686  10.644  0.8983  0.0645  0.3532
12527TIP3    H258997   6.019   4.832  10.617 -0.2053  0.1388 -0.5050
12528TIP3   OH258998   5.624   6.046  14.302 -0.8172 -0.6637  0.1413
12528TIP3    H158999   5.661   6.132  14.324 -0.8555 -0.8184  0.8447
12528TIP3    H259000   5.698   5.986  14.306 -0.8017 -0.6731 -0.2923
12529TIP3   OH259001   4.160   6.363  13.291 -0.0759  0.6440  0.7050
12529TIP3    H159002   4.081   6.396  13.335  0.3050  1.7476  0.5700
12529TIP3    H259003   4.131   6.283  13.248 -1.3057  1.4067  0.0800
12530TIP3   OH259004   5.317   1.307   2.158  0.7107  0.1528 -0.0386
12530TIP3    H159005   5.367   1.271   2.084 -0.3918  2.1727 -1.8193
12530TIP3    H259006   5.263   1.234   2.188  4.1819 -1.8900  1.5111
12531TIP3   OH259007   4.461   0.322   1.934  0.8270 -0.5342  0.0297
12531TIP3    H159008   4.504   0.372   2.004 -1.5358  1.2132  0.2594
12531TIP3    H259009   4.502   0.354   1.854 -0.0483  1.1619  0.2400
12532TIP3   OH259010   2.989   6.393  13.383  0.3452  0.0597  0.2295
12532TIP3    H159011   2.899   6.369  13.360  0.1816  0.7188  0.1772
12532TIP3    H259012   3.020   6.319  13.436  0.7218 -1.4737 -2.0445
12533TIP3   OH259013   5.882   2.413   1.793 -0.0862  0.1018 -0.0264
12533TIP3    H159014   5.790   2.386   1.794 -0.0278 -0.0448  1.5215
12533TIP3    H259015   5.928   2.335   1.763 -0.2899 -0.4072  0.9539
12534TIP3   OH259016   5.902   3.693   2.939  0.2135  0.2169  0.4617
12534TIP3    H159017   5.930   3.646   3.017 -1.2289 -0.2884  0.6864
12534TIP3    H259018   5.818   3.732   2.963  0.0232  0.5170 -0.6539
12535TIP3   OH259019   2.975   3.197  10.712 -0.0020 -0.4296 -0.4808
12535TIP3    H159020   3.010   3.152  10.789 -0.2703  0.6514  0.2827
12535TIP3    H259021   2.883   3.170  10.708 -0.5922  1.3346  0.9425
12536TIP3   OH259022   1.336   2.538  11.615 -0.2192 -0.0710 -0.1236
12536TIP3    H159023   1.288   2.462  11.649 -3.1155  0.5817 -2.4890
12536TIP3    H259024   1.288   2.614  11.650  1.3649  0.6670  0.4984
12537TIP3   OH259025   5.877   6.044  12.280 -0.4184 -0.1266  0.2344
12537TIP3    H159026   5.924   6.099  12.342  0.1838 -0.2321 -0.1122
12537TIP3    H259027   5.946   5.990  12.241 -0.8108 -0.1483 -0.4272
12538TIP3   OH259028   3.281   3.681   4.973  0.3531  0.3597 -0.3931
12538TIP3    H159029   3.285   3.608   4.912 -0.5965  0.0022 -0.0286
12538TIP3    H259030   3.316   3.755   4.923  0.5627 -0.1592 -1.0234
12539TIP3   OH259031   6.095   6.329  10.751  0.2296  0.2841  0.7304
12539TIP3    H159032   6.189   6.342  10.765 -0.0472  1.4301  1.5341
12539TIP3    H259033   6.063   6.415  10.727 -0.8240  0.1245  1.5648
12540TIP3   OH259034   3.063   0.239   3.949  0.0018  0.0951 -0.2096
12540TIP3    H159035   3.105   0.157   3.975 -1.0070 -0.2313  0.3953
12540TIP3    H259036   2.992   0.212   3.890  0.1159  0.5848 -0.5730
12541TIP3   OH259037   2.693   1.326  15.607 -0.0451  0.1591  0.2285
12541TIP3    H159038   2.629   1.376  15.555 -0.0567  1.5081  1.4847
12541TIP3    H259039   2.677   1.355  15.697 -0.2779 -2.3988  1.0455
12542TIP3   OH259040   3.216   3.196   2.328 -0.0257 -0.2965 -0.4441
12542TIP3    H159041   3.213   3.218   2.235 -1.5976  0.5055 -0.2233
12542TIP3    H259042   3.262   3.269   2.368 -0.3879 -0.0733 -0.4356
12543TIP3   OH259043   0.688   3.687   6.663 -0.0359 -0.5063 -0.4704
12543TIP3    H159044   0.647   3.741   6.596  0.7018 -1.1353 -1.4454
12543TIP3    H259045   0.768   3.654   6.622  1.1502  0.2080  1.1907
12544TIP3   OH259046   6.552   6.416  15.950  0.1626  0.0596 -0.2031
12544TIP3    H159047   6.564   6.323  15.966 -0.5631 -0.0386 -0.1796
12544TIP3    H259048   6.533   6.452  16.037  0.8106  0.2909 -0.1546
12545TIP3   OH259049   0.086   0.394   3.807  0.3233 -0.4301  0.5581
12545TIP3    H159050   0.080   0.301   3.828  0.6000 -0.2061  1.6177
12545TIP3    H259051   0.151   0.399   3.737  1.2450 -0.8917  1.3820
12546TIP3   OH259052   4.580   1.295  12.077  0.4216 -1.1803 -0.0323
12546TIP3    H159053   4.607   1.272  12.166 -0.4775  0.7460  0.7713
12546TIP3    H259054   4.607   1.386  12.066 -0.2575 -1.1238 -1.4177
12547TIP3   OH259055   1.074   4.864  15.871 -0.1479 -0.1895 -0.4524
12547TIP3    H159056   1.070   4.884  15.964 -1.6158  1.8880 -0.9207
12547TIP3    H259057   1.074   4.768  15.866  1.0196 -0.3143  1.6884
12548TIP3   OH259058   3.010   4.166  10.681  0.1579  0.1327  0.2008
12548TIP3    H159059   2.923   4.186  10.646  0.3604  0.1521 -0.2958
12548TIP3    H259060   2.993   4.127  10.767 -0.2681  1.6533  0.8184
12549TIP3   OH259061   2.191   4.912   4.251  0.5513 -0.0174  0.6686
12549TIP3    H159062   2.114   4.882   4.202  0.5510  1.3383 -0.1839
12549TIP3    H259063   2.175   4.882   4.341 -0.5352 -0.5350  0.3156
12550TIP3   OH259064   2.328   5.862  15.662 -0.4930 -0.3545  0.4380
12550TIP3    H159065   2.235   5.885  15.664 -0.8354 -1.5960 -0.7254
12550TIP3    H259066   2.331   5.771  15.692  0.2697 -0.5306 -0.1622
12551TIP3   OH259067   5.294   6.359  14.961 -0.3796 -0.2748  0.1175
12551TIP3    H159068   5.316   6.446  14.995 -0.9247  0.1245 -0.5310
12551TIP3    H259069   5.355   6.300  15.005 -0.5746  0.3201  1.2172
12552TIP3   OH259070   4.543   0.229   1.049 -0.0844 -0.8976 -0.9331
12552TIP3    H159071   4.604   0.298   1.022  1.0401 -1.2831  0.5393
12552TIP3    H259072   4.518   0.253   1.139 -2.0468 -0.7914 -1.4950
12553TIP3   OH259073   4.069   5.553  15.529 -0.6713 -0.2271 -0.5433
12553TIP3    H159074   4.076   5.469  15.573 -0.7466 -0.3085 -0.6859
12553TIP3    H259075   4.157   5.589  15.530 -0.9565  0.4516  1.0275
12554TIP3   OH259076   6.512   1.104  12.354  0.0262 -0.1279  0.2073
12554TIP3    H159077   6.563   1.105  12.435  0.4919 -2.0628 -0.0346
12554TIP3    H259078   6.443   1.039  12.369  0.9477 -1.5305 -1.4025
12555TIP3   OH259079   4.745   2.673  11.975 -0.2306  0.0831  0.2141
12555TIP3    H159080   4.727   2.609  12.044  1.8760 -1.9668 -1.0347
12555TIP3    H259081   4.820   2.636  11.927 -0.0636  2.6591 -1.6310
12556TIP3   OH259082   0.345   3.565  15.007 -0.0991 -0.2217  0.2152
12556TIP3    H159083   0.286   3.553  14.932 -1.4695  2.2190  0.8488
12556TIP3    H259084   0.296   3.529  15.081  0.0676 -0.0181  0.4222
12557TIP3   OH259085   2.756   4.358  12.560 -0.8845 -0.2720 -0.5868
12557TIP3    H159086   2.837   4.406  12.579 -0.5145 -0.6988 -1.0731
12557TIP3    H259087   2.687   4.423  12.573 -0.4221  0.2692 -0.7863
12558TIP3   OH259088   1.882   5.129   2.021 -0.2174  0.4506 -0.3393
12558TIP3    H159089   1.832   5.168   1.949 -0.9589  0.2806  0.0797
12558TIP3    H259090   1.859   5.037   2.019  1.4770  0.0357 -1.2785
12559TIP3   OH259091   5.624   6.436  14.741 -0.2718  0.1432  0.8312
12559TIP3    H159092   5.715   6.406  14.741 -0.3600 -0.1172  0.0755
12559TIP3    H259093   5.602   6.442  14.834 -0.3642 -2.5053  1.0177
12560TIP3   OH259094   4.232   3.616   5.266  0.6212 -0.2664  0.6479
12560TIP3    H159095   4.273   3.677   5.328 -0.1296 -1.1592  2.0491
12560TIP3    H259096   4.285   3.537   5.273  0.3426 -0.4742  0.3653
12561TIP3   OH259097   3.154   1.298   4.694  0.5852  0.2369  0.1542
12561TIP3    H159098   3.157   1.203   4.683  2.4644  0.3930 -0.6927
12561TIP3    H259099   3.155   1.311   4.789  1.5672 -0.5574  0.2548
12562TIP3   OH259100   0.706   2.477   2.915 -0.5055  0.4084  0.2429
12562TIP3    H159101   0.648   2.545   2.950 -0.8107  1.3506 -2.0223
12562TIP3    H259102   0.663   2.448   2.835  1.3956  0.0464 -0.6641
12563TIP3   OH259103   2.127   4.441  14.586 -0.2891  0.2306 -0.1329
12563TIP3    H159104   2.165   4.526  14.567 -1.2159  0.2597 -1.9670
12563TIP3    H259105   2.033   4.458  14.596 -0.4617 -0.5381 -0.3847
12564TIP3   OH259106   3.061   6.553  14.402  0.3553  0.1982  0.3196
12564TIP3    H159107   3.140   6.503  14.379 -1.4803 -3.1309  0.9825
12564TIP3    H259108   3.048   6.537  14.495 -0.3581  1.8928  0.5426
12565TIP3   OH259109   6.186   0.631  13.738 -0.8514 -0.2868  0.8305
12565TIP3    H159110   6.115   0.641  13.674  1.4379 -1.7025 -2.0641
12565TIP3    H259111   6.215   0.721  13.756 -2.2035  0.1912  0.6900
12566TIP3   OH259112   4.942   1.310  16.593  0.0501  0.9605  0.3888
12566TIP3    H159113   4.850   1.331  16.609 -0.0736  1.2406 -0.6063
12566TIP3    H259114   4.968   1.254  16.666 -1.0761  0.3925  0.3615
12567TIP3   OH259115   3.454   4.181  16.129  0.0279  0.9803  0.5710
12567TIP3    H159116   3.405   4.259  16.102  1.0874  0.6405 -2.4861
12567TIP3    H259117   3.527   4.216  16.181  0.7168  2.0960 -1.1048
12568TIP3   OH259118   5.344   5.952   4.823  0.3617 -0.1639  0.1799
12568TIP3    H159119   5.324   5.901   4.902 -0.5186 -0.3266 -0.1340
12568TIP3    H259120   5.376   5.887   4.760 -1.1608 -0.4284 -0.3615
12569TIP3   OH259121   1.984   5.928   0.979 -0.4399 -0.3516  0.9428
12569TIP3    H159122   2.061   5.879   0.950 -1.5492 -0.3533 -2.2749
12569TIP3    H259123   2.018   5.994   1.039  2.1528 -0.1281 -0.6964
12570TIP3   OH259124   4.140   1.404   3.410 -0.0689 -0.1630  0.2007
12570TIP3    H159125   4.142   1.320   3.456 -1.2302 -0.1155  0.3498
12570TIP3    H259126   4.214   1.401   3.350 -0.9006 -1.8312 -0.7534
12571TIP3   OH259127   3.907   6.764  16.911  0.0381 -0.2027 -0.6677
12571TIP3    H159128   3.904   6.735  16.820 -1.0700  1.0534 -1.0446
12571TIP3    H259129   3.815   6.775  16.935  0.2501 -1.7844  1.0239
12572TIP3   OH259130   5.721   5.441  16.453 -0.6721 -0.2935 -0.4157
12572TIP3    H159131   5.641   5.417  16.406 -0.7267 -1.0165  0.0425
12572TIP3    H259132   5.721   5.537  16.451 -1.1796 -0.3005 -1.0369
12573TIP3   OH259133   3.445   5.974  12.844 -0.2255  0.3652  0.6523
12573TIP3    H159134   3.377   6.030  12.806  0.3950  0.8703  0.2705
12573TIP3    H259135   3.439   5.991  12.938 -0.0308  1.0960  0.5379
12574TIP3   OH259136   4.466   0.496   3.278  0.2893 -0.4499 -0.2310
12574TIP3    H159137   4.542   0.463   3.327 -1.6207 -2.1384  1.7364
12574TIP3    H259138   4.488   0.480   3.187  1.1166 -3.6495  0.4674
12575TIP3   OH259139   0.649   3.295   6.740 -0.3582 -0.6316  0.6620
12575TIP3    H159140   0.607   3.365   6.789 -1.3660 -0.1596 -0.8647
12575TIP3    H259141   0.581   3.261   6.681  0.6390 -1.6347  0.0507
12576TIP3   OH259142   4.085   6.330   3.451 -0.1024 -0.2761 -0.2790
12576TIP3    H159143   4.056   6.411   3.410 -0.9671 -0.9167 -0.9585
12576TIP3    H259144   4.076   6.264   3.382 -0.7577 -1.2068  0.6900
12577TIP3   OH259145   6.289   6.576  16.742 -0.0173  0.4891 -0.3111
12577TIP3    H159146   6.250   6.615  16.663  2.8856  0.8789 -1.6280
12577TIP3    H259147   6.355   6.515  16.708  0.3959 -0.2976  1.8243
12578TIP3   OH259148   3.555   0.763   5.200  0.0419  0.1429 -0.6013
12578TIP3    H159149   3.473   0.805   5.228  0.5725 -0.1823  1.5377
12578TIP3    H259150   3.581   0.710   5.275  1.0176 -1.5640 -2.1220
12579TIP3   OH259151   3.865   3.432  15.723  0.3343  0.1175 -0.3310
12579TIP3    H159152   3.818   3.492  15.781 -0.2339 -2.3091  1.7981
12579TIP3    H259153   3.806   3.358  15.713  1.4588 -0.5639 -2.1010
12580TIP3   OH259154   4.481   2.403   4.259  0.3211  0.3313  0.0573
12580TIP3    H159155   4.506   2.346   4.187  1.0649  1.3269 -0.4982
12580TIP3    H259156   4.449   2.483   4.216 -2.7970 -0.4760  0.7665
12581TIP3   OH259157   0.790   5.869   2.188 -0.6376 -0.7839 -0.2403
12581TIP3    H159158   0.862   5.813   2.159  0.4359  0.5708 -0.2008
12581TIP3    H259159   0.787   5.940   2.124 -0.2650  0.5450  1.1950
12582TIP3   OH259160   4.721   3.881  11.762 -0.4255 -0.2669 -0.4993
12582TIP3    H159161   4.681   3.806  11.805 -0.3159 -1.3579 -2.2713
12582TIP3    H259162   4.695   3.956  11.816 -1.4252 -1.4393  0.6753
12583TIP3   OH259163   5.115   6.396  17.097 -0.9891  0.1677 -0.1831
12583TIP3    H159164   5.126   6.302  17.114  1.3552  0.0780 -1.8505
12583TIP3    H259165   5.147   6.439  17.176 -0.3246 -0.4247 -0.1215
12584TIP3   OH259166   0.766   0.845  13.925  0.1569 -0.1340 -0.3855
12584TIP3    H159167   0.807   0.920  13.881 -0.6067  0.4919 -0.0513
12584TIP3    H259168   0.726   0.795  13.854 -3.1679  2.1703 -0.2441
12585TIP3   OH259169   2.232   4.205   6.242  0.3451 -0.7075  0.7307
12585TIP3    H159170   2.146   4.218   6.202  0.4028 -0.0530  0.8061
12585TIP3    H259171   2.291   4.193   6.168 -0.1766 -3.5828  0.7396
12586TIP3   OH259172   3.732   5.594  14.582  0.4415  0.1895 -0.3220
12586TIP3    H159173   3.654   5.638  14.615  0.1410  0.2917 -1.1462
12586TIP3    H259174   3.781   5.569  14.660  0.4028  1.5959  0.1731
12587TIP3   OH259175   0.489   6.581  16.742  0.4272 -0.2580  0.1445
12587TIP3    H159176   0.500   6.525  16.665  1.0508  0.3584 -0.2147
12587TIP3    H259177   0.431   6.531  16.800 -0.1749 -0.6593 -0.7855
12588TIP3   OH259178   5.461   4.248  14.768 -0.1153  0.3050  0.3937
12588TIP3    H159179   5.509   4.304  14.828  3.2614 -0.4782 -1.4289
12588TIP3    H259180   5.375   4.289  14.761  1.2164  3.4823  1.5120
12589TIP3   OH259181   0.301   5.721   4.686 -0.3048  0.2774  0.1949
12589TIP3    H159182   0.261   5.784   4.746 -1.0658 -0.3306  0.3386
12589TIP3    H259183   0.310   5.641   4.739 -1.6416 -0.4771 -0.6949
12590TIP3   OH259184   2.391   2.526   0.584 -0.0439  0.7658  0.6868
12590TIP3    H159185   2.312   2.569   0.551  0.3113  0.6047 -0.4040
12590TIP3    H259186   2.369   2.433   0.585  0.0569  0.7400  0.5767
12591TIP3   OH259187   4.601   1.213   2.744 -0.7919  0.1252 -0.5087
12591TIP3    H159188   4.606   1.183   2.653  1.2672  0.7748 -0.6558
12591TIP3    H259189   4.647   1.145   2.794  0.4346  1.0770 -0.3254
12592TIP3   OH259190   0.917   2.456   0.464  0.4665  0.0388 -0.1185
12592TIP3    H159191   0.971   2.397   0.516 -0.3429  0.0415  0.7326
12592TIP3    H259192   0.856   2.494   0.526  0.9903  1.7910 -0.6578
12593TIP3   OH259193   6.749   4.983   3.604  0.3984  0.2227 -0.7588
12593TIP3    H159194   6.827   4.965   3.656 -0.5250 -1.5384  0.0622
12593TIP3    H259195   6.690   5.029   3.665  0.6216  1.2036 -1.2652
12594TIP3   OH259196   1.339   4.646   1.959 -0.1239 -0.4028 -0.4269
12594TIP3    H159197   1.285   4.573   1.989 -0.5079 -0.0502 -0.2564
12594TIP3    H259198   1.425   4.607   1.940 -0.2181 -0.8270  0.0274
12595TIP3   OH259199   6.436   3.047  16.746  0.4827  0.4026 -0.2773
12595TIP3    H159200   6.511   3.018  16.694  0.0599 -1.0642 -0.1029
12595TIP3    H259201   6.393   2.966  16.774 -0.4014  1.1999  0.7504
12596TIP3   OH259202   6.648   2.457  14.886  0.4309 -0.6644 -0.7181
12596TIP3    H159203   6.607   2.373  14.903  2.2824 -1.1383  1.7093
12596TIP3    H259204   6.623   2.511  14.961  0.6012  0.4180 -1.4300
12597TIP3   OH259205   0.133   0.398  12.672 -0.3220 -0.0566 -0.0825
12597TIP3    H159206   0.201   0.333  12.654 -1.3878 -1.5413  1.0772
12597TIP3    H259207   0.125   0.398  12.768 -1.3433  0.7263 -0.1665
12598TIP3   OH259208   2.771   5.013   5.201  0.2979 -0.6096  0.1780
12598TIP3    H159209   2.732   4.960   5.271  2.7351  0.4420  2.4686
12598TIP3    H259210   2.807   4.949   5.140  0.8779 -1.6448  1.5510
12599TIP3   OH259211   5.786   4.474   4.037  0.1211  0.0665 -0.0150
12599TIP3    H159212   5.698   4.444   4.060  0.7998 -1.2222  0.9171
12599TIP3    H259213   5.794   4.454   3.944  0.5229 -2.5748  0.5650
12600TIP3   OH259214   2.960   2.878  16.926  0.5805  0.2533 -0.2090
12600TIP3    H159215   3.024   2.809  16.905  0.8798  0.3459  0.3901
12600TIP3    H259216   2.971   2.942  16.855 -0.8974 -1.1118 -1.7066
12601TIP3   OH259217   0.868   1.511  16.737  0.0372 -0.0399 -0.1849
12601TIP3    H159218   0.901   1.531  16.649 -0.5178 -0.3957 -0.4750
12601TIP3    H259219   0.886   1.418  16.749 -0.3696 -0.1109 -0.1265
12602TIP3   OH259220   3.253   4.984   1.420 -0.3485  0.9099 -0.1296
12602TIP3    H159221   3.271   5.054   1.358 -0.4214  0.1734 -1.0027
12602TIP3    H259222   3.182   5.017   1.474 -0.8582  1.2373 -0.9873
12603TIP3   OH259223   5.437   6.511  12.090 -0.2276  0.1526 -0.2873
12603TIP3    H159224   5.361   6.485  12.141 -0.4827 -0.3797 -0.9379
12603TIP3    H259225   5.509   6.514  12.153 -0.7441  0.4548  0.2834
12604TIP3   OH259226   2.179   0.804  16.787  0.1939 -0.5096  0.1217
12604TIP3    H159227   2.250   0.861  16.816  1.6328 -2.3075  0.2613
12604TIP3    H259228   2.192   0.795  16.693 -0.7577  0.3503 -0.0986
12605TIP3   OH259229   1.804   3.557   4.248  0.5416 -0.4672  0.0348
12605TIP3    H159230   1.748   3.624   4.286  1.0002  0.0628 -0.2248
12605TIP3    H259231   1.747   3.480   4.239 -0.6330  0.6006 -1.9002
12606TIP3   OH259232   2.100   3.167   1.575 -0.1729  0.2360 -0.1183
12606TIP3    H159233   2.086   3.103   1.644 -2.7137  1.9494  1.0277
12606TIP3    H259234   2.143   3.118   1.505  0.7161 -1.9670  1.9250
12607TIP3   OH259235   5.204   6.429   4.545  1.2189 -0.3836  0.4370
12607TIP3    H159236   5.259   6.444   4.468  1.8004 -0.8313  0.7616
12607TIP3    H259237   5.224   6.504   4.602  0.2209  0.3537 -0.1614
12608TIP3   OH259238   6.185   5.829   0.827  0.3205  0.8933  0.1854
12608TIP3    H159239   6.275   5.860   0.838  1.1690 -0.3125 -2.8799
12608TIP3    H259240   6.191   5.763   0.759 -2.8440  0.4435  0.2904
12609TIP3   OH259241   4.549   5.478  12.998  0.4948 -0.4952  0.6034
12609TIP3    H159242   4.613   5.464  13.067 -0.0377  0.8292  1.3929
12609TIP3    H259243   4.471   5.430  13.028 -0.0923  0.9711  1.4715
12610TIP3   OH259244   2.404   3.468  14.283 -0.2955  0.2346 -0.0206
12610TIP3    H159245   2.340   3.441  14.217 -0.0709  0.0866 -0.1746
12610TIP3    H259246   2.380   3.558  14.304 -0.1479  0.3944 -0.5506
12611TIP3   OH259247   1.709   4.062  14.353  0.5143  0.2912 -0.3375
12611TIP3    H159248   1.792   4.071  14.307  1.0986 -4.1407 -0.4408
12611TIP3    H259249   1.643   4.066  14.285  0.8266  1.2993 -0.5837
12612TIP3   OH259250   3.559   3.726  11.244 -1.0872  0.2712 -0.6063
12612TIP3    H159251   3.481   3.706  11.193 -2.2536  3.7526 -0.2997
12612TIP3    H259252   3.607   3.790  11.192  0.2061  0.1939  0.4322
12613TIP3   OH259253   0.686   3.030  13.491  0.0428 -0.0900  0.0162
12613TIP3    H159254   0.609   2.975  13.489  1.0632 -1.5487  0.0090
12613TIP3    H259255   0.730   3.008  13.573  1.0030 -0.0673 -0.4787
12614TIP3   OH259256   6.532   2.051   2.071  0.2732  0.0944 -0.4345
12614TIP3    H159257   6.601   1.994   2.105  1.7967  1.9675 -0.2804
12614TIP3    H259258   6.451   2.016   2.109  1.6173  0.5992  3.1068
12615TIP3   OH259259   6.270   1.913  11.554  0.3369  0.2572  0.2228
12615TIP3    H159260   6.324   1.834  11.555  0.6831  0.4949  1.3967
12615TIP3    H259261   6.333   1.985  11.545  0.0216  0.4106 -0.8743
12616TIP3   OH259262   0.944   2.723  12.410 -0.0249  0.1934  0.0554
12616TIP3    H159263   0.943   2.673  12.492 -0.8199  0.8265  0.4443
12616TIP3    H259264   0.876   2.790  12.423 -0.5134 -0.0308 -1.3190
12617TIP3   OH259265   5.833   1.602  14.960  0.3884  0.7998  0.2007
12617TIP3    H159266   5.832   1.698  14.963 -1.6880  0.7978  0.2080
12617TIP3    H259267   5.828   1.581  14.866  0.4093  0.6921  0.2234
12618TIP3   OH259268   5.550   0.223  14.325 -0.5808  0.1314  0.1644
12618TIP3    H159269   5.570   0.223  14.231 -0.5130 -0.1151  0.1784
12618TIP3    H259270   5.454   0.225  14.329 -0.6304 -1.2948  0.0743
12619TIP3   OH259271   2.095   5.315   0.062  0.3557  0.2811  0.3549
12619TIP3    H159272   2.108   5.303  -0.032  1.0841 -0.7034  0.5601
12619TIP3    H259273   2.149   5.246   0.102  0.1551  0.7692  1.4914
12620TIP3   OH259274   6.645   2.725  15.066 -0.6211 -0.1577 -0.4238
12620TIP3    H159275   6.656   2.794  15.131  0.9955 -0.4125 -0.4164
12620TIP3    H259276   6.659   2.768  14.982 -1.3215 -0.1227 -0.5269
12621TIP3   OH259277   5.400   4.097   1.349  0.8708 -0.6119  0.2062
12621TIP3    H159278   5.367   4.089   1.259  1.7196 -0.3271 -0.1338
12621TIP3    H259279   5.492   4.122   1.338  0.7443  0.2566  1.1743
12622TIP3   OH259280   5.897   3.246   0.940 -0.6090  0.4956  0.2067
12622TIP3    H159281   5.840   3.278   1.009  1.3471  1.9132  1.2042
12622TIP3    H259282   5.860   3.283   0.859 -1.7096  0.5109  0.7152
12623TIP3   OH259283   2.762   0.434   5.261  0.1274 -0.2149  0.0064
12623TIP3    H159284   2.752   0.524   5.292  0.8743 -0.3602  0.7005
12623TIP3    H259285   2.702   0.427   5.187  0.1075  0.8757 -0.0937
12624TIP3   OH259286   3.978   6.134   4.178  0.3613  0.3623  0.0024
12624TIP3    H159287   3.922   6.205   4.145  0.5381 -0.1425 -1.4309
12624TIP3    H259288   3.985   6.073   4.104 -0.8326 -1.8030  1.6033
12625TIP3   OH259289   4.308   4.578   1.213  0.3556  0.0482 -0.0675
12625TIP3    H159290   4.359   4.603   1.290  2.0345  1.6041 -1.6756
12625TIP3    H259291   4.238   4.643   1.208  0.7956  0.4969 -0.3946
12626TIP3   OH259292   2.654   2.821   5.559  0.0719 -0.3572  0.2279
12626TIP3    H159293   2.581   2.863   5.605  0.5165 -0.7573  1.3224
12626TIP3    H259294   2.719   2.805   5.627  1.9895  1.7042 -1.0311
12627TIP3   OH259295   6.195   5.294  11.507 -0.2277 -0.3053  0.4161
12627TIP3    H159296   6.174   5.205  11.537 -1.0611 -0.2280  0.0810
12627TIP3    H259297   6.121   5.318  11.451 -0.5168  1.0063  1.3423
12628TIP3   OH259298   1.343   6.588   1.943  0.6211 -0.0896 -0.8845
12628TIP3    H159299   1.363   6.635   1.862 -0.0771  2.0574  0.1400
12628TIP3    H259300   1.251   6.564   1.934  0.1652  1.3368 -0.1850
12629TIP3   OH259301   5.687   3.733  15.300  0.0113  0.2250 -0.0394
12629TIP3    H159302   5.752   3.763  15.237 -1.1937  1.6530 -0.6286
12629TIP3    H259303   5.648   3.655  15.260 -0.2634  0.7274 -0.7528
12630TIP3   OH259304   1.774   2.855  11.564 -0.2923 -0.2096  0.6946
12630TIP3    H159305   1.679   2.861  11.559 -0.2899 -0.1741  0.6860
12630TIP3    H259306   1.792   2.821  11.651 -0.2650  1.1334  1.2308
12631TIP3   OH259307   0.701   2.148   2.559  0.4602 -0.0619 -0.7404
12631TIP3    H159308   0.672   2.107   2.477  2.5080 -0.5406 -1.2604
12631TIP3    H259309   0.793   2.124   2.566  0.3109  0.0002  1.7163
12632TIP3   OH259310   1.359   2.215   6.717 -0.7785 -0.2077 -0.2527
12632TIP3    H159311   1.428   2.251   6.772 -0.8094  0.5648 -0.7189
12632TIP3    H259312   1.286   2.276   6.727 -0.7348  0.0127 -1.2663
12633TIP3   OH259313   0.674   0.702  15.049  0.0444 -0.5751 -0.6833
12633TIP3    H159314   0.608   0.771  15.058 -1.5484 -1.8158 -2.1873
12633TIP3    H259315   0.674   0.657  15.133  1.7834  1.8198  0.6271
12634TIP3   OH259316   1.176   6.577   0.129 -0.2901  0.4042  0.4310
12634TIP3    H159317   1.147   6.486   0.136  1.4639 -0.1010  1.4698
12634TIP3    H259318   1.096   6.628   0.131 -1.2361 -1.0673  1.1167
12635TIP3   OH259319   4.247   3.564  16.392 -0.2849  0.0903  0.1355
12635TIP3    H159320   4.205   3.639  16.435 -0.0346 -0.0429  0.6152
12635TIP3    H259321   4.248   3.587  16.299 -2.0953 -0.2315  0.0162
12636TIP3   OH259322   0.270   6.364  15.397 -0.0014 -0.4520 -0.2771
12636TIP3    H159323   0.197   6.413  15.435 -1.7603 -1.2698 -2.5169
12636TIP3    H259324   0.261   6.377  15.302  2.6053 -0.7936 -0.6039
12637TIP3   OH259325   1.341   4.947   5.266  0.0420  0.2970 -0.4811
12637TIP3    H159326   1.353   4.890   5.342  0.0381  1.2817  0.2728
12637TIP3    H259327   1.253   4.925   5.234  0.8280 -1.5569 -1.4483
12638TIP3   OH259328   0.752   0.084   3.069 -0.2792  0.5026  0.6818
12638TIP3    H159329   0.817   0.155   3.066  0.3887 -0.0931  0.7867
12638TIP3    H259330   0.671   0.127   3.097 -0.0524  1.3435  0.0694
12639TIP3   OH259331   0.717   4.277   3.829 -0.4084 -0.4086 -0.0546
12639TIP3    H159332   0.772   4.201   3.810 -2.4409 -2.2929  1.4094
12639TIP3    H259333   0.662   4.287   3.751  0.9878  0.6117 -0.9323
12640TIP3   OH259334   3.478   4.791  16.072  0.3844 -0.1045 -0.5035
12640TIP3    H159335   3.441   4.879  16.061  1.5108  0.7284  1.9714
12640TIP3    H259336   3.422   4.734  16.018 -0.5360  2.0621 -1.9060
12641TIP3   OH259337   2.318   4.601   5.434 -0.0841 -0.3131 -0.2287
12641TIP3    H159338   2.254   4.665   5.402 -0.6115 -0.2611  0.9271
12641TIP3    H259339   2.335   4.545   5.358  0.2566  1.0922 -1.2033
12642TIP3   OH259340   4.778   4.561  11.498 -0.1571  0.2616  0.2179
12642TIP3    H159341   4.684   4.552  11.512 -0.2137 -0.7884 -0.7673
12642TIP3    H259342   4.796   4.508  11.420  1.4561 -0.7034  1.2066
12643TIP3   OH259343   2.922   4.195   3.530 -0.2282  0.3183  0.0033
12643TIP3    H159344   2.920   4.214   3.436 -0.3496 -1.2764 -0.3376
12643TIP3    H259345   2.862   4.258   3.569 -0.2669  0.9118 -1.0001
12644TIP3   OH259346   3.856   5.672  16.709 -0.4408 -0.1485 -0.2177
12644TIP3    H159347   3.813   5.592  16.679  1.6047 -1.4673  0.2909
12644TIP3    H259348   3.844   5.734  16.637  0.4017 -1.8097 -1.8476
12645TIP3   OH259349   6.767   5.701   3.836 -0.5640  0.0333  0.3397
12645TIP3    H159350   6.739   5.610   3.845  0.6404 -0.4421 -0.7351
12645TIP3    H259351   6.818   5.718   3.915 -1.4945  0.0531  0.9515
12646TIP3   OH259352   0.197   5.692  16.036 -0.1011 -0.1219 -0.5101
12646TIP3    H159353   0.246   5.615  16.067 -1.8517 -1.4323 -0.8870
12646TIP3    H259354   0.249   5.767  16.065  1.7198 -1.4412 -0.2358
12647TIP3   OH259355   1.177   3.226   5.041 -0.8272  0.3583 -0.0082
12647TIP3    H159356   1.268   3.235   5.012 -0.2876  0.5583  1.7089
12647TIP3    H259357   1.174   3.142   5.085 -1.2228  0.8064  0.8352
12648TIP3   OH259358   4.208   0.592  16.605  0.5215 -0.1690 -0.4313
12648TIP3    H159359   4.235   0.641  16.527 -0.4538 -1.8835 -1.8576
12648TIP3    H259360   4.123   0.630  16.629  0.2848 -0.4293 -0.8712
12649TIP3   OH259361   2.224   1.141   4.081  0.3961  0.0744 -0.1608
12649TIP3    H159362   2.279   1.171   4.154 -1.0340 -0.2032  1.0622
12649TIP3    H259363   2.205   1.049   4.101 -0.9112  0.2996 -0.2991
12650TIP3   OH259364   5.661   1.129  15.881  0.1754  0.0430 -0.3081
12650TIP3    H159365   5.605   1.127  15.803  1.2000  0.7299 -1.0728
12650TIP3    H259366   5.749   1.146  15.847  0.4045  1.8182  1.0987
12651TIP3   OH259367   1.481   0.595   1.144  0.4064 -0.7443 -0.0513
12651TIP3    H159368   1.466   0.545   1.063  0.9006  0.6339 -1.0143
12651TIP3    H259369   1.557   0.553   1.183  0.9824 -0.5857 -0.9843
12652TIP3   OH259370   1.584   2.973  15.032  0.0419  0.1763  0.7091
12652TIP3    H159371   1.554   2.914  14.962  1.4645  0.0787  0.1819
12652TIP3    H259372   1.607   3.054  14.986 -0.4843  0.6366  1.2580
12653TIP3   OH259373   6.012   1.969   1.495 -0.0241  0.8097 -0.5871
12653TIP3    H159374   5.998   1.940   1.405  0.7809 -0.4843 -0.3076
12653TIP3    H259375   5.982   1.896   1.549  1.5029  0.7008  0.1415
12654TIP3   OH259376   0.778   5.004   5.227  0.1121 -0.4449  0.7258
12654TIP3    H159377   0.744   5.088   5.258 -2.1091 -1.3094  0.7819
12654TIP3    H259378   0.788   5.016   5.133 -2.2030 -0.7093  0.4000
12655TIP3   OH259379   1.394   1.383  15.335 -0.2297 -0.1645 -0.4688
12655TIP3    H159380   1.328   1.451  15.321 -1.7806 -1.6617 -0.6110
12655TIP3    H259381   1.394   1.333  15.253  0.5762 -0.6163 -0.1988
12656TIP3   OH259382   6.299   4.724   0.788  0.0912 -0.0150 -0.1513
12656TIP3    H159383   6.305   4.651   0.726  1.6988 -0.9888  1.0786
12656TIP3    H259384   6.226   4.701   0.845 -0.2162 -0.0328 -0.5528
12657TIP3   OH259385   1.258   2.985   2.036 -0.2127 -0.0956  0.4202
12657TIP3    H159386   1.263   3.081   2.031 -0.5328 -0.1558 -1.5516
12657TIP3    H259387   1.331   2.954   1.982 -0.5857 -0.9556  0.3952
12658TIP3   OH259388   5.043   5.804   4.178 -0.2267 -0.4355  0.3968
12658TIP3    H159389   5.053   5.721   4.224  1.1345 -1.6587 -2.0029
12658TIP3    H259390   4.951   5.808   4.153 -0.4899 -0.7784  1.3164
12659TIP3   OH259391   2.524   5.258  16.909 -0.9400 -0.0486 -0.1367
12659TIP3    H159392   2.541   5.223  16.822 -1.2106 -0.1570 -0.1483
12659TIP3    H259393   2.589   5.215  16.965 -1.1424 -0.4168 -0.1869
12660TIP3   OH259394   2.464   3.922  14.815 -0.8248 -0.0037  0.2730
12660TIP3    H159395   2.541   3.925  14.871 -0.8097  0.9745  0.2085
12660TIP3    H259396   2.414   3.848  14.847  1.0993 -1.8814 -0.9405
12661TIP3   OH259397   3.725   1.104   2.157  0.4289 -0.0132 -0.2974
12661TIP3    H159398   3.639   1.129   2.123  0.8899 -1.1361 -2.3819
12661TIP3    H259399   3.733   1.151   2.240 -2.3636 -0.2312  0.1221
12662TIP3   OH259400   3.721   0.201  12.497 -0.4566  0.2791  0.2351
12662TIP3    H159401   3.813   0.210  12.472 -0.3318  0.8506  0.8861
12662TIP3    H259402   3.721   0.214  12.592 -1.1669 -0.0584  0.2820
12663TIP3   OH259403   4.288   2.740   4.337 -0.4736  0.7137 -0.2554
12663TIP3    H159404   4.236   2.717   4.414  0.0953  1.7391  0.4423
12663TIP3    H259405   4.231   2.720   4.263 -1.1228 -0.0340  0.4339
12664TIP3   OH259406   2.610   3.652   0.990  0.0967  0.1124 -0.0673
12664TIP3    H159407   2.623   3.585   0.923  0.4668 -0.8613  0.9625
12664TIP3    H259408   2.694   3.658   1.035 -0.7187 -0.6919  1.6229
12665TIP3   OH259409   1.421   4.956   4.628 -0.4598 -0.3591 -0.1328
12665TIP3    H159410   1.345   4.954   4.571 -2.0384 -1.3879  1.9561
12665TIP3    H259411   1.393   5.006   4.705  0.6384 -1.5725  1.0826
12666TIP3   OH259412   2.754   1.719   0.010  0.0996  0.8312 -0.2159
12666TIP3    H159413   2.700   1.731  -0.068  0.2915 -2.1643 -0.8929
12666TIP3    H259414   2.694   1.680   0.074  0.9419 -0.7158 -0.3363
12667TIP3   OH259415   1.509   2.834   4.737  0.4027  0.1282  0.4193
12667TIP3    H159416   1.458   2.794   4.807 -0.1521 -0.5300 -0.3656
12667TIP3    H259417   1.462   2.914   4.716  0.4471  0.2120  0.6333
12668TIP3   OH259418   1.264   5.898   5.857 -0.0749  0.3817  0.8361
12668TIP3    H159419   1.204   5.972   5.861  0.4944  0.9685 -1.1216
12668TIP3    H259420   1.318   5.908   5.936 -1.1899  1.0136  1.5332
12669TIP3   OH259421   2.262   2.140  10.869  0.1182  0.2237  0.0119
12669TIP3    H159422   2.214   2.057  10.872 -2.0239  1.4542  1.1462
12669TIP3    H259423   2.223   2.188  10.796  0.1216  0.9328  0.4714
12670TIP3   OH259424   5.005   0.520  12.780  0.3923  0.0994  0.2081
12670TIP3    H159425   4.985   0.458  12.711 -0.8512  0.6020  0.1150
12670TIP3    H259426   4.991   0.470  12.861  1.1142 -0.2619  0.1171
12671TIP3   OH259427   0.351   5.818  11.058 -0.3477 -0.0412 -0.2459
12671TIP3    H159428   0.290   5.844  10.989 -0.8975  0.9543  0.5931
12671TIP3    H259429   0.297   5.811  11.137  0.3691 -0.5779  0.2079
12672TIP3   OH259430   5.066   1.376  13.290  0.3008 -0.6411  0.3130
12672TIP3    H159431   5.081   1.282  13.300 -2.4106 -0.9200  2.2816
12672TIP3    H259432   5.012   1.384  13.211  0.7414 -0.7059  0.0028
12673TIP3   OH259433   1.102   6.258  15.297  0.6512 -0.2950 -0.2666
12673TIP3    H159434   1.156   6.179  15.308  1.0978 -0.2827 -2.1097
12673TIP3    H259435   1.064   6.248  15.210  1.3138  1.8869 -0.8284
12674TIP3   OH259436   5.520   4.660   3.971 -0.3182 -0.1494  0.2242
12674TIP3    H159437   5.468   4.580   3.983 -0.1947 -0.4779 -1.3244
12674TIP3    H259438   5.524   4.672   3.876 -2.4937  3.1552  0.4752
12675TIP3   OH259439   1.274   1.082   2.945 -0.3663  0.2124 -0.8585
12675TIP3    H159440   1.302   1.148   3.007  0.3967  0.5049 -1.5050
12675TIP3    H259441   1.323   1.102   2.864  0.3562 -1.4912 -0.8728
12676TIP3   OH259442   6.555   2.256  13.424 -0.4478 -0.2799 -0.6983
12676TIP3    H159443   6.506   2.339  13.424 -0.5237 -0.3204 -0.2383
12676TIP3    H259444   6.547   2.224  13.514 -1.2551 -1.2892 -1.1297
12677TIP3   OH259445   2.593   5.775   3.542  0.3559  0.0358 -0.3495
12677TIP3    H159446   2.546   5.742   3.465 -0.9496  1.5420 -0.2364
12677TIP3    H259447   2.607   5.698   3.596 -0.9878 -0.6498 -0.9333
12678TIP3   OH259448   0.034   5.262   4.885  0.4413 -0.2789  0.4018
12678TIP3    H159449   0.004   5.203   4.954 -2.1475 -2.2937 -2.3109
12678TIP3    H259450   0.096   5.211   4.833  0.5340  0.3887 -0.1604
12679TIP3   OH259451   4.958   2.489   3.723 -0.1279 -0.4253 -0.5491
12679TIP3    H159452   4.947   2.402   3.760  0.2339  0.3934  1.5502
12679TIP3    H259453   5.032   2.527   3.771  0.3942  0.6609 -2.1598
12680TIP3   OH259454   5.180   6.442  16.801  0.0502  0.0018 -0.1150
12680TIP3    H159455   5.137   6.433  16.886 -1.1562 -2.1892 -0.8998
12680TIP3    H259456   5.273   6.436  16.820 -0.1841  0.1556  1.1156
12681TIP3   OH259457   5.293   4.547  12.251  0.7916 -0.0871  0.0081
12681TIP3    H159458   5.329   4.513  12.168  0.5588 -3.3226  1.1395
12681TIP3    H259459   5.199   4.557  12.233  0.9478  0.5045 -0.5074
12682TIP3   OH259460   4.680   5.987  16.043  0.3255 -0.3775 -0.3948
12682TIP3    H159461   4.718   6.001  16.130  0.2610 -1.2571 -0.2172
12682TIP3    H259462   4.625   5.909  16.054  1.4947 -1.3848 -1.5915
12683TIP3   OH259463   4.130   2.916   0.124  0.4425 -0.4377 -0.4595
12683TIP3    H159464   4.104   2.855   0.192 -2.8626  0.9034 -0.3987
12683TIP3    H259465   4.194   2.973   0.166 -1.8216  0.6153  1.7248
12684TIP3   OH259466   1.802   3.628  15.134  0.1947  0.2388  0.2619
12684TIP3    H159467   1.709   3.613  15.151  1.2699 -2.9045  4.1760
12684TIP3    H259468   1.819   3.714  15.173 -0.8704  0.3758  0.4532
12685TIP3   OH259469   4.719   1.722   5.450  0.6410  0.6278 -0.3232
12685TIP3    H159470   4.799   1.724   5.502 -0.1662 -3.0012  1.2381
12685TIP3    H259471   4.738   1.663   5.378 -0.3732  0.4165 -0.4257
12686TIP3   OH259472   1.810   1.509  11.093  0.0277 -0.1255 -0.3236
12686TIP3    H159473   1.716   1.517  11.080  0.1741 -0.6643 -1.9256
12686TIP3    H259474   1.833   1.427  11.049  1.2777  0.1224 -0.1547
12687TIP3   OH259475   2.744   4.419  15.519  0.3596 -0.6975  0.2484
12687TIP3    H159476   2.809   4.488  15.530  0.1195 -0.3904 -0.2659
12687TIP3    H259477   2.710   4.405  15.607  1.0225 -0.7632  0.4984
12688TIP3   OH259478   2.324   1.091  10.533 -0.4259  0.3315  0.8435
12688TIP3    H159479   2.263   1.141  10.479 -1.8002 -0.6421  1.4490
12688TIP3    H259480   2.328   1.140  10.615  0.3903  0.9337  0.4448
12689TIP3   OH259481   3.345   6.523  16.682  0.1003  0.3856  0.5792
12689TIP3    H159482   3.436   6.499  16.700  0.4915  1.0938 -0.4652
12689TIP3    H259483   3.343   6.543  16.589 -0.8442  1.6483  0.8608
12690TIP3   OH259484   3.284   4.831  12.832 -0.2575 -0.3744 -0.1191
12690TIP3    H159485   3.288   4.751  12.886  1.2283  1.2107  2.1871
12690TIP3    H259486   3.324   4.805  12.749  3.0209 -1.2917  1.6359
12691TIP3   OH259487   3.022   1.711  14.313 -0.6025 -0.4200 -0.1431
12691TIP3    H159488   3.112   1.680  14.320 -0.4857 -0.3531 -1.2605
12691TIP3    H259489   3.012   1.737  14.221 -1.5577  0.1893  0.1175
12692TIP3   OH259490   2.130   1.532   3.548 -0.9029  0.2129  0.5504
12692TIP3    H159491   2.187   1.506   3.620  3.3432  3.2893 -1.4184
12692TIP3    H259492   2.079   1.605   3.583 -1.5839 -0.7220  1.5202
12693TIP3   OH259493   4.400   6.416   1.800 -0.4949 -0.4448 -0.6900
12693TIP3    H159494   4.365   6.417   1.889 -0.2502 -0.6145 -0.5888
12693TIP3    H259495   4.470   6.350   1.802 -0.7529 -0.7323 -1.1127
12694TIP3   OH259496   2.419   2.893  13.193 -0.4439 -0.0059  0.0476
12694TIP3    H159497   2.464   2.948  13.129 -0.9933  1.5423  0.9563
12694TIP3    H259498   2.366   2.955  13.245 -0.6885 -1.3297  1.4141
12695TIP3   OH259499   6.084   5.689  14.535 -0.5180  0.3953 -0.0408
12695TIP3    H159500   6.127   5.771  14.509  0.7442 -0.1514  0.2623
12695TIP3    H259501   6.154   5.623  14.531 -1.2125 -0.4227  0.9794
12696TIP3   OH259502   2.991   2.658   6.669  0.5400  0.1655  0.3657
12696TIP3    H159503   2.950   2.584   6.625  2.1413 -1.0489  0.8404
12696TIP3    H259504   2.925   2.688   6.731 -0.1324 -0.8885  0.1833
12697TIP3   OH259505   2.570   2.287   5.451  0.0698 -0.2063 -0.2550
12697TIP3    H159506   2.487   2.322   5.484  0.4005  0.6284 -0.3097
12697TIP3    H259507   2.564   2.295   5.356 -0.1713 -1.0217 -0.3138
12698TIP3   OH259508   6.318   4.866   6.116 -0.2920  0.4984  0.2580
12698TIP3    H159509   6.299   4.797   6.052 -1.7031 -0.1427  1.3196
12698TIP3    H259510   6.289   4.947   6.073 -3.8217 -0.2272  1.0394
12699TIP3   OH259511   6.222   5.111  14.610 -0.7246  0.4910 -0.1018
12699TIP3    H159512   6.280   5.035  14.617 -0.4412  0.6860 -0.3538
12699TIP3    H259513   6.260   5.176  14.667 -0.8313  0.5349 -0.0794
12700TIP3   OH259514   0.267   1.064  16.797  0.3965 -0.1131  0.1008
12700TIP3    H159515   0.182   1.037  16.764  0.0880  2.0190 -0.9716
12700TIP3    H259516   0.255   1.074  16.891 -0.1427 -1.2256  0.1453
12701TIP3   OH259517   1.346   5.029   3.629 -0.0318 -0.5429 -0.0568
12701TIP3    H159518   1.388   5.071   3.704 -2.1874 -0.2874  1.0456
12701TIP3    H259519   1.254   5.021   3.655 -0.7718 -0.6049 -2.6118
12702TIP3   OH259520   5.106   6.695   3.285  0.2184 -0.5086 -0.1515
12702TIP3    H159521   5.077   6.626   3.225  0.2212  0.2914 -1.0796
12702TIP3    H259522   5.161   6.752   3.232  0.1375  0.2727  0.5881
12703TIP3   OH259523   6.037   5.007  10.549  0.0986 -0.3346 -0.1364
12703TIP3    H159524   6.102   5.077  10.553  1.1714 -1.3117  0.1126
12703TIP3    H259525   5.975   5.027  10.619  1.7446 -0.9159  1.5316
12704TIP3   OH259526   4.315   0.996  12.563 -0.1648  0.4743 -0.3238
12704TIP3    H159527   4.250   0.950  12.510  1.0560 -0.4535 -1.0375
12704TIP3    H259528   4.327   1.080  12.518 -1.6802  1.1260  0.4412
12705TIP3   OH259529   0.397   0.763   3.195  0.4780  0.2871 -0.0352
12705TIP3    H159530   0.388   0.713   3.114  0.0559 -1.2070  0.8990
12705TIP3    H259531   0.491   0.766   3.211  0.7107  2.2487 -1.5549
12706TIP3   OH259532   1.442   5.574   0.796 -0.1200 -0.0368 -0.4515
12706TIP3    H159533   1.483   5.655   0.765  0.4196 -0.2018 -0.1619
12706TIP3    H259534   1.360   5.568   0.746 -0.8762  1.4572  0.5666
12707TIP3   OH259535   4.653   1.090   4.721 -0.2546  0.7122 -0.0517
12707TIP3    H159536   4.731   1.036   4.714 -0.9717 -0.5013  1.1821
12707TIP3    H259537   4.610   1.081   4.636  1.6243  2.5163 -1.2592
12708TIP3   OH259538   5.618   1.061   1.210 -0.1108  0.3849  0.4277
12708TIP3    H159539   5.671   1.015   1.276  0.0171 -0.4767 -0.2601
12708TIP3    H259540   5.643   1.153   1.219  2.3098 -0.1161 -0.5901
12709TIP3   OH259541   0.468   0.606   5.367  0.2529  0.8196 -0.0548
12709TIP3    H159542   0.443   0.653   5.288 -0.2408  0.4284 -0.1370
12709TIP3    H259543   0.424   0.653   5.438 -0.6119  0.2209 -0.1836
12710TIP3   OH259544   0.265   0.819   0.896  0.0841 -0.0103 -0.2378
12710TIP3    H159545   0.233   0.848   0.981 -1.3936 -0.0046 -0.7807
12710TIP3    H259546   0.188   0.823   0.839  0.8621 -0.8306 -1.3643
12711TIP3   OH259547   4.971   0.634   4.086  0.7988  0.5153 -0.0397
12711TIP3    H159548   4.931   0.556   4.125  1.5046 -0.2862 -0.8976
12711TIP3    H259549   4.955   0.624   3.992  2.0946  0.7240 -0.2813
12712TIP3   OH259550   3.017   4.748  14.220 -0.1183  0.3833  0.6015
12712TIP3    H159551   2.981   4.825  14.262 -0.0955  1.2205 -0.8554
12712TIP3    H259552   2.941   4.696  14.194 -0.3376  1.8261 -1.8740
12713TIP3   OH259553   0.077   5.492   5.706  0.1393 -0.4202 -1.0615
12713TIP3    H159554   0.003   5.482   5.765  0.6012 -2.2750 -0.7706
12713TIP3    H259555   0.055   5.568   5.653 -0.9966  0.3202  0.4386
12714TIP3   OH259556   6.567   4.417  12.218 -0.2605 -0.5271 -0.5432
12714TIP3    H159557   6.548   4.510  12.221  2.3709  0.0427  0.3833
12714TIP3    H259558   6.651   4.411  12.171 -0.0202 -2.3413  0.0628
12715TIP3   OH259559   4.320   4.167  13.014 -0.1236 -0.1616  0.0488
12715TIP3    H159560   4.272   4.154  12.933  1.2598 -0.0960 -0.7940
12715TIP3    H259561   4.274   4.239  13.058 -0.9897 -0.3253 -0.5804
12716TIP3   OH259562   6.367   0.657   1.051 -0.0364  0.0154  0.1710
12716TIP3    H159563   6.448   0.607   1.061  0.7543  1.6324  2.2673
12716TIP3    H259564   6.300   0.591   1.036  1.4076 -1.4680  0.0695
12717TIP3   OH259565   2.815   0.017   3.247 -0.0833  0.6228 -0.4007
12717TIP3    H159566   2.725  -0.003   3.220 -0.6304  0.7619  1.2639
12717TIP3    H259567   2.869  -0.018   3.177 -1.2893 -2.3433  0.0642
12718TIP3   OH259568   1.971   0.256   4.605  0.4809  0.3388  0.3336
12718TIP3    H159569   1.950   0.204   4.683 -0.4183 -0.1637 -0.2291
12718TIP3    H259570   1.886   0.271   4.564  0.8257  1.6202  0.0858
12719TIP3   OH259571   3.223   3.526   3.114  0.1276 -0.3597 -0.5170
12719TIP3    H159572   3.254   3.436   3.114  1.1160 -0.0322 -0.4904
12719TIP3    H259573   3.269   3.567   3.041  1.3061  0.6332  0.7388
12720TIP3   OH259574   5.596   6.741   1.944  0.3623 -0.2652  0.1790
12720TIP3    H159575   5.505   6.757   1.919  0.1109 -2.7908 -0.6954
12720TIP3    H259576   5.599   6.757   2.038 -1.5542 -2.3285  0.6266
12721TIP3   OH259577   2.683   5.438  14.815  0.0740  0.1652  0.3958
12721TIP3    H159578   2.772   5.431  14.780 -0.3169  0.4221 -0.6741
12721TIP3    H259579   2.638   5.361  14.780  0.0806 -0.3842  1.5732
12722TIP3   OH259580   3.543   2.946   1.512  0.2615  0.1599  0.0538
12722TIP3    H159581   3.531   3.026   1.563 -0.3520 -0.8756  1.5591
12722TIP3    H259582   3.584   2.976   1.430 -0.3423  2.0511  0.4194
12723TIP3   OH259583   0.217   5.409  12.817 -0.0478  0.2224  0.2410
12723TIP3    H159584   0.196   5.399  12.724  1.2239 -0.8696  0.0535
12723TIP3    H259585   0.135   5.437  12.857 -0.4539  1.3241 -1.3110
12724TIP3   OH259586   1.639   3.398   5.678 -0.5674 -1.2332  0.0657
12724TIP3    H159587   1.554   3.354   5.687 -1.2289  0.5409  3.3536
12724TIP3    H259588   1.677   3.393   5.766  1.3435  0.7607 -0.6208
12725TIP3   OH259589   0.039   3.280  13.955  0.1801  0.1362  0.2361
12725TIP3    H159590   0.130   3.265  13.929  0.0326  0.7249 -0.6626
12725TIP3    H259591   0.032   3.241  14.042  0.9107 -1.1818 -0.2758
12726TIP3   OH259592   4.865   0.798  14.339  0.2443 -0.1830 -0.3344
12726TIP3    H159593   4.876   0.831  14.428  1.3412 -0.9743 -0.1700
12726TIP3    H259594   4.884   0.874  14.283  1.2714 -0.1233  0.0736
12727TIP3   OH259595   1.892   0.338  14.066 -0.5517  1.0455  0.3458
12727TIP3    H159596   1.818   0.279  14.078  0.0513  0.1953  0.0035
12727TIP3    H259597   1.857   0.412  14.018 -1.1136  0.4944 -0.1065
12728TIP3   OH259598   1.596   0.504   4.119  0.1937 -0.3587  0.1429
12728TIP3    H159599   1.601   0.444   4.194 -1.8865  0.3024  0.8664
12728TIP3    H259600   1.659   0.470   4.056  0.7788 -1.9039  1.5305
12729TIP3   OH259601   2.722   2.374   2.750  0.0893  0.5412 -0.5725
12729TIP3    H159602   2.797   2.334   2.705 -1.3294  0.2804 -2.7857
12729TIP3    H259603   2.647   2.347   2.698 -1.3452  2.5124  0.4479
12730TIP3   OH259604   5.782   2.496   6.285  0.2850 -0.5836  0.4913
12730TIP3    H159605   5.742   2.552   6.351 -0.9804  0.6097 -1.2591
12730TIP3    H259606   5.731   2.415   6.288  0.7095 -0.8375  1.4550
12731TIP3   OH259607   3.577   1.576  11.150 -0.4641 -0.0592 -0.2125
12731TIP3    H159608   3.493   1.619  11.161 -1.1761 -0.9667 -1.9429
12731TIP3    H259609   3.587   1.565  11.056  1.1525 -0.8258  0.0235
12732TIP3   OH259610   3.992   2.437   0.669  0.1153 -0.4161  0.2674
12732TIP3    H159611   4.033   2.377   0.606  0.2477 -2.5087  2.2523
12732TIP3    H259612   3.919   2.386   0.705 -2.2411  2.0764 -0.8309
12733TIP3   OH259613   4.557   4.688   0.497  0.4267  0.6553 -0.2822
12733TIP3    H159614   4.592   4.610   0.453 -2.1608 -1.3349  1.0685
12733TIP3    H259615   4.594   4.684   0.585  0.2193  0.9110 -0.1835
12734TIP3   OH259616   1.509   1.978   6.620 -0.1830  0.2007 -0.3832
12734TIP3    H159617   1.453   2.047   6.656 -0.0723  1.6471 -2.8590
12734TIP3    H259618   1.457   1.898   6.628 -2.1152  1.3143 -1.4453
12735TIP3   OH259619   4.769   0.968  15.856  0.4034  0.1437 -0.3863
12735TIP3    H159620   4.730   0.966  15.769  1.2624  0.4193 -0.7788
12735TIP3    H259621   4.842   0.907  15.851 -0.4461 -0.9781  0.5796
12736TIP3   OH259622   3.222   1.452   5.511 -0.2545  0.6273  0.0309
12736TIP3    H159623   3.217   1.535   5.559  2.5716  0.6747  0.3700
12736TIP3    H259624   3.313   1.424   5.522 -0.6743 -1.5643 -1.6817
12737TIP3   OH259625   1.829   2.046   3.166 -0.0448  0.1768  0.2868
12737TIP3    H159626   1.846   2.063   3.074  1.0865 -1.2163  0.2287
12737TIP3    H259627   1.876   2.116   3.212  2.1172 -1.0009 -0.0715
12738TIP3   OH259628   2.546   1.033   5.255 -0.1501 -0.3656  0.7365
12738TIP3    H159629   2.630   1.034   5.300  0.2457 -0.8316  0.0096
12738TIP3    H259630   2.567   1.055   5.164 -0.6042 -2.0689  0.2054
12739TIP3   OH259631   3.444   1.055  16.598 -0.0287  0.0066 -0.7730
12739TIP3    H159632   3.355   1.028  16.577 -0.3491  1.4647 -1.3133
12739TIP3    H259633   3.498   1.010  16.533  0.1465 -4.4108  2.1948
12740TIP3   OH259634   4.709   6.487  16.722  0.0559  0.5412  0.0692
12740TIP3    H159635   4.744   6.573  16.746  1.7376 -0.0171 -0.3273
12740TIP3    H259636   4.676   6.451  16.804  0.9033  0.8654  0.5635
12741TIP3   OH259637   5.815   0.168   0.600 -0.3387 -0.1115 -0.2365
12741TIP3    H159638   5.903   0.204   0.608 -0.8395  0.6728  2.5092
12741TIP3    H259639   5.767   0.232   0.548  0.2912  0.2355 -0.3927
12742TIP3   OH259640   4.622   2.238   1.202  0.5011  0.2109 -0.6206
12742TIP3    H159641   4.641   2.307   1.139  0.3458  1.9652  1.1819
12742TIP3    H259642   4.631   2.280   1.287 -1.8873 -1.3989  0.4950
12743TIP3   OH259643   6.031   4.512  10.537 -0.2107 -0.6299 -0.6316
12743TIP3    H159644   5.970   4.508  10.463  0.3067  0.9283 -1.1611
12743TIP3    H259645   6.045   4.421  10.562 -2.6525 -1.0293 -0.5943
12744TIP3   OH259646   6.708   3.135  16.667 -0.0216  0.0447  0.6124
12744TIP3    H159647   6.745   3.048  16.681  1.6649  0.9327  1.9084
12744TIP3    H259648   6.777   3.184  16.622 -0.1934  1.2861  1.6641
12745TIP3   OH259649   4.993   4.211   3.738  0.5622 -0.2412 -0.5053
12745TIP3    H159650   4.900   4.234   3.744  1.0168  1.5393 -0.0672
12745TIP3    H259651   4.997   4.147   3.667 -0.6484  1.7097 -2.4078
12746TIP3   OH259652   5.282   4.699   3.317  0.6741 -0.1143 -0.3646
12746TIP3    H159653   5.367   4.658   3.332  1.3951  0.3363 -2.9941
12746TIP3    H259654   5.287   4.734   3.228 -1.3618  2.1612  0.3506
12747TIP3   OH259655   5.288   3.943   4.365  0.5475 -0.3360  0.0366
12747TIP3    H159656   5.231   3.949   4.441  1.5490  1.1109  0.6912
12747TIP3    H259657   5.346   3.869   4.384 -1.2939 -2.0537 -0.7956
12748TIP3   OH259658   1.539   2.889  15.950 -0.1552  0.0127 -0.0177
12748TIP3    H159659   1.486   2.896  15.870 -0.0214 -0.8392 -0.1837
12748TIP3    H259660   1.533   2.797  15.975  0.7092  0.0471  0.3375
12749TIP3   OH259661   0.316   0.449  13.016  0.4434 -0.0116 -0.0485
12749TIP3    H159662   0.336   0.542  13.014  1.2055 -0.1849 -0.5518
12749TIP3    H259663   0.227   0.444  12.979  0.5651  0.4727 -0.4215
12750TIP3   OH259664   6.737   5.914   2.796  0.4232 -0.3401 -0.4448
12750TIP3    H159665   6.746   6.009   2.804 -2.4648 -0.0910  0.5671
12750TIP3    H259666   6.804   5.878   2.854  0.4150  1.1095  0.4926
12751TIP3   OH259667   2.766   6.256  14.433 -0.4024 -0.4197  0.0182
12751TIP3    H159668   2.706   6.182  14.442  0.2032 -1.1344 -1.5949
12751TIP3    H259669   2.732   6.306  14.359 -0.1222  0.2755  0.3469
12752TIP3   OH259670   0.890   5.101  13.514  0.0497 -0.4549 -0.2193
12752TIP3    H159671   0.817   5.163  13.503 -1.1889 -1.7313  0.6241
12752TIP3    H259672   0.950   5.146  13.573  0.5674  1.1297 -1.9211
12753TIP3   OH259673   2.649   2.849  13.735  0.3756 -0.2592 -0.4885
12753TIP3    H159674   2.677   2.819  13.648 -1.1549  0.8024 -1.3652
12753TIP3    H259675   2.686   2.785  13.795  1.5130 -0.9795 -1.9163
12754TIP3   OH259676   4.394   6.562  15.255 -0.2913  0.7805  0.1619
12754TIP3    H159677   4.366   6.641  15.301 -0.6674  0.6866  0.0920
12754TIP3    H259678   4.315   6.508  15.248  0.1676 -0.0442  1.0820
12755TIP3   OH259679   1.490   2.135  15.263 -0.3416  0.4862 -0.8094
12755TIP3    H159680   1.494   2.048  15.303 -3.6545 -0.2106 -1.8415
12755TIP3    H259681   1.544   2.129  15.185 -1.0216 -0.8207 -1.1838
12756TIP3   OH259682   1.957   6.632  11.949 -0.1524  0.3102  0.8018
12756TIP3    H159683   1.906   6.587  12.017  1.0743 -2.5441 -0.1119
12756TIP3    H259684   2.048   6.623  11.978  0.2313  0.8928 -0.2065
12757TIP3   OH259685   3.234   0.388   4.281 -0.6438 -1.0592  0.2797
12757TIP3    H159686   3.166   0.431   4.332 -0.0506 -0.1078  0.2953
12757TIP3    H259687   3.299   0.457   4.266  0.2096 -1.8968  0.0903
12758TIP3   OH259688   6.498   5.944   0.495 -0.3841 -0.6368 -0.2193
12758TIP3    H159689   6.473   5.996   0.571 -1.3565  1.3973 -1.9083
12758TIP3    H259690   6.581   5.981   0.467 -0.1162 -1.2684 -0.2741
12759TIP3   OH259691   4.529   2.383   5.559 -0.2147  0.1835 -0.2176
12759TIP3    H159692   4.466   2.455   5.567  0.4280  0.6306  0.9228
12759TIP3    H259693   4.589   2.412   5.490 -0.4329  0.3683 -0.3320
12760TIP3   OH259694   2.268   6.387   2.897 -0.6990  0.4089  0.3007
12760TIP3    H159695   2.336   6.329   2.932 -0.2500  0.1464 -0.9690
12760TIP3    H259696   2.298   6.475   2.917  0.2563  0.3089 -0.6824
12761TIP3   OH259697   6.122   1.950  12.116  1.2310 -0.0827  0.0031
12761TIP3    H159698   6.121   1.971  12.210  0.2286 -1.8304  0.3949
12761TIP3    H259699   6.030   1.949  12.091  1.3983 -1.4911 -0.5740
12762TIP3   OH259700   2.281   5.735   1.823 -0.2420  0.0866 -0.3802
12762TIP3    H159701   2.327   5.761   1.902 -1.4224 -0.7211  0.5957
12762TIP3    H259702   2.306   5.643   1.810  2.0045  0.9365 -2.4392
12763TIP3   OH259703   2.134   3.976   5.633 -0.3262 -0.2638 -0.4547
12763TIP3    H159704   2.190   3.903   5.659  0.8188  0.6248 -0.3748
12763TIP3    H259705   2.117   4.023   5.715 -0.3813  0.0163 -0.6273
12764TIP3   OH259706   2.354   3.546   0.773  0.5307 -0.1885  0.9739
12764TIP3    H159707   2.330   3.635   0.802  1.4079  0.1851  0.5443
12764TIP3    H259708   2.444   3.554   0.741  0.2223 -1.0032 -0.1200
12765TIP3   OH259709   2.543   0.202  13.953 -0.1994 -0.1938 -0.0964
12765TIP3    H159710   2.607   0.192  13.883 -0.1117 -1.7779  0.1748
12765TIP3    H259711   2.573   0.277  14.004  1.0761 -0.5199 -0.3592
12766TIP3   OH259712   6.216   2.440   1.230 -0.2423  0.0758 -0.1420
12766TIP3    H159713   6.258   2.451   1.145  0.6839 -3.4945 -0.2183
12766TIP3    H259714   6.280   2.475   1.293  0.4513 -0.1912 -0.6875
12767TIP3   OH259715   1.866   0.524  13.776 -0.2689  0.0495  0.4436
12767TIP3    H159716   1.829   0.478  13.701  1.0244 -0.5076  0.1278
12767TIP3    H259717   1.791   0.543  13.832 -1.1039 -0.4946 -0.4736
12768TIP3   OH259718   5.199   2.814  11.202 -0.5300 -0.1626 -0.0020
12768TIP3    H159719   5.238   2.816  11.114 -0.5735 -1.0247 -0.0459
12768TIP3    H259720   5.142   2.890  11.204  1.0503  1.0578  0.0132
12769TIP3   OH259721   3.090   0.077  11.205  0.2288 -0.0737  0.6711
12769TIP3    H159722   3.089   0.139  11.132  0.7182 -0.1422  0.6068
12769TIP3    H259723   3.034   0.118  11.271  1.1775  0.8085  0.9358
12770TIP3   OH259724   0.117   1.688  13.859 -0.4520  0.0951  0.0453
12770TIP3    H159725   0.057   1.715  13.789 -1.2458  0.0828  0.7118
12770TIP3    H259726   0.089   1.738  13.935 -0.2339 -0.6396  0.6121
12771TIP3   OH259727   2.686   5.718   6.163 -0.3524  0.2385 -0.2007
12771TIP3    H159728   2.737   5.792   6.195 -0.3168  0.7396 -1.3912
12771TIP3    H259729   2.595   5.741   6.181 -0.3909  0.8995 -1.2277
12772TIP3   OH259730   1.801   3.162   6.134  0.3025 -0.3670  0.6359
12772TIP3    H159731   1.790   3.089   6.074  0.3518 -1.1506  1.5599
12772TIP3    H259732   1.772   3.128   6.219 -0.4305  0.9302  0.9230
12773TIP3   OH259733   3.479   4.005   2.496  0.5122  0.1419 -0.1913
12773TIP3    H159734   3.508   3.975   2.582  0.5398 -0.6882 -0.4852
12773TIP3    H259735   3.436   4.089   2.513 -0.2586 -0.4310  0.7510
12774TIP3   OH259736   0.413   2.778  16.958 -0.3090  0.1340 -0.4385
12774TIP3    H159737   0.496   2.824  16.974 -0.2694 -0.0784 -0.0314
12774TIP3    H259738   0.349   2.827  17.009 -0.3984  0.1624 -0.5764
12775TIP3   OH259739   2.356   4.407   0.912  0.2220 -0.2539 -0.1773
12775TIP3    H159740   2.320   4.493   0.889 -0.2948 -0.4614 -0.1397
12775TIP3    H259741   2.327   4.349   0.842 -1.2074 -0.8497  0.8920
12776TIP3   OH259742   3.774   4.186   6.269  0.1035  0.3819 -0.5668
12776TIP3    H159743   3.843   4.218   6.327  1.5833 -0.0971 -2.0274
12776TIP3    H259744   3.709   4.147   6.327  1.1592  0.6548  0.8120
12777TIP3   OH259745   3.696   6.417  15.919  0.1730  0.3293  0.3978
12777TIP3    H159746   3.776   6.372  15.892 -0.2498 -0.3289  0.2425
12777TIP3    H259747   3.637   6.347  15.945 -1.2471  0.6552 -1.8453
12778TIP3   OH259748   2.616   0.607  13.352 -0.8612 -0.0391 -0.5851
12778TIP3    H159749   2.597   0.551  13.276 -1.1385 -0.0609 -0.5027
12778TIP3    H259750   2.530   0.635  13.383 -0.8379 -1.2459  0.6336
12779TIP3   OH259751   1.552   1.236  11.202  0.4467 -0.3725  0.6593
12779TIP3    H159752   1.555   1.169  11.135  2.2091 -0.1636  0.5147
12779TIP3    H259753   1.563   1.319  11.155 -0.2268 -0.0852  0.9947
12780TIP3   OH259754   4.553   1.731  15.103  0.3542  0.7821 -0.5230
12780TIP3    H159755   4.465   1.768  15.099  0.6298  1.5076  0.0501
12780TIP3    H259756   4.612   1.805  15.086  0.9031  0.6109  0.5600
12781TIP3   OH259757   3.628   4.729  14.883 -0.8567  0.4940  0.2758
12781TIP3    H159758   3.705   4.764  14.927 -0.0669  0.1183 -0.7770
12781TIP3    H259759   3.657   4.645  14.847 -1.5048  0.7499 -0.8777
12782TIP3   OH259760   2.239   5.958  15.101 -0.5192 -0.5688  0.1793
12782TIP3    H159761   2.266   5.920  15.017  1.1014  0.2651  0.2915
12782TIP3    H259762   2.150   5.989  15.086  0.3501  1.1575 -1.8139
12783TIP3   OH259763   2.905   1.758   5.337 -0.2130  0.3524  0.4807
12783TIP3    H159764   2.886   1.711   5.418  1.0892 -2.5468 -0.8062
12783TIP3    H259765   2.988   1.720   5.307  0.8236  3.4381 -0.7006
12784TIP3   OH259766   1.484   1.280  15.622  0.1900 -0.3136 -0.4696
12784TIP3    H159767   1.570   1.241  15.614  0.7372  0.7890 -0.0308
12784TIP3    H259768   1.451   1.249  15.706  0.0768 -0.8754 -0.7173
12785TIP3   OH259769   6.719   5.323   0.960 -0.6075 -0.6388  0.2304
12785TIP3    H159770   6.702   5.393   0.896 -0.3609 -0.1302  0.7197
12785TIP3    H259771   6.803   5.286   0.932 -1.1854 -1.3564 -0.5779
12786TIP3   OH259772   0.374   1.232   3.673 -0.3874 -0.0389  0.3816
12786TIP3    H159773   0.413   1.208   3.758  0.2590  0.6824  0.2932
12786TIP3    H259774   0.428   1.186   3.609  0.7278  1.4541  0.2227
12787TIP3   OH259775   3.190   3.974   5.522 -0.7521  0.2766  0.2665
12787TIP3    H159776   3.184   3.902   5.459 -1.7490  0.2926  0.3366
12787TIP3    H259777   3.101   4.007   5.529 -0.3450  1.3487  0.4463
12788TIP3   OH259778   6.137   1.867   3.218 -0.1361  0.4635  0.2099
12788TIP3    H159779   6.073   1.796   3.218  0.0400  0.2412 -2.5143
12788TIP3    H259780   6.096   1.937   3.166  2.0318  0.0558 -2.1636
12789TIP3   OH259781   3.926   3.320  11.553  0.0966  0.2400 -0.1310
12789TIP3    H159782   3.914   3.315  11.458  3.9085  1.6149 -0.7972
12789TIP3    H259783   3.876   3.398  11.579 -0.9161 -0.1071 -1.0038
12790TIP3   OH259784   0.449   2.482   5.584 -0.2964  0.0162  0.4162
12790TIP3    H159785   0.536   2.521   5.599 -1.5649  3.4777 -0.5244
12790TIP3    H259786   0.412   2.470   5.671  0.0659  1.1544  0.7364
12791TIP3   OH259787   2.719   1.938  16.310 -0.3204 -0.1755 -0.2786
12791TIP3    H159788   2.738   1.875  16.380 -0.0191  0.7957  0.5264
12791TIP3    H259789   2.732   1.888  16.230 -1.9716 -1.6779  0.3492
12792TIP3   OH259790   5.310   2.238   2.365 -0.1615  0.3742  0.3440
12792TIP3    H159791   5.231   2.289   2.383  0.3802  0.9867  1.0061
12792TIP3    H259792   5.371   2.262   2.434 -0.3596 -2.1865  1.4752
12793TIP3   OH259793   5.071   3.828  15.772 -0.1408 -0.1157  0.2398
12793TIP3    H159794   5.053   3.836  15.679 -0.0286  0.5840  0.2822
12793TIP3    H259795   4.998   3.776  15.806 -0.5007  0.1489 -0.1249
12794TIP3   OH259796   5.924   3.853  12.925  0.5662  0.0898  0.2781
12794TIP3    H159797   5.997   3.905  12.960 -0.6818  0.8142  1.8287
12794TIP3    H259798   5.851   3.914  12.920  0.0670 -0.6045 -1.3900
12795TIP3   OH259799   3.328   2.490  12.526  0.0657 -0.2430  0.3047
12795TIP3    H159800   3.266   2.461  12.459 -0.1942 -0.7751  0.7709
12795TIP3    H259801   3.381   2.557  12.482 -2.9999  2.6880  0.8715
12796TIP3   OH259802   0.365   4.909   1.888  0.7792 -0.3557  0.2250
12796TIP3    H159803   0.332   4.904   1.977  1.8241 -0.3270  0.6281
12796TIP3    H259804   0.406   4.824   1.873 -0.0977 -0.6425 -0.5063
12797TIP3   OH259805   5.514   2.744  17.072 -0.2597 -0.0393  0.2591
12797TIP3    H159806   5.510   2.823  17.127 -0.5684 -0.4129  0.7722
12797TIP3    H259807   5.599   2.705  17.093  1.5563  2.1100 -2.7079
12798TIP3   OH259808   3.487   2.170   5.822 -0.1679 -0.5570 -0.1288
12798TIP3    H159809   3.529   2.108   5.763 -1.3763 -1.2751 -0.2577
12798TIP3    H259810   3.421   2.119   5.869  1.0732 -0.1005  2.2041
12799TIP3   OH259811   0.127   2.815   4.433 -0.6342 -0.2335 -0.0262
12799TIP3    H159812   0.123   2.780   4.522  2.5341 -0.1714  0.1944
12799TIP3    H259813   0.212   2.787   4.400 -0.4094  2.4476 -1.8772
12800TIP3   OH259814   3.691   0.831   2.928 -0.3659  0.0996 -0.2061
12800TIP3    H159815   3.660   0.921   2.914 -1.0732  0.1158  1.3191
12800TIP3    H259816   3.615   0.785   2.965 -0.4294 -1.4982 -2.2208
12801TIP3   OH259817   4.118   3.102  11.618  0.0523  0.1676  0.5175
12801TIP3    H159818   4.205   3.132  11.594 -0.3495  0.5370 -0.4999
12801TIP3    H259819   4.063   3.181  11.615 -0.7365 -0.4109 -0.8821
12802TIP3   OH259820   5.461   6.540   0.896 -0.3837  0.0689  0.1844
12802TIP3    H159821   5.530   6.592   0.936  0.5359 -0.5564 -0.5433
12802TIP3    H259822   5.508   6.482   0.835 -1.4863 -0.8349  0.1889
12803TIP3   OH259823   3.601   5.859   4.585 -0.4227  0.3793 -0.3620
12803TIP3    H159824   3.537   5.846   4.655  0.5621  0.6129  0.6039
12803TIP3    H259825   3.607   5.774   4.542  0.9978 -0.5556  1.6120
12804TIP3   OH259826   4.862   0.371  16.713 -0.0219  0.3672 -0.3235
12804TIP3    H159827   4.914   0.302  16.672  0.3634  0.2032  0.4297
12804TIP3    H259828   4.904   0.452  16.686  0.3073  0.2565 -0.1348
12805TIP3   OH259829   5.852   5.885  16.892 -0.3736  0.3836 -0.4919
12805TIP3    H159830   5.864   5.792  16.908  0.4615  0.6325  0.4214
12805TIP3    H259831   5.786   5.890  16.823  1.4308 -0.9415 -2.3730
12806TIP3   OH259832   3.845   0.490  13.524  0.3515  0.3968  0.0710
12806TIP3    H159833   3.857   0.468  13.616  1.6120  2.1337  0.3548
12806TIP3    H259834   3.750   0.485  13.510 -0.1112  2.3825  2.0957
12807TIP3   OH259835   2.770   1.549  13.024  0.6562 -0.3179  0.0730
12807TIP3    H159836   2.832   1.485  13.058 -0.2825 -0.5832  1.3138
12807TIP3    H259837   2.706   1.561  13.094  1.0198  2.2786  0.0231
12808TIP3   OH259838   3.239   6.657  10.754  0.1129  0.0611  0.7063
12808TIP3    H159839   3.299   6.706  10.698  1.1684 -0.2022  1.5915
12808TIP3    H259840   3.168   6.719  10.773 -0.9103 -0.2395 -1.9179
12809TIP3   OH259841   4.221   6.089  13.444  0.1205 -0.5379 -0.1244
12809TIP3    H159842   4.301   6.126  13.405  0.8357 -1.3451  0.5591
12809TIP3    H259843   4.179   6.043  13.371 -0.1610  0.5976 -0.6928
12810TIP3   OH259844   0.353   4.797   0.405  0.7346 -0.0632  0.0791
12810TIP3    H159845   0.426   4.787   0.344  0.0747  0.3285 -0.7797
12810TIP3    H259846   0.291   4.854   0.360  0.2682  0.2868  1.1445
12811TIP3   OH259847   2.168   6.464   3.604 -0.5986 -0.2719 -0.8368
12811TIP3    H159848   2.249   6.435   3.645 -0.5076  0.2168 -0.6740
12811TIP3    H259849   2.116   6.499   3.676  0.5203  2.7889 -1.4794
12812TIP3   OH259850   2.719   0.424  12.056  0.4649 -0.0669 -0.1639
12812TIP3    H159851   2.668   0.351  12.020 -0.4379 -0.4099  1.7829
12812TIP3    H259852   2.750   0.471  11.978 -3.0734  0.3249 -1.4247
12813TIP3   OH259853   2.758   3.030  12.402 -0.4089 -0.1992 -0.2403
12813TIP3    H159854   2.733   3.121  12.386 -1.4068 -0.4016  0.1365
12813TIP3    H259855   2.684   2.993  12.450 -0.8846 -1.7596 -2.1182
12814TIP3   OH259856   3.663   1.314   2.371  0.0146  0.0322  0.2890
12814TIP3    H159857   3.683   1.255   2.443  0.5976 -1.1122 -0.7845
12814TIP3    H259858   3.747   1.354   2.348 -0.1717  0.4137  0.2591
12815TIP3   OH259859   1.429   0.822   5.097  0.1695 -0.6792 -0.4093
12815TIP3    H159860   1.513   0.781   5.075 -0.0148 -1.3045  0.0424
12815TIP3    H259861   1.399   0.860   5.014  2.0583  1.6912 -0.0578
12816TIP3   OH259862   0.331   0.231  15.240 -0.1153 -0.6520 -0.6807
12816TIP3    H159863   0.286   0.165  15.187  0.2471 -1.1645 -0.3593
12816TIP3    H259864   0.260   0.279  15.284 -0.3817 -0.8022 -0.9472
12817TIP3   OH259865   6.237   6.252  16.805  0.0486  0.2883  0.3053
12817TIP3    H159866   6.302   6.255  16.876 -1.5030  0.5075  1.7488
12817TIP3    H259867   6.173   6.187  16.834 -0.2930 -0.0586 -1.1887
12818TIP3   OH259868   0.477   3.889   1.798 -0.0229  0.3460 -0.1915
12818TIP3    H159869   0.493   3.914   1.707 -1.0762 -0.2254 -0.5447
12818TIP3    H259870   0.393   3.843   1.795  0.6654 -1.0111  0.8340
12819TIP3   OH259871   5.887   5.211   5.134 -0.3852 -0.4408  0.5709
12819TIP3    H159872   5.875   5.306   5.121  1.1330 -0.3822 -0.6164
12819TIP3    H259873   5.798   5.175   5.133 -0.9757  0.9703  0.9786
12820TIP3   OH259874   2.652   6.262  12.283 -0.4909  0.0789  0.1208
12820TIP3    H159875   2.559   6.283  12.274 -0.2091  1.1502 -0.3467
12820TIP3    H259876   2.688   6.278  12.196  0.3731  0.9055  0.6287
12821TIP3   OH259877   4.331   4.656  10.738 -0.1402 -0.0962 -0.7652
12821TIP3    H159878   4.422   4.637  10.715 -0.1369  0.7988 -1.5087
12821TIP3    H259879   4.297   4.705  10.663 -1.6929 -1.7798 -1.1782
12822TIP3   OH259880   2.605   5.049   0.584 -0.1014 -0.4709  0.6767
12822TIP3    H159881   2.580   4.967   0.627 -1.0772 -0.4632  0.1434
12822TIP3    H259882   2.635   5.106   0.655  0.9658 -1.4263  1.0050
12823TIP3   OH259883   5.641   1.859  11.275 -0.1735 -0.1014  0.3040
12823TIP3    H159884   5.681   1.823  11.196 -0.9027 -0.4657  0.0912
12823TIP3    H259885   5.671   1.802  11.346  1.5559  1.0269  0.4850
12824TIP3   OH259886   1.281   3.221   2.833  0.4808 -0.8157  0.0305
12824TIP3    H159887   1.190   3.213   2.804  0.4377 -0.7623  0.1499
12824TIP3    H259888   1.304   3.134   2.865  0.9405 -1.2045 -1.3566
12825TIP3   OH259889   6.346   1.375   2.527 -0.3354 -0.4006  0.4645
12825TIP3    H159890   6.389   1.311   2.471  1.0985  0.0298  1.0564
12825TIP3    H259891   6.256   1.378   2.495  0.3127 -0.5851 -1.4471
12826TIP3   OH259892   3.430   1.865  11.700 -0.6752 -0.4595 -0.2353
12826TIP3    H159893   3.398   1.835  11.615 -0.3774  0.3525 -0.6391
12826TIP3    H259894   3.523   1.844  11.699 -0.0888  2.0103 -1.2274
12827TIP3   OH259895   6.037   2.990   2.120 -0.5968  0.0670 -0.2799
12827TIP3    H159896   5.972   3.003   2.189  0.8625  1.6403  0.8278
12827TIP3    H259897   6.112   2.950   2.164 -0.2338 -0.3435 -1.2565
12828TIP3   OH259898   1.131   6.576   1.728  0.2407  0.3210 -0.2870
12828TIP3    H159899   1.076   6.584   1.650 -0.1472 -2.6708 -0.3598
12828TIP3    H259900   1.184   6.498   1.713  1.8762  1.0610  1.4138
12829TIP3   OH259901   6.602   0.866   5.686  0.1781  0.2818 -0.1552
12829TIP3    H159902   6.568   0.778   5.701 -0.3149  0.5072  0.0513
12829TIP3    H259903   6.524   0.919   5.672  0.5173  0.4856 -1.3638
12830TIP3   OH259904   0.753   6.220  11.713 -0.1564 -0.0582 -0.3755
12830TIP3    H159905   0.723   6.292  11.769 -2.1623 -1.5548  0.5208
12830TIP3    H259906   0.713   6.238  11.628 -0.8323 -0.2042 -0.0953
12831TIP3   OH259907   0.004   4.057  11.891  0.4708 -0.1706  0.4489
12831TIP3    H159908  -0.044   4.137  11.911 -0.9793 -0.4189 -1.9328
12831TIP3    H259909   0.096   4.081  11.904 -0.1100  1.0063  2.6137
12832TIP3   OH259910   5.772   0.208  13.672 -0.4470 -0.2147 -0.0051
12832TIP3    H159911   5.773   0.148  13.598 -0.3418  0.1005 -0.2574
12832TIP3    H259912   5.754   0.294  13.634  1.4483  0.2643  0.1075
12833TIP3   OH259913   2.799   4.954   1.130 -0.5901 -1.0845 -0.0671
12833TIP3    H159914   2.869   4.983   1.072  1.0044 -0.4869  2.1091
12833TIP3    H259915   2.779   4.865   1.100  0.2800 -0.8287 -1.4493
12834TIP3   OH259916   4.403   2.068  11.931  0.2695  0.1915  0.0666
12834TIP3    H159917   4.451   2.150  11.921  2.1552 -0.6817  1.6525
12834TIP3    H259918   4.424   2.019  11.852 -0.9856  1.2771 -0.9580
12835TIP3   OH259919   6.598   4.890  11.709  0.1139  0.5260 -0.0266
12835TIP3    H159920   6.651   4.912  11.633  0.2032 -1.6347 -0.6204
12835TIP3    H259921   6.622   4.955  11.775  0.7654  1.8070 -1.4904
12836TIP3   OH259922   6.403   6.385  12.949  0.3252  0.2193  0.6475
12836TIP3    H159923   6.373   6.458  12.895  1.5753  2.0211  2.3220
12836TIP3    H259924   6.497   6.380  12.931  0.4831 -0.0898  1.5583
12837TIP3   OH259925   2.715   4.937  14.500 -0.0054 -0.4099  0.3588
12837TIP3    H159926   2.719   4.873  14.571  0.6857 -0.7867 -0.0228
12837TIP3    H259927   2.761   4.896  14.427 -0.1911  0.2232 -0.1205
12838TIP3   OH259928   1.806   3.331  17.005 -0.1505 -0.0522  0.3473
12838TIP3    H159929   1.870   3.383  17.053 -0.5874  0.6844  0.1517
12838TIP3    H259930   1.737   3.394  16.983 -0.3295 -0.5528 -0.5461
12839TIP3   OH259931   3.903   0.882  15.070  0.1590 -0.1414  0.4101
12839TIP3    H159932   3.882   0.877  15.163 -1.3049  0.5967  0.1284
12839TIP3    H259933   3.987   0.836  15.062  0.2559 -0.2876  2.0701
12840TIP3   OH259934   0.819   5.680  13.245 -0.7790 -0.2081 -0.6032
12840TIP3    H159935   0.739   5.722  13.277 -1.8585 -0.5162 -2.7645
12840TIP3    H259936   0.805   5.671  13.151  1.7469 -0.4211 -1.0053
12841TIP3   OH259937   4.472   4.742  12.512  0.2612  0.7597  0.5598
12841TIP3    H159938   4.523   4.724  12.433 -1.4078  0.4205 -0.4550
12841TIP3    H259939   4.426   4.660  12.531  0.9149  0.7273  2.1018
12842TIP3   OH259940   1.860   3.903  11.680 -0.0608  0.3777 -0.2144
12842TIP3    H159941   1.863   3.890  11.774 -0.8126 -4.5161 -0.7281
12842TIP3    H259942   1.787   3.963  11.666 -1.8561 -1.1585  2.1723
12843TIP3   OH259943   3.977   1.676   6.437 -0.1375 -0.1238 -0.1122
12843TIP3    H159944   4.033   1.720   6.374 -1.2176  1.2959 -0.1032
12843TIP3    H259945   3.955   1.592   6.396  0.7182 -0.0194 -0.7844
12844TIP3   OH259946   6.410   0.435   4.357 -0.2138  0.3194  0.4392
12844TIP3    H159947   6.440   0.502   4.296  0.1491  0.8792  1.2235
12844TIP3    H259948   6.316   0.429   4.341 -0.0200  0.0171 -0.6050
12845TIP3   OH259949   2.386   5.411  15.414  0.7082 -0.1828 -0.3474
12845TIP3    H159950   2.303   5.457  15.416  1.1037  0.4930  1.6690
12845TIP3    H259951   2.375   5.344  15.346 -1.7030 -0.5382  0.3573
12846TIP3   OH259952   2.933   4.822   3.933  0.3824  0.2329 -0.1988
12846TIP3    H159953   2.972   4.777   4.009  1.3219 -1.9744 -1.9229
12846TIP3    H259954   2.870   4.883   3.971  1.0319 -0.6383  2.3838
12847TIP3   OH259955   2.787   6.026  16.077  0.3945 -0.2888 -0.3772
12847TIP3    H159956   2.864   6.035  16.021  0.0200 -0.5762 -0.9415
12847TIP3    H259957   2.808   5.953  16.135  0.6626 -0.1831 -0.3406
12848TIP3   OH259958   4.073   1.010  17.110  0.1081 -0.2964  0.4853
12848TIP3    H159959   4.036   1.000  17.197  0.3306  0.7560  0.7101
12848TIP3    H259960   4.008   1.062  17.062 -0.6233 -1.9619 -0.3833
12849TIP3   OH259961   3.115   5.456   2.726 -0.4179  0.0596 -0.1320
12849TIP3    H159962   3.055   5.530   2.722  1.0921  1.4675  2.1162
12849TIP3    H259963   3.174   5.470   2.652 -0.4985  0.8080 -0.0613
12850TIP3   OH259964   3.849   0.962   1.750  0.4446 -0.7108  0.0630
12850TIP3    H159965   3.813   0.916   1.826  0.2157  0.7567  0.8577
12850TIP3    H259966   3.914   1.022   1.786 -1.5053  1.8917 -0.5755
12851TIP3   OH259967   5.551   1.034  14.852 -0.2283  0.1473  0.4759
12851TIP3    H159968   5.633   1.021  14.899 -0.0648 -2.6494 -0.4546
12851TIP3    H259969   5.493   1.076  14.915  0.4511 -2.1451  2.7181
12852TIP3   OH259970   6.318   3.530   5.146 -0.2297  0.1102 -0.5814
12852TIP3    H159971   6.307   3.499   5.236 -0.8792 -3.1300 -1.7395
12852TIP3    H259972   6.351   3.620   5.156  0.1424 -0.3473  2.8720
12853TIP3   OH259973   5.702   1.077   1.903  0.2054  0.1722  0.4314
12853TIP3    H159974   5.757   1.118   1.837 -0.6088  0.4220 -0.1025
12853TIP3    H259975   5.613   1.108   1.883 -0.0818  0.0557  1.4868
12854TIP3   OH259976   1.532   2.279   0.299 -0.3832 -0.1550  0.1326
12854TIP3    H159977   1.599   2.318   0.355 -0.9460  0.3045  0.4881
12854TIP3    H259978   1.576   2.265   0.215 -0.3834  1.9659 -0.2465
12855TIP3   OH259979   0.051   1.798   1.939  0.1433 -0.4549 -0.3995
12855TIP3    H159980   0.011   1.784   1.853  0.8396  1.0028 -0.9620
12855TIP3    H259981   0.107   1.875   1.928 -0.1401  0.0423  1.4890
12856TIP3   OH259982   1.679   1.493   5.556 -0.6775  0.1244  0.3433
12856TIP3    H159983   1.632   1.442   5.622 -0.1258 -1.5128 -0.4809
12856TIP3    H259984   1.764   1.511   5.595  0.4727 -2.7093 -0.6569
12857TIP3   OH259985   5.097   4.991  11.481  0.1289  0.1578 -0.4537
12857TIP3    H159986   5.065   5.071  11.522  0.2654  0.1059 -0.2452
12857TIP3    H259987   5.105   4.929  11.554 -2.6122 -0.8940 -0.9991
12858TIP3   OH259988   6.365   2.153   2.983  0.1473 -0.4692 -0.1867
12858TIP3    H159989   6.318   2.075   3.009  0.4159 -0.2939  0.8305
12858TIP3    H259990   6.353   2.158   2.888 -3.4225  0.5812  0.2424
12859TIP3   OH259991   5.289   4.195  16.414  0.2162  0.3188  0.0805
12859TIP3    H159992   5.377   4.159  16.415 -0.1167 -0.5583 -1.0354
12859TIP3    H259993   5.299   4.284  16.448  1.1565 -0.5820  2.2181
12860TIP3   OH259994   0.457   3.483  15.795  0.2497 -0.2270  0.3184
12860TIP3    H159995   0.441   3.548  15.727 -1.8778 -1.0804 -0.0299
12860TIP3    H259996   0.546   3.453  15.778 -0.4078 -0.7783 -2.4023
12861TIP3   OH259997   2.416   6.000  16.011 -0.5447 -0.7537 -0.4470
12861TIP3    H159998   2.456   5.917  16.037 -0.0076  0.4653  2.7992
12861TIP3    H259999   2.469   6.029  15.937  1.6137 -1.5343  0.7451
12862TIP3   OH260000   3.715   6.783   0.416  1.0905  0.2925 -0.4039
12862TIP3    H160001   3.758   6.698   0.429 -0.2347 -0.6457 -1.8403
12862TIP3    H260002   3.725   6.800   0.322  0.6596  1.3375 -0.2634
12863TIP3   OH260003   3.753   2.038  14.542 -0.2632 -0.7854  0.2004
12863TIP3    H160004   3.708   1.963  14.504  0.8228 -1.6241  0.5339
12863TIP3    H260005   3.839   2.040  14.498 -0.9409  1.3559 -1.1200
12864TIP3   OH260006   1.507   1.210   4.485 -0.4320 -0.0314  0.7126
12864TIP3    H160007   1.550   1.280   4.534 -0.5672  0.8821 -0.4452
12864TIP3    H260008   1.414   1.223   4.500 -0.5233  0.7958 -0.4770
12865TIP3   OH260009   6.194   2.552   5.263 -0.5594  0.1082 -0.3835
12865TIP3    H160010   6.288   2.539   5.252 -0.5714  1.2552 -1.9452
12865TIP3    H260011   6.186   2.598   5.346  0.2258 -0.3132 -0.0666
12866TIP3   OH260012   5.758   2.772   5.374 -0.0709  0.2911 -0.0319
12866TIP3    H160013   5.803   2.762   5.289 -0.6904  1.9095 -0.5674
12866TIP3    H260014   5.793   2.701   5.428  0.0881 -0.9710 -1.7491
12867TIP3   OH260015   6.456   1.777  15.424  0.0843  0.4195  0.1273
12867TIP3    H160016   6.397   1.752  15.496  0.3617 -0.2474  0.1308
12867TIP3    H260017   6.399   1.781  15.347 -0.2886  1.5416  0.4572
12868TIP3   OH260018   0.328   0.110   1.180  0.3422 -0.2178  0.3884
12868TIP3    H160019   0.390   0.152   1.240  0.7208 -0.1312 -0.0638
12868TIP3    H260020   0.266   0.179   1.156  0.8760  0.0472 -0.2367
12869TIP3   OH260021   6.211   5.649   1.881  0.0604 -0.1575 -0.0886
12869TIP3    H160022   6.152   5.642   1.805 -0.0988 -0.3473  0.0525
12869TIP3    H260023   6.245   5.738   1.876 -0.4935  0.0629  0.0159
12870TIP3   OH260024   2.899   3.307   3.151 -0.1215  0.6659  0.0048
12870TIP3    H160025   2.845   3.232   3.175 -0.3631  0.9346  0.2989
12870TIP3    H260026   2.970   3.308   3.215 -0.7129  1.3253  0.6715
12871TIP3   OH260027   0.977   3.086   6.405  0.0121  0.2257  0.0309
12871TIP3    H160028   0.899   3.133   6.434  0.0454  0.4885 -0.3010
12871TIP3    H260029   0.992   3.021   6.473  0.1392  0.8879  0.6412
12872TIP3   OH260030   3.910   2.123   4.681  0.1537  0.3735  0.4678
12872TIP3    H160031   3.829   2.095   4.723 -1.1125  0.4630 -1.8246
12872TIP3    H260032   3.950   2.184   4.743 -2.0509  1.1096  1.2026
12873TIP3   OH260033   6.143   3.976  13.006  0.1008  0.1900 -0.1115
12873TIP3    H160034   6.228   4.000  13.042  1.0284  1.9266 -3.2467
12873TIP3    H260035   6.098   4.060  12.993 -1.2617 -0.5718 -0.4759
12874TIP3   OH260036   0.617   4.976  15.505  0.3414 -0.0142  0.1421
12874TIP3    H160037   0.595   5.045  15.443 -1.8770  0.2531  1.1914
12874TIP3    H260038   0.629   5.021  15.589  1.3379 -0.6150  0.3420
12875TIP3   OH260039   1.914   0.395  11.933  0.2910 -0.6279 -0.6197
12875TIP3    H160040   1.885   0.374  11.845 -0.5030 -0.7923 -0.3265
12875TIP3    H260041   2.009   0.392  11.929  0.2398 -1.3340 -1.2989
12876TIP3   OH260042   5.736   6.475   3.423 -0.2091  0.0049  0.2824
12876TIP3    H160043   5.829   6.485   3.446 -0.3351  0.3710  0.6261
12876TIP3    H260044   5.698   6.562   3.437 -0.5862 -0.1252  0.0630
12877TIP3   OH260045   1.724   0.857   1.400 -0.0206  0.2515 -0.7823
12877TIP3    H160046   1.818   0.869   1.413  0.1407 -0.0996 -1.6326
12877TIP3    H260047   1.713   0.764   1.381 -0.6571  0.0960  0.3016
12878TIP3   OH260048   2.909   0.302   0.794 -0.1218  0.3966 -0.0372
12878TIP3    H160049   2.972   0.235   0.819 -1.0314 -1.2252 -1.9125
12878TIP3    H260050   2.956   0.358   0.732 -0.1605 -0.1252 -0.5449
12879TIP3   OH260051   6.291   4.677  17.075 -0.7642 -0.0416  0.1112
12879TIP3    H160052   6.285   4.597  17.023 -0.1610  0.6006 -0.9512
12879TIP3    H260053   6.227   4.736  17.036 -1.5988 -0.1856  1.2344
12880TIP3   OH260054   4.663   5.926  14.819  0.5940 -0.2290 -0.2936
12880TIP3    H160055   4.737   5.927  14.757 -1.4835  1.4283 -2.8572
12880TIP3    H260056   4.647   6.018  14.839 -0.7154 -0.5723  0.3091
12881TIP3   OH260057   6.396   2.480   1.693 -0.1820  0.1004  1.0339
12881TIP3    H160058   6.301   2.468   1.693 -0.2457 -0.5659 -4.3559
12881TIP3    H260059   6.408   2.570   1.665  0.7264 -0.8618 -1.8360
12882TIP3   OH260060   0.849   1.366   4.134 -0.0260  0.0260  0.5345
12882TIP3    H160061   0.803   1.402   4.210  0.7372  0.7129  0.6848
12882TIP3    H260062   0.907   1.299   4.171 -0.9778 -0.9216  0.3321
12883TIP3   OH260063   6.017   5.631   1.671  0.0850  0.6755 -0.2145
12883TIP3    H160064   5.940   5.688   1.673  0.4371  1.1488 -0.0175
12883TIP3    H260065   5.983   5.547   1.640 -0.4913  0.9087 -0.2363
12884TIP3   OH260066   5.263   0.424  12.209 -0.0385 -0.4415 -0.2015
12884TIP3    H160067   5.337   0.417  12.148 -0.5344 -0.4295 -0.8045
12884TIP3    H260068   5.282   0.358  12.276  0.1044 -1.0193 -0.7975
12885TIP3   OH260069   5.714   6.295  14.463  0.3111 -0.3457  0.2287
12885TIP3    H160070   5.645   6.332  14.517 -0.4681 -0.8002 -0.4477
12885TIP3    H260071   5.794   6.309  14.513 -0.4899 -1.4140  1.8593
12886TIP3   OH260072   0.869   3.759   4.570 -0.1524  0.7981 -0.3152
12886TIP3    H160073   0.886   3.783   4.661  2.2033 -2.7806  0.2445
12886TIP3    H260074   0.947   3.787   4.522 -0.2365  0.2566 -0.7776
12887TIP3   OH260075   1.177   0.985  10.711  0.0460 -0.0450 -0.0674
12887TIP3    H160076   1.104   0.961  10.655  0.4874 -0.7535 -0.3506
12887TIP3    H260077   1.159   1.075  10.738 -1.3457 -0.5058  0.5443
12888TIP3   OH260078   4.943   3.412   6.185 -0.1600 -0.1472  0.0191
12888TIP3    H160079   4.865   3.371   6.147 -0.6545 -0.5661  1.4371
12888TIP3    H260080   5.002   3.339   6.203  1.8901  0.4157 -3.8579
12889TIP3   OH260081   1.439   2.805  16.483 -0.3922  0.3085 -0.1713
12889TIP3    H160082   1.408   2.895  16.497 -0.5704  0.4363 -1.3221
12889TIP3    H260083   1.384   2.751  16.539  0.0083  0.9632  0.8593
12890TIP3   OH260084   1.945   4.391  16.536  0.9588  0.2022  0.3290
12890TIP3    H160085   1.963   4.466  16.593  1.2621  0.1340  0.3281
12890TIP3    H260086   2.026   4.340  16.538  1.1145  0.4131 -0.4870
12891TIP3   OH260087   1.553   3.771   0.177 -0.0018 -0.1533  0.4283
12891TIP3    H160088   1.497   3.799   0.249  0.7998  1.8201  0.3425
12891TIP3    H260089   1.506   3.699   0.135 -1.2552 -0.2001  1.8972
12892TIP3   OH260090   0.100   2.370  15.237  0.9508 -0.0150 -0.3021
12892TIP3    H160091   0.070   2.304  15.174 -1.1287  0.1227  0.4810
12892TIP3    H260092   0.133   2.319  15.311 -2.0840 -0.2470  0.9572
12893TIP3   OH260093   3.584   2.198   5.194  0.0066 -0.0786  0.5882
12893TIP3    H160094   3.580   2.264   5.264 -0.6122 -0.3323  0.7888
12893TIP3    H260095   3.627   2.123   5.235 -0.5980 -0.3232  0.7678
12894TIP3   OH260096   5.049   6.476  12.517 -0.6002  0.1801  0.5383
12894TIP3    H160097   5.078   6.461  12.607 -1.0634 -0.0517  0.6497
12894TIP3    H260098   5.014   6.565  12.518 -0.1319  0.3638  0.4678
12895TIP3   OH260099   0.302   4.011   2.358 -0.5685  0.4426  0.0643
12895TIP3    H160100   0.213   4.043   2.354  0.6025  3.7420 -1.0999
12895TIP3    H260101   0.318   3.995   2.451 -2.4773 -0.5926  0.2341
12896TIP3   OH260102   0.086   5.877   0.440  0.4672  0.1301  0.0274
12896TIP3    H160103   0.159   5.940   0.442  1.7304 -1.2765 -0.8636
12896TIP3    H260104   0.008   5.931   0.430  1.5879  1.5266 -1.4392
12897TIP3   OH260105   0.671   5.650  11.722 -0.6127 -0.1155 -0.4078
12897TIP3    H160106   0.629   5.662  11.637 -1.1697 -2.5042 -0.5047
12897TIP3    H260107   0.607   5.684  11.785 -0.8951  0.1592 -0.8375
12898TIP3   OH260108   1.875   0.762   1.155 -0.0228 -0.6951  0.3912
12898TIP3    H160109   1.831   0.833   1.108 -2.9312 -0.6701  3.0457
12898TIP3    H260110   1.922   0.714   1.086 -0.2710  2.0997 -1.8361
12899TIP3   OH260111   6.716   5.758   0.976 -0.0337  0.3726  0.1186
12899TIP3    H160112   6.662   5.704   1.034  2.7509 -0.0695  2.3945
12899TIP3    H260113   6.774   5.695   0.933  0.6013  1.1650 -0.1858
12900TIP3   OH260114   0.880   5.314  15.329 -0.0773  0.2583  0.3129
12900TIP3    H160115   0.816   5.284  15.265 -0.1720  1.6735 -0.2801
12900TIP3    H260116   0.831   5.371  15.388  0.6670  1.5950 -0.3207
12901TIP3   OH260117   6.270   2.556  15.847  0.0352 -0.0920 -0.5035
12901TIP3    H160118   6.255   2.616  15.774  0.1055 -1.3415 -1.5755
12901TIP3    H260119   6.183   2.538  15.882 -0.0821 -0.1200 -0.8050
12902TIP3   OH260120   0.556   5.918  15.741  0.6556 -0.5002  0.1116
12902TIP3    H160121   0.467   5.922  15.708  0.7996  0.1659 -0.2108
12902TIP3    H260122   0.605   5.981  15.687  1.1118 -0.1708  0.8877
12903TIP3   OH260123   4.505   3.159  12.929 -0.2460 -0.1799  0.0873
12903TIP3    H160124   4.592   3.123  12.914  0.2186  1.1690 -0.4885
12903TIP3    H260125   4.511   3.202  13.014 -0.3160  0.0055 -0.0016
12904TIP3   OH260126   3.190   4.316  14.357 -0.0902 -0.2317 -0.8790
12904TIP3    H160127   3.172   4.409  14.367 -1.4986 -0.3607 -1.9519
12904TIP3    H260128   3.104   4.275  14.361  0.3833 -1.3455 -1.8448
12905TIP3   OH260129   0.447   2.590   3.020 -0.6079  0.5956  1.1141
12905TIP3    H160130   0.435   2.547   3.105  3.5581 -2.5784  0.2906
12905TIP3    H260131   0.406   2.530   2.958  1.7789 -0.3518  0.3624
12906TIP3   OH260132   6.158   0.434  15.607 -0.1217  0.0704 -0.0959
12906TIP3    H160133   6.112   0.473  15.533  1.4044 -0.2801 -1.2427
12906TIP3    H260134   6.237   0.487  15.618 -0.5020  0.3464  1.5360
12907TIP3   OH260135   1.820   4.209   4.885 -0.0851  0.3448 -0.0632
12907TIP3    H160136   1.875   4.254   4.821 -1.5643 -0.1924 -1.7882
12907TIP3    H260137   1.834   4.116   4.867  0.9881  0.1432  1.7379
12908TIP3   OH260138   5.393   1.983  12.971 -0.2479 -0.0688 -0.0343
12908TIP3    H160139   5.396   1.945  12.883  0.0794  3.4456 -1.6453
12908TIP3    H260140   5.299   1.997  12.988 -0.1909  1.2611 -0.7697
12909TIP3   OH260141   5.161   6.262  11.304  0.5160  0.2481  0.1114
12909TIP3    H160142   5.081   6.278  11.354  1.4279  1.4733  1.2286
12909TIP3    H260143   5.132   6.215  11.226 -1.8042  3.7262 -1.2462
12910TIP3   OH260144   6.289   4.703   2.829  0.3280 -0.3194  0.3667
12910TIP3    H160145   6.309   4.645   2.756  1.1438 -0.5913  0.7976
12910TIP3    H260146   6.203   4.740   2.808  0.9615  0.3257 -1.1802
12911TIP3   OH260147   1.650   4.098  16.497  0.3756 -0.4677  0.2776
12911TIP3    H160148   1.589   4.025  16.484 -1.5344  0.9803  0.8551
12911TIP3    H260149   1.720   4.062  16.551 -0.6130 -1.8206  0.6689
12912TIP3   OH260150   5.376   4.223   0.233  0.2491 -0.2388  0.2515
12912TIP3    H160151   5.338   4.279   0.301 -0.4236 -1.3256  0.7735
12912TIP3    H260152   5.302   4.199   0.178  0.4235 -1.1048  0.3837
12913TIP3   OH260153   1.238   4.865  14.750 -0.2094 -0.2987  0.4659
12913TIP3    H160154   1.225   4.857  14.844  1.0694 -0.7179  0.6235
12913TIP3    H260155   1.289   4.945  14.739 -0.4095 -0.2157  0.1241
12914TIP3   OH260156   3.558   6.519  15.170 -0.0580 -0.0138  0.2082
12914TIP3    H160157   3.622   6.516  15.241 -0.3824 -1.3337  0.4675
12914TIP3    H260158   3.493   6.583  15.198  2.2689  3.0349 -1.0547
12915TIP3   OH260159   1.697   2.535   0.103  0.1410 -0.0438  0.2025
12915TIP3    H160160   1.704   2.535   0.007  0.0282 -1.0599  0.1931
12915TIP3    H260161   1.632   2.468   0.123 -1.0496  1.3186  0.9157
12916TIP3   OH260162   4.521   6.045   0.950 -0.2073 -0.6984  0.6022
12916TIP3    H160163   4.560   5.959   0.965  0.4405 -0.3629  0.8559
12916TIP3    H260164   4.429   6.027   0.930  0.0782 -1.4988 -0.0155
12917TIP3   OH260165   4.350   5.231   2.788 -0.2168  0.2871 -0.3485
12917TIP3    H160166   4.409   5.179   2.733 -2.3458 -2.0909 -0.4543
12917TIP3    H260167   4.336   5.177   2.865 -1.2051  1.4222  0.2706
12918TIP3   OH260168   6.593   1.962  16.427 -0.0859  0.8738 -0.0888
12918TIP3    H160169   6.562   1.918  16.348  0.5706 -0.9269  0.6384
12918TIP3    H260170   6.514   1.973  16.480 -0.2165  0.3286 -0.1623
12919TIP3   OH260171   0.244   1.179  12.611  0.0696 -0.2314 -0.1074
12919TIP3    H160172   0.266   1.123  12.686 -1.4051  0.9971  1.2551
12919TIP3    H260173   0.327   1.222  12.589  0.1901  0.5952  1.8267
12920TIP3   OH260174   0.568   3.148   2.495  0.0877  0.1824  0.4027
12920TIP3    H160175   0.592   3.125   2.405 -1.7873  0.2698 -0.1438
12920TIP3    H260176   0.637   3.208   2.524 -0.2880  1.6618 -1.6710
12921TIP3   OH260177   6.063   2.198  15.177  1.0270  0.0138  0.0273
12921TIP3    H160178   6.121   2.207  15.253 -0.2850 -0.7170  1.1469
12921TIP3    H260179   6.118   2.159  15.109  1.8302 -0.7862  1.1124
12922TIP3   OH260180   2.404   4.295   5.534 -0.1188  0.0162  0.2720
12922TIP3    H160181   2.447   4.353   5.472  0.8682 -1.6202 -0.6154
12922TIP3    H260182   2.365   4.353   5.599  0.4760  1.6670 -0.8325
12923TIP3   OH260183   5.609   6.655   4.157 -0.1049 -1.1780 -0.1759
12923TIP3    H160184   5.549   6.727   4.178 -0.0796 -1.7026  1.7102
12923TIP3    H260185   5.597   6.642   4.062 -0.5221  0.9248 -0.4459
12924TIP3   OH260186   5.349   1.875  15.882 -0.2619  0.3565  0.0290
12924TIP3    H160187   5.279   1.868  15.817  0.3451 -0.1762 -0.5767
12924TIP3    H260188   5.304   1.896  15.964 -1.3161 -1.9408  0.0560
12925TIP3   OH260189   5.704   0.851   3.297 -0.1221  0.4193  0.3669
12925TIP3    H160190   5.787   0.897   3.287 -0.3241  0.6060 -0.5192
12925TIP3    H260191   5.638   0.919   3.282 -0.4270  0.0709  0.1342
12926TIP3   OH260192   3.849   0.235  11.837  0.3237 -0.3640 -0.4532
12926TIP3    H160193   3.929   0.282  11.859 -0.7299  2.1520 -1.7397
12926TIP3    H260194   3.789   0.255  11.909  0.2550 -0.6970 -0.4180
12927TIP3   OH260195   0.661   1.019   3.197 -0.4955  0.1025  0.2309
12927TIP3    H160196   0.574   1.027   3.158 -0.5187 -1.9206 -0.1772
12927TIP3    H260197   0.677   0.924   3.202  1.0733  0.4134  1.6547
12928TIP3   OH260198   0.386   1.060  11.254  0.1016 -0.0915  0.2068
12928TIP3    H160199   0.466   1.111  11.265 -1.5100  2.4378  0.5475
12928TIP3    H260200   0.335   1.108  11.188 -1.3895 -1.3547  0.4011
12929TIP3   OH260201   5.510   1.870   3.432  0.1290 -0.1235  0.3113
12929TIP3    H160202   5.466   1.785   3.425  1.1583 -0.6526  0.1003
12929TIP3    H260203   5.501   1.894   3.524 -1.1559  0.0838  0.1372
12930TIP3   OH260204   6.128   2.299  16.307  0.5313 -0.7462 -0.2548
12930TIP3    H160205   6.077   2.247  16.244 -1.1454 -1.4413  1.6433
12930TIP3    H260206   6.158   2.236  16.372  2.4750 -0.0674 -0.4592
12931TIP3   OH260207   3.399   0.794   3.234 -0.0417  0.3081  0.2078
12931TIP3    H160208   3.459   0.801   3.309 -1.1530  1.0250  1.0441
12931TIP3    H260209   3.314   0.821   3.269 -1.5251 -3.5659 -0.1822
12932TIP3   OH260210   5.701   1.312   1.340  0.9714  0.2173  0.6433
12932TIP3    H160211   5.697   1.408   1.344 -0.4942  0.3240 -2.2870
12932TIP3    H260212   5.628   1.283   1.394  0.9687  0.7621  0.9360
12933TIP3   OH260213   6.008   6.624  13.376 -0.0272 -0.5928 -0.5826
12933TIP3    H160214   5.987   6.552  13.435  0.9774 -0.1968  0.2686
12933TIP3    H260215   6.098   6.648  13.398  0.2506 -0.2305 -2.0607
12934TIP3   OH260216   5.752   3.012  12.985 -0.4230 -0.1955  0.2359
12934TIP3    H160217   5.683   3.034  13.047 -1.3203  0.4893 -0.9894
12934TIP3    H260218   5.730   2.924  12.954 -1.1335  0.2836 -0.6504
12935TIP3   OH260219   4.942   0.161  12.272  0.0742 -0.1449 -0.1960
12935TIP3    H160220   4.872   0.220  12.244 -0.2052 -0.0819  0.6239
12935TIP3    H260221   5.007   0.165  12.202  1.0195  2.6940  0.7867
12936TIP3   OH260222   1.187   3.667   4.511  0.0017  0.4950 -0.4323
12936TIP3    H160223   1.152   3.753   4.536 -1.7722 -0.7051  1.3820
12936TIP3    H260224   1.153   3.652   4.422 -1.8107  0.6026  0.2130
12937TIP3   OH260225   4.868   3.157  12.924  0.2406 -0.0676  0.0801
12937TIP3    H160226   4.856   3.249  12.947  1.5816  0.4140 -1.0600
12937TIP3    H260227   4.941   3.128  12.978 -1.0178 -0.8474  1.3956
12938TIP3   OH260228   5.351   3.327   2.875 -0.3395 -0.4709  0.0150
12938TIP3    H160229   5.265   3.337   2.835 -0.2831 -1.5875 -0.4041
12938TIP3    H260230   5.364   3.408   2.926 -0.9372  0.4029 -1.2116
12939TIP3   OH260231   0.354   3.175   1.301  0.1235  0.0023  0.4745
12939TIP3    H160232   0.428   3.117   1.282  0.9629  1.0706  0.4044
12939TIP3    H260233   0.346   3.173   1.396  0.5639  0.2523  0.5218
12940TIP3   OH260234   1.663   5.989   2.724  0.0360  0.4063 -0.5461
12940TIP3    H160235   1.697   5.962   2.638 -0.4035 -1.2271 -0.2353
12940TIP3    H260236   1.627   5.908   2.761 -0.6871  1.3167  0.7529
12941TIP3   OH260237   5.818   0.620   6.195  0.6327 -0.4013 -0.3711
12941TIP3    H160238   5.815   0.708   6.233  1.0153 -0.0746 -1.0856
12941TIP3    H260239   5.910   0.594   6.204  0.5880 -0.5904 -0.4715
12942TIP3   OH260240   4.788   1.263   3.719 -0.5746  0.0726  0.1242
12942TIP3    H160241   4.840   1.185   3.701 -2.7776 -1.3661 -0.0946
12942TIP3    H260242   4.731   1.238   3.792 -0.5963  1.8053  0.7333
12943TIP3   OH260243   6.207   6.445   3.095 -0.2546  0.5027 -0.3676
12943TIP3    H160244   6.237   6.493   3.018  0.3543  1.0174  0.1921
12943TIP3    H260245   6.227   6.502   3.169 -0.9073  0.0423  0.1700
12944TIP3   OH260246   2.241   4.500  11.865  0.0441 -0.1073  0.5716
12944TIP3    H160247   2.184   4.525  11.792 -1.0631  1.5429  1.9532
12944TIP3    H260248   2.329   4.494  11.826 -0.6593 -0.1280 -1.0560
12945TIP3   OH260249   5.704   6.290  16.985  0.4793 -0.6386 -0.2083
12945TIP3    H160250   5.754   6.318  17.062  1.0290 -0.6019 -0.5818
12945TIP3    H260251   5.617   6.268  17.020 -0.1190  1.9879  0.0158
12946TIP3   OH260252   6.648   4.502   4.783 -0.3599 -0.1393 -0.3368
12946TIP3    H160253   6.661   4.587   4.824  0.5380 -0.1117 -0.6618
12946TIP3    H260254   6.575   4.463   4.831  0.5642 -0.0491  1.1877
12947TIP3   OH260255   0.314   6.190  14.924  0.2027  0.5800 -0.3151
12947TIP3    H160256   0.354   6.179  15.011  0.7476  0.8599 -0.5294
12947TIP3    H260257   0.385   6.218  14.868  0.1749 -1.0161 -1.1972
12948TIP3   OH260258   1.386   0.277  11.357 -0.4758  0.2361  0.0421
12948TIP3    H160259   1.389   0.363  11.316 -0.9555 -0.5994 -1.8064
12948TIP3    H260260   1.295   0.264  11.382 -0.8678 -0.7046 -1.8404
12949TIP3   OH260261   0.400   0.495  15.900  0.4162  0.6399  0.1939
12949TIP3    H160262   0.456   0.565  15.865 -1.3024  1.3195 -1.3079
12949TIP3    H260263   0.404   0.426  15.834 -1.2570  1.1080 -0.4388
12950TIP3   OH260264   2.946   5.410  16.166 -0.4419 -0.1558  0.0340
12950TIP3    H160265   3.001   5.381  16.093 -1.1662 -2.0747  0.2082
12950TIP3    H260266   2.884   5.471  16.127 -1.1463 -1.5623 -1.0665
12951TIP3   OH260267   4.243   5.674  14.612  0.3638 -0.1786  0.5466
12951TIP3    H160268   4.318   5.703  14.663 -0.1395  0.1240  1.1195
12951TIP3    H260269   4.178   5.647  14.678 -0.7070  1.2461  0.0929
12952TIP3   OH260270   4.044   6.457  11.284  0.2529 -0.2150 -0.2654
12952TIP3    H160271   4.054   6.498  11.369  0.5797  0.6263 -0.7034
12952TIP3    H260272   3.954   6.477  11.258 -0.0785 -1.0716  0.1823
12953TIP3   OH260273   3.093   5.819  14.042 -0.2682 -0.1403  0.5696
12953TIP3    H160274   3.165   5.828  14.104 -0.9600 -2.7170  1.8143
12953TIP3    H260275   3.025   5.879  14.075  1.0278  1.8559 -0.2814
12954TIP3   OH260276   4.001   6.497  11.553 -0.5324  0.0232  0.1464
12954TIP3    H160277   3.912   6.477  11.581 -0.1842 -1.4662  0.2052
12954TIP3    H260278   4.026   6.572  11.607 -0.9984 -0.8579  1.6225
12955TIP3   OH260279   2.625   4.567  16.530 -0.2997 -0.2610  0.6239
12955TIP3    H160280   2.534   4.585  16.551 -0.2848  1.0342 -0.3330
12955TIP3    H260281   2.675   4.623  16.590 -0.2294  1.9672 -1.4114
12956TIP3   OH260282   3.882   3.617   0.831  0.1434 -0.7214  0.3104
12956TIP3    H160283   3.920   3.645   0.914 -1.1184 -2.0884  1.3786
12956TIP3    H260284   3.936   3.542   0.805  0.1361 -0.6959  0.2223
12957TIP3   OH260285   5.345   2.788  14.084  0.1247  0.5207 -0.5365
12957TIP3    H160286   5.314   2.820  14.168 -1.8112 -0.9824 -0.6465
12957TIP3    H260287   5.405   2.716  14.106 -1.6241 -0.9417 -0.4408
12958TIP3   OH260288   5.445   3.165  12.897 -0.3299 -0.5358  0.1078
12958TIP3    H160289   5.468   3.117  12.977  0.6555  0.4180  0.3954
12958TIP3    H260290   5.474   3.108  12.826  0.0057 -0.7752  0.4351
12959TIP3   OH260291   6.498   0.239  16.908 -0.2343 -0.4340  0.3371
12959TIP3    H160292   6.539   0.292  16.977 -0.0590 -0.0326 -0.0649
12959TIP3    H260293   6.476   0.303  16.840  2.2733 -1.1894 -1.2537
12960TIP3   OH260294   0.187   2.743   2.549  0.1255  0.2044  0.2598
12960TIP3    H160295   0.194   2.701   2.635 -0.4563 -1.9024 -0.6832
12960TIP3    H260296   0.141   2.825   2.566  1.7964  0.7787  2.2468
12961TIP3   OH260297   6.771   0.489  14.794  0.2746  0.3968 -0.5345
12961TIP3    H160298   6.799   0.431  14.864 -1.6125  1.2827  1.0256
12961TIP3    H260299   6.775   0.435  14.715  0.9946 -1.0704  0.4801
12962TIP3   OH260300   6.223   4.192  15.732  0.2100 -0.0007  0.0885
12962TIP3    H160301   6.222   4.275  15.779 -1.4833 -0.1835  0.4211
12962TIP3    H260302   6.228   4.126  15.801  1.4594 -0.1977 -0.1732
12963TIP3   OH260303   1.269   3.584   6.148  0.1671 -0.1155 -0.0234
12963TIP3    H160304   1.292   3.578   6.055 -1.4956  1.8855 -0.6257
12963TIP3    H260305   1.180   3.550   6.153  0.5302 -0.9474  0.9903
12964TIP3   OH260306   3.100   6.381  12.229  0.1176  0.0696 -0.2169
12964TIP3    H160307   3.067   6.386  12.140 -1.0163  1.4687  0.2473
12964TIP3    H260308   3.044   6.316  12.272  0.8039 -0.7594 -0.5925
12965TIP3   OH260309   1.587   4.502  12.333  0.0008  0.0464  0.1109
12965TIP3    H160310   1.634   4.519  12.415  0.7164 -0.1306 -0.2613
12965TIP3    H260311   1.569   4.588  12.297 -0.5442  0.1331  0.5814
12966TIP3   OH260312   5.567   2.515   4.004 -0.3716 -0.4701  0.0214
12966TIP3    H160313   5.627   2.478   3.940  0.2581 -0.2805  0.4923
12966TIP3    H260314   5.480   2.494   3.971 -0.0806  0.6845 -1.5271
12967TIP3   OH260315   6.219   5.119  16.368 -0.1508 -0.3844  0.1095
12967TIP3    H160316   6.171   5.201  16.381  0.8971  0.5224 -1.5317
12967TIP3    H260317   6.173   5.077  16.295 -0.0979 -0.7959  0.3157
12968TIP3   OH260318   1.198   3.638   4.196 -0.0200  0.0066 -0.4792
12968TIP3    H160319   1.274   3.619   4.142 -0.3567  0.1864 -1.0212
12968TIP3    H260320   1.125   3.591   4.155 -0.2748  0.1256 -0.1751
12969TIP3   OH260321   1.562   6.434   5.053  0.0727  0.3263 -0.0254
12969TIP3    H160322   1.516   6.499   4.998 -0.1505 -0.2543 -0.5311
12969TIP3    H260323   1.551   6.351   5.006 -0.8631 -0.3411  1.3492
12970TIP3   OH260324   4.282   1.789  11.255  0.0419 -0.2763 -0.0040
12970TIP3    H160325   4.369   1.792  11.215  0.4185  0.4031  0.8492
12970TIP3    H260326   4.226   1.834  11.193  0.6781  1.0382  0.3488
12971TIP3   OH260327   1.193   5.634   2.020 -0.3188  0.2136  0.6504
12971TIP3    H160328   1.261   5.574   2.051  1.1015  1.6545  0.4060
12971TIP3    H260329   1.218   5.719   2.056  0.2041  1.5283 -2.6879
12972TIP3   OH260330   3.482   3.858  11.886 -0.0454  0.5962  0.1075
12972TIP3    H160331   3.537   3.936  11.883 -0.2021  0.7413  1.0653
12972TIP3    H260332   3.469   3.841  11.979  0.3254 -0.8105 -0.0822
12973TIP3   OH260333   4.148   3.185  12.077  0.3135 -0.1862 -0.0815
12973TIP3    H160334   4.116   3.235  12.002  0.2637 -0.8433 -0.4960
12973TIP3    H260335   4.111   3.098  12.067 -0.6065  0.0236  1.3102
12974TIP3   OH260336   5.039   3.382  16.889  0.8049 -0.6194  0.4881
12974TIP3    H160337   4.956   3.341  16.912  0.7600  0.3710  2.1997
12974TIP3    H260338   5.044   3.460  16.945  1.7760  0.6527 -1.3148
12975TIP3   OH260339   4.339   5.558   3.518 -0.6479 -0.0848 -0.0021
12975TIP3    H160340   4.332   5.535   3.426 -0.9643  1.8929 -0.4964
12975TIP3    H260341   4.314   5.478   3.565  2.2330 -1.9815 -1.5586
12976TIP3   OH260342   5.936   0.394  15.236 -0.1724  0.0398 -0.1394
12976TIP3    H160343   5.895   0.335  15.172 -1.2081  0.2317  0.3408
12976TIP3    H260344   5.928   0.348  15.320 -0.3291  0.5469  0.1230
12977TIP3   OH260345   6.491   3.106  13.131  0.0939  0.3440  0.3925
12977TIP3    H160346   6.543   3.122  13.052 -0.2187 -2.2970 -0.4134
12977TIP3    H260347   6.439   3.185  13.143  0.1954  0.8142 -2.0249
12978TIP3   OH260348   2.239   1.618  14.992  0.0777 -0.4027 -0.4072
12978TIP3    H160349   2.251   1.712  15.008 -0.6031 -0.1084 -1.5473
12978TIP3    H260350   2.145   1.604  15.003  0.1664 -0.9265 -0.3297
12979TIP3   OH260351   3.290   4.493  10.766 -0.1465  0.6570 -0.1825
12979TIP3    H160352   3.278   4.399  10.758 -0.8918  0.7783 -0.5484
12979TIP3    H260353   3.380   4.508  10.739  0.0037  0.0356 -0.0305
12980TIP3   OH260354   2.168   3.879  11.603 -0.2138  0.1005  0.2911
12980TIP3    H160355   2.085   3.909  11.641  0.4018  0.6212  1.2279
12980TIP3    H260356   2.228   3.873  11.677  0.7708  0.3417 -0.4775
12981TIP3   OH260357   4.266   5.094   3.976  0.5463  0.2895  0.1242
12981TIP3    H160358   4.216   5.171   3.951 -0.4856 -0.3003  0.3410
12981TIP3    H260359   4.356   5.126   3.987 -0.0472  1.6416  1.1355
12982TIP3   OH260360   5.294   3.207  14.884 -0.0007  0.7506  0.2025
12982TIP3    H160361   5.285   3.113  14.899  0.0432  0.8733  1.0195
12982TIP3    H260362   5.258   3.221  14.796 -0.6467  0.0766  0.3584
12983TIP3   OH260363   4.718   0.425   4.561 -0.0927 -0.0836 -0.2826
12983TIP3    H160364   4.696   0.346   4.610 -0.8911  1.5464  2.0525
12983TIP3    H260365   4.639   0.445   4.511 -0.6136  0.3506  0.6957
12984TIP3   OH260366   5.159   1.096   4.330 -0.0181 -1.3161 -0.1325
12984TIP3    H160367   5.089   1.157   4.307  0.8935 -0.4362 -0.6160
12984TIP3    H260368   5.133   1.060   4.415 -0.4710 -0.1153  0.2406
12985TIP3   OH260369   5.259   6.589   5.125  0.4336  0.1849 -0.4137
12985TIP3    H160370   5.313   6.574   5.203 -0.5071 -1.0498  0.0255
12985TIP3    H260371   5.252   6.684   5.119 -0.2383  0.2944  1.5715
12986TIP3   OH260372   4.485   3.312  13.144  0.0766  0.1034 -0.2288
12986TIP3    H160373   4.422   3.285  13.211 -0.3058 -1.1215 -1.0501
12986TIP3    H260374   4.536   3.382  13.185  0.0596 -0.8342  1.4606
12987TIP3   OH260375   4.914   3.009  14.708  0.1112  0.2360  0.0362
12987TIP3    H160376   4.909   2.929  14.761 -1.9133  1.0907  1.1868
12987TIP3    H260377   4.947   3.075  14.769 -1.9642  1.1600  0.1972
12988TIP3   OH260378   3.035   4.339  13.142 -0.4356 -0.2469 -0.3972
12988TIP3    H160379   2.958   4.287  13.167 -1.3940  1.0113 -0.7014
12988TIP3    H260380   3.000   4.425  13.121  1.0965  0.3994 -0.3414
12989TIP3   OH260381   0.480   0.071   2.640  0.0999 -0.3780  0.0476
12989TIP3    H160382   0.514   0.028   2.719  2.0493  1.0848  0.0614
12989TIP3    H260383   0.468   0.162   2.667 -0.1768 -0.0818 -1.0595
12990TIP3   OH260384   6.589   0.486   0.792  0.1523 -0.1436 -0.0096
12990TIP3    H160385   6.653   0.436   0.844  1.3117  2.7208  1.4631
12990TIP3    H260386   6.504   0.446   0.814  0.9598 -1.0221  1.6588
12991TIP3   OH260387   5.053   5.360  14.987  0.5255 -0.2568 -0.1010
12991TIP3    H160388   5.128   5.332  14.934  0.7240 -0.6639  0.4008
12991TIP3    H260389   5.067   5.454  15.000  0.2466 -0.0555 -1.1481
12992TIP3   OH260390   1.292   3.227  14.046  0.1860 -0.3007 -0.1509
12992TIP3    H160391   1.342   3.151  14.077  0.3899  0.5566  1.7059
12992TIP3    H260392   1.358   3.293  14.027 -0.1178  0.1503  0.3578
12993TIP3   OH260393   3.526   1.728  16.638 -0.3958  0.1158 -0.0469
12993TIP3    H160394   3.533   1.689  16.725  2.0914 -0.5395 -0.5053
12993TIP3    H260395   3.594   1.684  16.586 -0.0816  2.3619 -1.6063
12994TIP3   OH260396   6.305   2.810  16.788  0.0027  0.2564  0.6003
12994TIP3    H160397   6.287   2.785  16.878 -1.2815 -1.3378 -0.0762
12994TIP3    H260398   6.226   2.855  16.759 -0.0540 -0.3018 -0.1141
12995TIP3   OH260399   4.695   2.004   2.883  0.3286 -0.1665  0.5835
12995TIP3    H160400   4.631   1.947   2.925  0.3366  1.0933  2.4017
12995TIP3    H260401   4.678   2.090   2.920  1.3028  0.7215 -0.9708
12996TIP3   OH260402   5.692   5.204   4.234 -0.3327 -0.3641  0.0301
12996TIP3    H160403   5.685   5.272   4.301 -0.9506  1.9248 -2.3090
12996TIP3    H260404   5.735   5.246   4.160 -2.1513 -2.0505 -2.0625
12997TIP3   OH260405   0.058   0.724  16.141 -0.0234  0.4098 -0.1843
12997TIP3    H160406   0.078   0.701  16.231  0.7448  0.1803 -0.4050
12997TIP3    H260407  -0.028   0.687  16.125 -0.4545  1.0464  0.6647
12998TIP3   OH260408   2.952   4.975  11.530 -0.4038 -0.2856  0.1048
12998TIP3    H160409   3.039   4.937  11.544  0.3755  0.8901 -1.3659
12998TIP3    H260410   2.896   4.931  11.594  1.5564 -0.1016  2.0279
12999TIP3   OH260411   5.021   3.122   4.534 -0.1759 -0.3531 -0.2912
12999TIP3    H160412   5.073   3.073   4.471  0.3670 -1.1303  0.7319
12999TIP3    H260413   4.956   3.059   4.565 -1.0264  0.2892 -0.7448
13000TIP3   OH260414   1.313   1.531  15.010 -0.5481 -0.2572 -0.4634
13000TIP3    H160415   1.246   1.523  15.079 -0.5434  0.0519 -0.4200
13000TIP3    H260416   1.301   1.454  14.955 -0.7713 -0.3343 -0.3059
13001TIP3   OH260417   5.773   6.095  14.855  0.5470 -0.7610 -0.1307
13001TIP3    H160418   5.811   6.008  14.845 -0.9548 -1.3249 -1.0729
13001TIP3    H260419   5.698   6.096  14.796 -0.5377  0.5418  1.2175
13002TIP3   OH260420   3.534   1.550   3.615  0.1234 -0.6214 -0.4881
13002TIP3    H160421   3.539   1.496   3.536 -2.5923  1.8122 -2.3928
13002TIP3    H260422   3.590   1.625   3.597 -1.1343  0.3333 -0.4192
13003TIP3   OH260423   2.216   3.989   2.590  0.3824 -0.1284 -0.0670
13003TIP3    H160424   2.243   4.079   2.611  1.3966 -0.3317 -0.4866
13003TIP3    H260425   2.134   3.977   2.638  0.6951  0.7243  0.7022
13004TIP3   OH260426   3.332   1.600  11.270  1.0810 -0.0484 -0.0083
13004TIP3    H160427   3.286   1.526  11.310  1.1432  0.3328  0.7771
13004TIP3    H260428   3.294   1.607  11.182  2.8335 -2.6181 -1.0399
13005TIP3   OH260429   1.895   0.716   5.524 -0.2461 -0.1946  0.0168
13005TIP3    H160430   1.889   0.626   5.492  0.4707  0.3356 -1.6848
13005TIP3    H260431   1.804   0.741   5.542 -0.3446 -1.6102  1.5828
13006TIP3   OH260432   1.052   0.235  12.133  0.2345 -0.3402 -0.3843
13006TIP3    H160433   1.114   0.298  12.096  0.3828  0.5260  1.3113
13006TIP3    H260434   1.105   0.178  12.188 -0.0888 -1.2172 -0.9650
13007TIP3   OH260435   3.656   4.411  13.495 -0.0186  0.3268 -0.3142
13007TIP3    H160436   3.673   4.383  13.405 -3.8841 -0.9988 -0.7615
13007TIP3    H260437   3.603   4.490  13.486  2.7697  2.3903  0.8912
13008TIP3   OH260438   4.261   4.114   1.265  0.2629  0.2344  0.1823
13008TIP3    H160439   4.279   4.075   1.180 -0.0784  2.1142 -0.7987
13008TIP3    H260440   4.347   4.126   1.305  0.5609  0.9150 -0.6441
13009TIP3   OH260441   2.394   3.127  16.065  0.1377 -0.1744  0.5215
13009TIP3    H160442   2.396   3.221  16.052  1.1603 -0.1896  0.5034
13009TIP3    H260443   2.475   3.095  16.025 -0.0299 -1.0159  0.8315
13010TIP3   OH260444   0.988   3.059   1.276 -0.3371  0.0516 -0.5242
13010TIP3    H160445   1.072   3.067   1.230 -0.7620  0.1275 -1.2957
13010TIP3    H260446   0.963   3.148   1.297 -0.3656  0.0534 -0.5627
13011TIP3   OH260447   5.128   1.073  14.141 -0.3382  0.2971 -0.8361
13011TIP3    H160448   5.218   1.097  14.161 -0.2715 -1.6552  1.3828
13011TIP3    H260449   5.075   1.140  14.184 -0.0044 -0.1219  0.2464
13012TIP3   OH260450   4.511   3.357   0.306  0.3379  0.3323 -0.2666
13012TIP3    H160451   4.468   3.347   0.221 -0.7171 -0.7790  0.3753
13012TIP3    H260452   4.604   3.351   0.286  0.1516  1.2335 -1.4925
13013TIP3   OH260453   6.276   3.340  11.642  0.1351  0.4490 -0.4587
13013TIP3    H160454   6.243   3.428  11.624  0.9800  0.7108 -0.8005
13013TIP3    H260455   6.372   3.350  11.642  0.2364  0.1308  2.5119
13014TIP3   OH260456   0.518   5.844  10.644 -0.0034 -0.5079  0.1604
13014TIP3    H160457   0.490   5.926  10.603  0.1931 -0.2874  0.4750
13014TIP3    H260458   0.590   5.868  10.702  0.7526 -1.0506 -0.5316
13015TIP3   OH260459   4.784   2.402  14.357 -0.1154 -0.4435  0.9502
13015TIP3    H160460   4.790   2.313  14.322  1.7159 -0.5378  1.4450
13015TIP3    H260461   4.691   2.413  14.379 -0.9974 -1.0029 -2.2435
13016TIP3   OH260462   1.051   4.123  11.313 -0.0321 -0.4421 -0.1663
13016TIP3    H160463   0.998   4.172  11.250  0.3993 -0.8502 -0.8506
13016TIP3    H260464   1.141   4.135  11.284  0.1539 -0.8230  0.2420
13017TIP3   OH260465   1.780   3.207   3.096 -0.3112 -0.0903 -0.4450
13017TIP3    H160466   1.691   3.214   3.130 -0.1370  1.6544 -0.2972
13017TIP3    H260467   1.775   3.246   3.009  0.6865  1.7445  0.2949
13018TIP3   OH260468   5.619   2.049   6.085  0.9572  0.1942 -0.4595
13018TIP3    H160469   5.664   2.126   6.118  0.7517  0.6361 -1.1996
13018TIP3    H260470   5.531   2.080   6.062  0.2535 -0.6551  0.9729
13019TIP3   OH260471   5.350   0.284   1.008 -0.6453 -0.2856  0.3018
13019TIP3    H160472   5.347   0.380   1.009 -1.0394 -0.2458 -2.0200
13019TIP3    H260473   5.442   0.263   1.026  0.0005  0.6289 -1.7277
13020TIP3   OH260474   2.986   2.772   0.291  0.1348  0.4476 -0.2326
13020TIP3    H160475   2.990   2.814   0.376  0.7706  1.7411 -0.8806
13020TIP3    H260476   3.074   2.736   0.278  0.2949  0.9884 -0.6924
13021TIP3   OH260477   3.664   1.799   4.224  0.0905  0.1391 -0.4013
13021TIP3    H160478   3.599   1.834   4.163 -0.4189  0.5674  0.3859
13021TIP3    H260479   3.622   1.721   4.262  0.0741  0.3603  0.0342
13022TIP3   OH260480   3.123   2.763   3.547  0.1330  0.0962  0.0873
13022TIP3    H160481   3.115   2.742   3.640 -0.7055 -0.8266 -0.1838
13022TIP3    H260482   3.102   2.681   3.502 -0.2607  0.7410 -0.9297
13023TIP3   OH260483   4.656   3.481   5.099  0.0561  0.4859  0.1773
13023TIP3    H160484   4.655   3.536   5.020 -0.4002  0.4399  0.1478
13023TIP3    H260485   4.723   3.520   5.154  1.1288 -0.1165 -0.6800
13024TIP3   OH260486   4.495   5.739   0.071 -0.0402  0.3448  0.2905
13024TIP3    H160487   4.428   5.790   0.026  0.1364 -1.1908 -1.7473
13024TIP3    H260488   4.575   5.791   0.062  0.0123  0.0219 -1.2732
13025TIP3   OH260489   0.546   4.174  12.753 -0.0221  0.0526 -0.3305
13025TIP3    H160490   0.513   4.264  12.758 -0.0203  0.0306  0.0968
13025TIP3    H260491   0.599   4.164  12.833 -0.9845 -0.7062  0.2182
13026TIP3   OH260492   6.161   2.905  10.701  0.6106 -0.1465 -0.2113
13026TIP3    H160493   6.153   2.936  10.792  1.8359  0.5409 -0.3208
13026TIP3    H260494   6.154   2.810  10.707  3.3872 -0.3300  0.9626
13027TIP3   OH260495   1.087   6.207  17.201 -0.6309 -0.9082  0.0224
13027TIP3    H160496   1.162   6.147  17.202 -0.5938 -0.8716 -0.6571
13027TIP3    H260497   1.074   6.228  17.109  0.1144  1.0735  0.3522
13028TIP3   OH260498   5.803   0.946   1.032  0.2657 -0.5677 -0.0006
13028TIP3    H160499   5.726   0.973   1.081  1.7999  1.8111  1.1855
13028TIP3    H260500   5.780   0.962   0.941 -0.4277  0.6673  0.3811
13029TIP3   OH260501   1.350   3.636  12.557  0.7294  0.8213  0.2763
13029TIP3    H160502   1.298   3.566  12.517 -2.0766  2.2566  1.2424
13029TIP3    H260503   1.299   3.662  12.634  0.9711  4.8417 -0.8065
13030TIP3   OH260504   6.126   1.489  16.801  0.0462  0.2329  0.4283
13030TIP3    H160505   6.204   1.444  16.769 -1.5083 -1.1625 -1.5005
13030TIP3    H260506   6.122   1.569  16.748  0.5227  0.6383  0.9973
13031TIP3   OH260507   3.808   4.462  10.792  0.1319  0.3008 -0.0891
13031TIP3    H160508   3.813   4.382  10.845 -1.7448  2.1504  2.9713
13031TIP3    H260509   3.732   4.448  10.736  1.9847 -1.5605 -2.2709
13032TIP3   OH260510   3.336   4.530   5.451 -0.8402  0.2586  0.0837
13032TIP3    H160511   3.260   4.507   5.397 -0.9627 -0.3421  0.5029
13032TIP3    H260512   3.396   4.456   5.440  0.0333  1.0997 -0.8794
13033TIP3   OH260513   4.506   4.011   6.430  0.0254 -0.2827 -0.3598
13033TIP3    H160514   4.477   3.923   6.451  2.1728 -0.6949  1.0380
13033TIP3    H260515   4.501   4.059   6.514 -2.8218  1.4484 -1.4480
13034TIP3   OH260516   0.608   3.293  13.453 -0.1583  0.3747  0.0743
13034TIP3    H160517   0.661   3.221  13.489  0.5852  1.0247  0.2846
13034TIP3    H260518   0.536   3.249  13.409 -0.2248 -0.4775  1.0212
13035TIP3   OH260519   6.545   1.473   3.872  0.1113  0.3613  0.4476
13035TIP3    H160520   6.468   1.462   3.817  0.1569 -1.2997  0.6931
13035TIP3    H260521   6.558   1.567   3.877 -0.8515  0.5846 -1.0589
13036TIP3   OH260522   6.522   2.781  14.049  0.2649 -0.3364  0.4628
13036TIP3    H160523   6.489   2.814  13.965  2.8105 -1.9278 -1.2195
13036TIP3    H260524   6.570   2.855  14.086 -0.9307  0.3982  0.5769
13037TIP3   OH260525   2.412   3.931   0.350  0.8299 -0.1912  0.6893
13037TIP3    H160526   2.471   3.870   0.394  0.0011 -1.1362  0.5070
13037TIP3    H260527   2.393   3.889   0.266 -0.2399  0.0238  0.8205
13038TIP3   OH260528   1.743   2.690   4.362  0.1454 -0.1171  0.1698
13038TIP3    H160529   1.731   2.757   4.429 -0.9248 -1.9047  1.8246
13038TIP3    H260530   1.654   2.662   4.340  0.5968 -1.1207 -0.4037
13039TIP3   OH260531   0.495   1.788  13.636  0.0966  0.3997 -0.0497
13039TIP3    H160532   0.418   1.835  13.604 -0.5243  0.9496  2.1282
13039TIP3    H260533   0.543   1.852  13.688  0.5382 -0.6707  0.9023
13040TIP3   OH260534   5.095   4.932   5.711 -0.7773  0.1259 -0.2415
13040TIP3    H160535   5.097   4.969   5.799 -2.3311 -2.3822  0.9158
13040TIP3    H260536   5.171   4.875   5.706 -0.7611  0.1659 -0.4728
13041TIP3   OH260537   0.715   4.613   3.201  0.5027 -0.3069 -0.5141
13041TIP3    H160538   0.723   4.628   3.295  1.9595 -2.3327 -0.2760
13041TIP3    H260539   0.620   4.604   3.187  0.1894  1.0269  0.5627
13042TIP3   OH260540   6.316   2.851   3.475 -0.3001 -0.1399  0.3105
13042TIP3    H160541   6.295   2.889   3.561 -0.9767  0.7875 -0.2475
13042TIP3    H260542   6.239   2.872   3.421  0.7709  0.6487 -0.9417
13043TIP3   OH260543   1.872   3.704   2.318  0.7618 -0.1451 -0.3704
13043TIP3    H160544   1.907   3.672   2.402 -0.9438 -0.2946  0.3144
13043TIP3    H260545   1.907   3.792   2.309  1.9774 -0.5966 -0.1184
13044TIP3   OH260546   5.653   1.672  16.729 -0.2147  0.5218 -0.0861
13044TIP3    H160547   5.649   1.609  16.657 -0.1462  0.2719  0.1306
13044TIP3    H260548   5.747   1.692  16.738  0.0336 -1.1894  1.4514
13045TIP3   OH260549   6.013   2.373  11.720 -0.0021 -0.3167 -0.6039
13045TIP3    H160550   6.064   2.445  11.757 -0.2006 -1.1425  1.3308
13045TIP3    H260551   5.987   2.404  11.633  1.9839  0.9484 -0.7740
13046TIP3   OH260552   0.420   5.577  11.481  0.3541 -0.1690 -0.3289
13046TIP3    H160553   0.343   5.593  11.426  0.2944 -0.7643 -0.4184
13046TIP3    H260554   0.411   5.640  11.553 -0.0738 -0.0471 -0.4887
13047TIP3   OH260555   2.970   0.313  16.356 -0.3347  0.3489  0.5249
13047TIP3    H160556   2.963   0.227  16.398 -2.2131 -0.3467 -1.1497
13047TIP3    H260557   3.008   0.294  16.270  1.7412  1.5398  1.1519
13048TIP3   OH260558   4.882   3.479  11.098  0.3972 -0.4377  0.3898
13048TIP3    H160559   4.866   3.521  11.013 -0.5132 -0.7215  0.4173
13048TIP3    H260560   4.795   3.462  11.133  0.7152 -3.6736 -0.2689
13049TIP3   OH260561   5.508   2.335   5.092  0.2059  0.3007 -0.5913
13049TIP3    H160562   5.563   2.259   5.112 -1.0514 -0.4642  0.0768
13049TIP3    H260563   5.567   2.399   5.053  1.5095 -0.5878 -0.0855
13050TIP3   OH260564   4.578   6.186   3.853 -0.0295 -0.4450  0.1835
13050TIP3    H160565   4.492   6.191   3.896  0.3224  2.5349  0.5900
13050TIP3    H260566   4.562   6.130   3.776 -1.8358 -1.6374  1.3778
13051TIP3   OH260567   1.994   3.594   2.543  0.1947 -0.1129 -0.2133
13051TIP3    H160568   2.072   3.542   2.564  0.0044 -0.1155  0.5015
13051TIP3    H260569   1.997   3.668   2.604 -0.2440  0.0102 -0.3371
13052TIP3   OH260570   3.683   6.475   0.262  0.0232  0.4129  0.4630
13052TIP3    H160571   3.666   6.510   0.175 -0.6120  0.1519  0.4792
13052TIP3    H260572   3.769   6.434   0.255  0.4458  1.3227  0.2502
13053TIP3   OH260573   5.083   5.629  15.075  0.8396  0.4990  0.4529
13053TIP3    H160574   5.115   5.644  15.164 -1.9213  0.4654  1.5111
13053TIP3    H260575   5.059   5.717  15.043 -0.8009  0.2200  0.8390
13054TIP3   OH260576   0.168   1.075  12.021  0.2156  0.8948  0.1131
13054TIP3    H160577   0.113   1.145  12.056 -0.3058  0.1830  0.7396
13054TIP3    H260578   0.238   1.065  12.086 -1.2335 -1.0157  1.4216
13055TIP3   OH260579   4.771   1.151  13.887  0.2433 -0.1178  0.2544
13055TIP3    H160580   4.858   1.129  13.853 -0.0387 -0.6013 -0.1650
13055TIP3    H260581   4.772   1.120  13.977  0.4420 -0.2889  0.1931
13056TIP3   OH260582   6.541   3.344   2.567  0.0396 -0.3738 -0.3907
13056TIP3    H160583   6.570   3.317   2.655 -0.2812 -1.8453 -0.7162
13056TIP3    H260584   6.469   3.404   2.584  0.8978  0.4597  0.3728
13057TIP3   OH260585   1.464   4.532   5.435 -0.0509 -0.3241  0.3668
13057TIP3    H160586   1.471   4.624   5.462 -1.5413 -0.7494  2.2946
13057TIP3    H260587   1.374   4.523   5.403 -0.3728 -1.4258  1.5159
13058TIP3   OH260588   0.735   0.043  15.014  0.2333  0.2681  0.2685
13058TIP3    H160589   0.760   0.131  14.987 -3.5481  1.1089 -0.6706
13058TIP3    H260590   0.688   0.056  15.096  0.2906 -0.9728  0.5085
13059TIP3   OH260591   6.107   6.594   1.790  0.1000  0.2645 -0.0912
13059TIP3    H160592   6.052   6.601   1.711 -1.2473 -0.2004  0.7902
13059TIP3    H260593   6.159   6.515   1.776 -0.3029  0.0561 -0.4167
13060TIP3   OH260594   2.097   2.747   1.460  0.1351  0.8484 -0.0324
13060TIP3    H160595   2.164   2.783   1.518 -0.3470  0.5405  0.7265
13060TIP3    H260596   2.141   2.676   1.413 -0.3331 -1.1213  2.3872
13061TIP3   OH260597   6.081   4.773  15.919  0.0261 -0.0411 -0.1070
13061TIP3    H160598   5.996   4.807  15.947  0.5049  0.3900  0.8554
13061TIP3    H260599   6.110   4.833  15.851 -0.1644  0.1654 -0.0059
13062TIP3   OH260600   5.867   0.682  16.124 -0.0242  0.4262  0.0720
13062TIP3    H160601   5.808   0.628  16.177  1.3858  0.2556  1.5093
13062TIP3    H260602   5.813   0.712  16.051 -1.6751 -0.3711  0.9395
13063TIP3   OH260603   6.509   3.096  10.729  0.2061  0.6350  0.3512
13063TIP3    H160604   6.491   3.036  10.656 -2.6862  0.4762  1.1450
13063TIP3    H260605   6.514   3.039  10.806 -2.2985  1.3477  1.0714
13064TIP3   OH260606   2.622   5.108  15.953  0.5643  0.1762  0.1045
13064TIP3    H160607   2.704   5.089  15.999  0.6262  1.1648  0.4254
13064TIP3    H260608   2.638   5.081  15.863  1.7917  1.8182 -0.1828
13065TIP3   OH260609   4.915   5.670  14.109  0.7069 -0.0183  0.0600
13065TIP3    H160610   4.931   5.669  14.015  1.7493  2.0502  0.1690
13065TIP3    H260611   4.821   5.687  14.118  0.7138  0.3858 -0.6123
13066TIP3   OH260612   3.693   1.629   4.776  0.8584 -0.2666  0.4717
13066TIP3    H160613   3.776   1.675   4.786  1.4181 -1.1849  0.0300
13066TIP3    H260614   3.666   1.607   4.865  0.7932  0.5408  0.6559
13067TIP3   OH260615   4.649   3.383   4.069  0.1493  0.1774  0.2229
13067TIP3    H160616   4.593   3.458   4.089 -0.9129 -1.0086  1.8175
13067TIP3    H260617   4.702   3.411   3.994 -0.3827  2.4314  0.6750
13068TIP3   OH260618   0.704   6.066   2.971 -0.4676 -0.3177  0.0383
13068TIP3    H160619   0.799   6.054   2.976 -0.4144  0.8541  2.1705
13068TIP3    H260620   0.678   6.013   2.895  1.8049 -1.0731 -0.2662
13069TIP3   OH260621   1.871   1.085   1.940 -0.1973  0.3947 -0.0966
13069TIP3    H160622   1.788   1.124   1.966 -0.4550 -0.8359  0.9560
13069TIP3    H260623   1.851   1.040   1.858 -2.4179 -5.8549  3.5452
13070TIP3   OH260624   3.224   4.165   3.659 -0.1002  0.1244 -0.0129
13070TIP3    H160625   3.236   4.234   3.724  0.0269  1.9787 -1.9197
13070TIP3    H260626   3.134   4.179   3.627  1.2497  2.1075 -3.3017
13071TIP3   OH260627   4.934   5.186  17.031  0.0245 -0.5112  0.4198
13071TIP3    H160628   4.987   5.255  16.992  0.4336 -1.2758 -0.4033
13071TIP3    H260629   4.844   5.207  17.004  0.0675  0.0360  0.6898
13072TIP3   OH260630   3.589   2.489   4.230  0.2076 -0.4812  0.2708
13072TIP3    H160631   3.684   2.485   4.217  0.1693  0.8138 -0.4945
13072TIP3    H260632   3.577   2.483   4.325  1.1319  0.4807  0.4548
13073TIP3   OH260633   0.676   2.555  17.097 -0.2797 -0.1366 -0.1843
13073TIP3    H160634   0.761   2.547  17.141  0.8084 -0.2289 -2.2754
13073TIP3    H260635   0.614   2.568  17.169  1.5971  0.8223  1.3148
13074TIP3   OH260636   0.551   4.677   5.804  0.3019 -0.3469  0.2489
13074TIP3    H160637   0.626   4.703   5.858  1.6490 -2.3378 -0.6001
13074TIP3    H260638   0.485   4.649   5.866  0.7730  0.0809  0.9522
13075TIP3   OH260639   5.628   5.048  15.667  0.1236  0.0831 -0.3861
13075TIP3    H160640   5.557   5.111  15.651  0.1762  0.0783 -0.6503
13075TIP3    H260641   5.688   5.093  15.725  0.0788  0.2169 -0.4440
13076TIP3   OH260642   5.525   1.160  16.882 -0.1094  0.3144  0.0257
13076TIP3    H160643   5.503   1.221  16.812 -0.2478 -0.9370 -1.0266
13076TIP3    H260644   5.617   1.180  16.903  0.4948 -0.4616 -1.7264
13077TIP3   OH260645   6.008   1.161   5.793  0.5814 -0.1616 -0.1837
13077TIP3    H160646   5.981   1.101   5.862  0.1872  1.3219  0.9742
13077TIP3    H260647   5.962   1.131   5.715 -1.1595 -0.1802  0.8359
13078TIP3   OH260648   1.846   2.829  15.570 -0.2132 -0.6088 -0.4653
13078TIP3    H160649   1.933   2.855  15.601 -0.0027 -0.2193 -1.3813
13078TIP3    H260650   1.842   2.735  15.585  0.0261 -0.4894  0.4022
13079TIP3   OH260651   3.904   1.468   2.392  0.1149 -0.8116  0.3208
13079TIP3    H160652   3.944   1.445   2.476  0.1411  1.2757  0.9130
13079TIP3    H260653   3.972   1.516   2.345 -0.0376 -1.6033 -0.7202
13080TIP3   OH260654   6.786   2.065   1.119  0.4977 -0.1750  0.3853
13080TIP3    H160655   6.724   2.012   1.070  0.1984  1.6930 -1.2799
13080TIP3    H260656   6.732   2.115   1.181  0.7197 -1.2387  1.4748
13081TIP3   OH260657   6.066   1.674  15.387  0.1872  0.7284 -0.2687
13081TIP3    H160658   6.063   1.714  15.474 -1.4320 -2.5863  1.3048
13081TIP3    H260659   5.976   1.676  15.356 -0.2446 -2.8459  0.4989
13082TIP3   OH260660   6.646   3.707   2.462 -0.1905  0.0663  0.1199
13082TIP3    H160661   6.673   3.632   2.410 -0.7473  0.3223 -0.5403
13082TIP3    H260662   6.688   3.693   2.547  0.3945 -0.5509 -0.2670
13083TIP3   OH260663   6.481   5.612  16.023 -0.0759 -0.5457 -0.5993
13083TIP3    H160664   6.464   5.592  15.931 -0.7518 -1.3927 -0.2868
13083TIP3    H260665   6.574   5.591  16.035  0.3996  0.9551 -1.4430
13084TIP3   OH260666   4.218   5.265  16.602 -0.0112 -0.3459  0.4155
13084TIP3    H160667   4.134   5.262  16.556  0.3923  0.7322 -0.4211
13084TIP3    H260668   4.277   5.307  16.540  0.8253  0.1039  1.5075
13085TIP3   OH260669   4.158   5.419  12.020 -0.0626  0.3114  0.2498
13085TIP3    H160670   4.089   5.478  11.989  1.7477  1.5406 -1.5178
13085TIP3    H260671   4.228   5.427  11.955  0.6714 -2.9954  0.5437
13086TIP3   OH260672   4.150   4.280  16.211  0.1719  0.3253  0.1707
13086TIP3    H160673   4.181   4.366  16.242 -2.3237  0.3497  2.8358
13086TIP3    H260674   4.217   4.219  16.242  1.7810  1.2321 -1.4223
13087TIP3   OH260675   4.768   4.399   0.019  0.1496 -0.3517  0.8615
13087TIP3    H160676   4.861   4.384   0.035  0.6087  0.3829 -0.9574
13087TIP3    H260677   4.764   4.485  -0.023 -1.5635  0.5592  2.8000
13088TIP3   OH260678   0.091   1.376  16.017 -0.1468  0.2262 -0.0139
13088TIP3    H160679   0.099   1.426  15.936 -0.6411  0.6345  0.1914
13088TIP3    H260680   0.144   1.424  16.080  0.6998 -0.3984 -0.2317
13089TIP3   OH260681   0.989   0.239   5.230  0.0792 -0.2490 -0.4040
13089TIP3    H160682   1.050   0.200   5.292 -1.3863 -1.2968  0.4117
13089TIP3    H260683   0.914   0.180   5.229 -0.6308  0.6338 -1.9278
13090TIP3   OH260684   5.456   5.597   5.379  0.1534  0.3368 -0.4293
13090TIP3    H160685   5.438   5.622   5.470  0.6087 -0.0379 -0.2363
13090TIP3    H260686   5.500   5.673   5.341  2.0822 -0.4002  0.3271
13091TIP3   OH260687   6.091   1.048   4.168  0.2293  0.1823 -0.2417
13091TIP3    H160688   6.058   0.977   4.223 -1.9738  1.7953  0.5899
13091TIP3    H260689   6.116   1.006   4.086 -0.2630 -1.6730  0.5407
13092TIP3   OH260690   1.454   0.484   3.287  0.4087 -0.3049 -0.1645
13092TIP3    H160691   1.448   0.498   3.192 -0.3428  0.0569 -0.0662
13092TIP3    H260692   1.364   0.489   3.318  0.8446  1.6980  0.8558
13093TIP3   OH260693   6.216   3.628   4.719  0.7388 -0.2831  0.2236
13093TIP3    H160694   6.269   3.550   4.735 -1.0903 -1.6166 -0.0392
13093TIP3    H260695   6.279   3.695   4.693  2.5833 -1.0053  2.7377
13094TIP3   OH260696   1.447   0.098  11.768 -0.1295  0.1875 -0.3610
13094TIP3    H160697   1.478   0.020  11.815  1.8717  0.0481 -1.7995
13094TIP3    H260698   1.453   0.169  11.832 -1.8497 -0.7970  0.9279
13095TIP3   OH260699   5.990   5.328   3.449  0.1446  0.0093 -0.3084
13095TIP3    H160700   5.904   5.364   3.472  0.7161  0.4145  1.2128
13095TIP3    H260701   6.053   5.389   3.488  1.1288 -1.9784  1.2972
13096TIP3   OH260702   1.762   6.278   0.934 -0.0888 -0.0001  0.4518
13096TIP3    H160703   1.854   6.296   0.950  0.2330 -1.2177 -0.0252
13096TIP3    H260704   1.740   6.333   0.858  0.3278  0.0104  0.3399
13097TIP3   OH260705   4.149   1.486   0.982 -0.0510  0.0766  0.7613
13097TIP3    H160706   4.213   1.556   0.967  0.7969 -0.8584 -0.0581
13097TIP3    H260707   4.197   1.420   1.032 -1.1481  0.5295  2.4144
13098TIP3   OH260708   3.494   6.072   2.246  0.2369  0.7369 -0.0560
13098TIP3    H160709   3.415   6.106   2.287  0.9883  2.3967  0.0612
13098TIP3    H260710   3.480   6.082   2.152  0.1216  0.5987 -0.0537
13099TIP3   OH260711   5.178   0.585  11.827  0.3070  0.1747  0.5490
13099TIP3    H160712   5.201   0.495  11.850 -2.0974 -0.4564  0.6263
13099TIP3    H260713   5.247   0.638  11.866  0.9842 -1.5266  1.7316
13100TIP3   OH260714   3.314   0.716   1.773 -1.0521 -0.3528  0.0493
13100TIP3    H160715   3.264   0.707   1.854 -0.1579 -0.2642  0.6261
13100TIP3    H260716   3.303   0.807   1.747 -2.6232 -0.7706 -0.7918
13101TIP3   OH260717   5.143   3.623   5.759 -0.1315  0.4805 -0.5922
13101TIP3    H160718   5.083   3.573   5.814 -0.4017  0.8554 -0.5464
13101TIP3    H260719   5.228   3.582   5.774 -0.4948 -0.5287 -1.2337
13102TIP3   OH260720   3.749   3.416  14.135  0.1048 -0.1136  0.1940
13102TIP3    H160721   3.816   3.482  14.153  0.6471 -0.6831  0.2732
13102TIP3    H260722   3.667   3.466  14.128  0.6149  0.6332 -0.4186
13103TIP3   OH260723   2.333   5.442  16.833 -0.2007  0.4834  0.0420
13103TIP3    H160724   2.380   5.359  16.839  0.2781  0.6631 -1.1928
13103TIP3    H260725   2.240   5.416  16.836 -0.0517 -0.0503  0.1570
13104TIP3   OH260726   1.446   2.804  16.886  0.3345  0.5540  0.1293
13104TIP3    H160727   1.472   2.890  16.854  0.9924  0.2998 -0.0367
13104TIP3    H260728   1.518   2.746  16.861  1.5464  0.5908  3.3063
13105TIP3   OH260729   5.689   4.399   0.744 -0.9814 -0.0557  0.4158
13105TIP3    H160730   5.711   4.333   0.679 -0.2885  0.8420 -0.2837
13105TIP3    H260731   5.738   4.373   0.822  0.3451  0.3466 -0.2641
13106TIP3   OH260732   4.666   6.262  10.853 -0.0080  0.1589 -0.1667
13106TIP3    H160733   4.712   6.225  10.928 -0.1177 -0.6885 -0.5141
13106TIP3    H260734   4.729   6.323  10.815  0.6465 -0.6077 -0.3392
13107TIP3   OH260735   6.725   2.984  14.016 -0.0077 -0.0872 -0.1322
13107TIP3    H160736   6.783   2.910  14.034 -0.5638 -0.0003  2.1401
13107TIP3    H260737   6.749   3.050  14.080 -1.3896  0.6424 -0.3345
13108TIP3   OH260738   0.994   4.145   3.117  0.2487  0.6408  0.4407
13108TIP3    H160739   1.046   4.096   3.053 -1.8543 -0.6848 -0.2914
13108TIP3    H260740   1.034   4.124   3.201  0.9138 -0.3394 -0.1103
13109TIP3   OH260741   2.304   2.800   6.103 -0.0358  0.1272  0.0706
13109TIP3    H160742   2.327   2.727   6.161  0.0118  0.7800  0.8685
13109TIP3    H260743   2.261   2.758   6.028 -0.6704 -0.6570  0.8671
13110TIP3   OH260744   4.747   2.122   4.619 -0.0322  0.2250  0.0420
13110TIP3    H160745   4.699   2.171   4.685 -0.3912  0.1090 -0.1330
13110TIP3    H260746   4.789   2.051   4.668 -1.4488 -0.7067 -0.0541
13111TIP3   OH260747   3.876   2.841   5.140  0.6171 -0.2324 -0.1370
13111TIP3    H160748   3.932   2.819   5.215 -1.7217 -1.8669  1.1883
13111TIP3    H260749   3.855   2.933   5.152  1.5579 -0.0711  0.3344
13112TIP3   OH260750   6.038   4.815   2.731  0.1542 -0.2921 -0.1550
13112TIP3    H160751   6.053   4.900   2.771  0.6652 -0.3040 -0.3205
13112TIP3    H260752   6.063   4.827   2.639 -2.1296  0.0751 -0.7601
13113TIP3   OH260753   4.885   0.251  14.050 -0.1828 -0.0303 -0.0779
13113TIP3    H160754   4.791   0.238  14.061  0.1650 -1.3613  1.5412
13113TIP3    H260755   4.902   0.336  14.091 -0.6143 -0.0141  0.0773
13114TIP3   OH260756   2.326   2.778   2.062  0.1315 -0.1808 -0.6506
13114TIP3    H160757   2.256   2.713   2.066  0.1862 -0.1949  0.3612
13114TIP3    H260758   2.391   2.747   2.126 -1.2705  2.4735  2.1867
13115TIP3   OH260759   2.359   2.515   5.832 -0.6109 -0.3007 -0.6268
13115TIP3    H160760   2.346   2.499   5.926  1.8754  3.6228  0.5067
13115TIP3    H260761   2.446   2.478   5.814 -0.4278  0.3151 -1.0141
13116TIP3   OH260762   2.072   1.474  16.154 -0.1780 -0.0837 -0.1851
13116TIP3    H160763   2.067   1.407  16.222  1.5732 -0.3961 -0.3255
13116TIP3    H260764   2.084   1.556  16.201 -2.3078  0.1510 -0.0105
13117TIP3   OH260765   2.626   5.288  11.799 -0.1834 -0.0104  0.1933
13117TIP3    H160766   2.638   5.352  11.730  1.4855  0.6191  1.0378
13117TIP3    H260767   2.706   5.235  11.798 -0.5630 -0.6253  0.9920
13118TIP3   OH260768   1.094   1.125   6.623 -0.0903 -0.1733  0.4238
13118TIP3    H160769   1.182   1.098   6.597  0.1365  0.7034  0.2758
13118TIP3    H260770   1.105   1.164   6.710 -0.2144  0.6050  0.0951
13119TIP3   OH260771   2.003   3.793  14.096  0.2843  0.3327 -0.1879
13119TIP3    H160772   1.991   3.787  14.001  0.1510 -0.9735 -0.0894
13119TIP3    H260773   2.098   3.783  14.108  0.0978 -1.3057 -0.0484
13120TIP3   OH260774   1.634   0.963   0.654  0.1029  0.8058 -0.3209
13120TIP3    H160775   1.581   1.019   0.598 -0.0411  1.8752  0.8646
13120TIP3    H260776   1.626   1.001   0.742  1.2226 -0.1824  0.2339
13121TIP3   OH260777   6.579   2.439  11.805  0.4886  0.2338 -0.2411
13121TIP3    H160778   6.543   2.522  11.774  1.4757  1.3174  1.4527
13121TIP3    H260779   6.629   2.405  11.731 -3.5533 -1.1302 -2.5579
13122TIP3   OH260780   3.004   6.328  11.965  0.1252  0.2722 -0.2179
13122TIP3    H160781   3.045   6.241  11.960  2.0240  1.0216  1.5041
13122TIP3    H260782   3.026   6.369  11.882  1.8931  0.2172  0.2066
13123TIP3   OH260783   5.811   5.756   3.397  0.1654 -0.4541  0.0300
13123TIP3    H160784   5.860   5.675   3.415  0.4321  0.1227  1.9922
13123TIP3    H260785   5.790   5.790   3.483 -1.7190  0.5285 -0.8125
13124TIP3   OH260786   6.218   5.145  15.105  0.6914 -0.0252 -0.2609
13124TIP3    H160787   6.187   5.071  15.157  0.8301 -0.3990 -0.6989
13124TIP3    H260788   6.203   5.222  15.160  0.0959 -0.3268  0.0036
13125TIP3   OH260789   6.091   3.768  14.895  0.5416 -0.5314 -0.2155
13125TIP3    H160790   6.121   3.816  14.972  2.2130  0.5597 -1.4855
13125TIP3    H260791   6.077   3.679  14.925  0.4068  0.0616  1.5095
13126TIP3   OH260792   4.126   0.519   5.411  0.2959  0.3790  0.5231
13126TIP3    H160793   4.056   0.489   5.353 -0.0100  1.7748  0.1333
13126TIP3    H260794   4.184   0.444   5.421 -1.1168 -0.7201  0.6289
13127TIP3   OH260795   0.743   2.721   0.488 -0.6430  0.1495 -0.7855
13127TIP3    H160796   0.809   2.784   0.458 -1.5286  0.9836 -1.0012
13127TIP3    H260797   0.660   2.754   0.452 -1.4736  0.2033  1.1384
13128TIP3   OH260798   1.070   4.968  13.876 -0.4808  0.0132  0.1802
13128TIP3    H160799   1.011   4.935  13.809 -1.0156 -0.0790  0.7017
13128TIP3    H260800   1.113   4.889  13.911 -1.2011 -0.0579  0.8961
13129TIP3   OH260801   5.097   4.168  14.718 -0.1894  0.4776  0.0535
13129TIP3    H160802   5.161   4.237  14.735  2.3250 -1.2337 -1.9630
13129TIP3    H260803   5.100   4.157  14.623 -0.5436 -2.3832  0.3491
13130TIP3   OH260804   5.409   2.101  16.284 -0.3116 -0.5146 -0.2791
13130TIP3    H160805   5.361   2.019  16.274 -0.7713 -0.3183  0.2617
13130TIP3    H260806   5.472   2.101  16.212  0.1247 -1.6365  0.1019
13131TIP3   OH260807   1.205   3.519  11.819  0.3986  0.1106  0.1918
13131TIP3    H160808   1.146   3.551  11.888  0.1180 -0.8820  0.4177
13131TIP3    H260809   1.151   3.463  11.764  1.0681 -0.6249  0.2652
13132TIP3   OH260810   3.228   1.041  11.070 -0.2479 -0.0874  0.1393
13132TIP3    H160811   3.302   1.001  11.116  0.2355  2.9677  2.1577
13132TIP3    H260812   3.151   1.003  11.111  0.2023  0.3369  1.4026
13133TIP3   OH260813   2.573   0.783  15.931 -0.1071 -0.2636 -1.2129
13133TIP3    H160814   2.501   0.846  15.923  0.1087  0.6317  2.8479
13133TIP3    H260815   2.543   0.721  15.996  1.8517 -1.3025 -1.2736
13134TIP3   OH260816   6.538   2.908  12.837  0.5519 -0.2833  0.3887
13134TIP3    H160817   6.454   2.942  12.804  1.1865  1.4204  0.4754
13134TIP3    H260818   6.574   2.980  12.888  2.4721 -0.6878 -0.3467
13135TIP3   OH260819   1.715   2.918  12.135  0.2537 -0.3551  0.7495
13135TIP3    H160820   1.678   2.988  12.190  1.1557 -0.6861  1.7709
13135TIP3    H260821   1.808   2.939  12.129  0.2463 -0.5940 -0.2623
13136TIP3   OH260822   4.418   0.543   0.998  0.4945 -0.3712  0.4517
13136TIP3    H160823   4.497   0.552   1.051  0.9961 -2.4659  0.0912
13136TIP3    H260824   4.348   0.528   1.062  0.9247 -1.8268  0.5872
13137TIP3   OH260825   5.063   5.548   0.267 -0.2068  0.4506  0.8743
13137TIP3    H160826   5.072   5.490   0.342  0.0846 -0.3824  0.2164
13137TIP3    H260827   5.134   5.521   0.208 -1.0084  0.4550 -0.1019
13138TIP3   OH260828   1.702   3.806  13.497  0.5643 -0.6166  0.0462
13138TIP3    H160829   1.702   3.873  13.565  2.9231 -2.9374  2.5203
13138TIP3    H260830   1.611   3.776  13.492 -0.5625  2.8900 -1.3198
13139TIP3   OH260831   1.884   4.773  13.908 -0.2863  0.4619 -0.0326
13139TIP3    H160832   1.862   4.862  13.882  2.9731  1.3452  0.0291
13139TIP3    H260833   1.822   4.718  13.859 -1.1217  2.6453 -1.5066
13140TIP3   OH260834   3.207   5.355   0.573  0.0479  0.2251  0.1494
13140TIP3    H160835   3.177   5.271   0.608 -0.0891 -0.0534 -0.6440
13140TIP3    H260836   3.146   5.375   0.502  0.2922  0.8256  0.1054
13141TIP3   OH260837   5.772   5.544   6.016  0.3552  0.0755 -0.2825
13141TIP3    H160838   5.719   5.588   5.949 -0.6270 -2.2414 -1.0836
13141TIP3    H260839   5.732   5.571   6.099 -1.2081 -0.5127 -0.8267
13142TIP3   OH260840   2.678   0.370  14.989 -0.7325 -0.1127 -0.1443
13142TIP3    H160841   2.744   0.405  15.049 -0.2646 -0.5542 -0.4045
13142TIP3    H260842   2.607   0.434  14.992 -1.1619 -0.6647  1.6709
13143TIP3   OH260843   1.338   3.376   1.898 -0.6926  0.2523  0.1435
13143TIP3    H160844   1.260   3.354   1.949  0.0309  2.0682  2.1228
13143TIP3    H260845   1.390   3.431   1.957 -0.0067  2.7466 -2.6956
13144TIP3   OH260846   6.212   3.542   1.693 -0.2007 -0.1903 -0.0754
13144TIP3    H160847   6.261   3.463   1.672 -0.2651 -0.5974  1.2616
13144TIP3    H260848   6.277   3.612   1.691  0.1417 -0.4996  0.2098
13145TIP3   OH260849   2.955   0.692  14.445 -0.3803 -0.2455 -0.4676
13145TIP3    H160850   2.884   0.734  14.494  0.5227  1.5713 -0.6808
13145TIP3    H260851   3.032   0.705  14.500  0.2461 -0.0222 -1.3969
13146TIP3   OH260852   2.113   2.260   5.709 -0.2592  0.4680 -0.2366
13146TIP3    H160853   2.128   2.202   5.784 -0.3591  0.8601  0.0831
13146TIP3    H260854   2.200   2.289   5.683 -0.3487  1.7439  0.8372
13147TIP3   OH260855   5.987   5.842  15.163 -0.0293  0.6362 -0.3946
13147TIP3    H160856   5.949   5.763  15.201 -1.0493  2.1464  1.9133
13147TIP3    H260857   5.911   5.893  15.134  0.5079  1.4171 -0.4565
13148TIP3   OH260858   0.307   2.342  11.419 -0.0458 -0.2758  0.7925
13148TIP3    H160859   0.243   2.299  11.475 -0.6558 -1.2528 -0.6382
13148TIP3    H260860   0.388   2.292  11.433 -0.1746 -0.4554  0.8987
13149TIP3   OH260861   4.138   2.983  16.938 -0.1125  0.0096  0.7965
13149TIP3    H160862   4.228   3.011  16.953  0.5489 -0.5317 -1.8947
13149TIP3    H260863   4.142   2.931  16.858 -2.8019 -0.1271  0.6995
13150TIP3   OH260864   5.951   4.232   5.649  0.1153  0.0380 -0.2019
13150TIP3    H160865   5.884   4.164   5.635  0.3172  0.1085 -1.5747
13150TIP3    H260866   5.977   4.221   5.741 -1.6055 -0.1454  0.2842
13151TIP3   OH260867   6.217   5.904  15.928 -0.0430  0.3734 -0.1978
13151TIP3    H160868   6.212   5.848  15.850  0.4647 -0.3718  0.3103
13151TIP3    H260869   6.307   5.935  15.930 -0.3045  1.1711 -0.4425
13152TIP3   OH260870   0.877   1.175  12.223 -0.2807 -0.3425  0.3976
13152TIP3    H160871   0.967   1.149  12.244 -0.0976  0.3905  0.5231
13152TIP3    H260872   0.822   1.118  12.277  0.1017 -0.8259  0.2872
13153TIP3   OH260873   5.878   2.913  13.964 -0.2994  0.6125  0.3713
13153TIP3    H160874   5.868   2.819  13.979  1.2968  0.1967 -0.9793
13153TIP3    H260875   5.791   2.943  13.937 -0.7732 -0.4891  0.6541
13154TIP3   OH260876   4.562   4.711  13.372 -0.2103  0.0816 -0.5897
13154TIP3    H160877   4.593   4.720  13.463  1.0958 -2.1289 -0.7800
13154TIP3    H260878   4.501   4.784  13.361 -1.5610 -0.4655  2.5464
13155TIP3   OH260879   0.927   4.726   4.327 -0.3072 -0.1916 -0.8475
13155TIP3    H160880   0.978   4.662   4.377 -0.8261 -0.6137 -0.8467
13155TIP3    H260881   0.837   4.714   4.360 -0.0806  1.9772  0.6549
13156TIP3   OH260882   2.501   0.176   6.714  0.1707  0.1511 -0.3117
13156TIP3    H160883   2.566   0.161   6.645  0.8447 -0.7898  0.5230
13156TIP3    H260884   2.547   0.225   6.781 -0.6408  1.5461 -0.7541
13157TIP3   OH260885   5.912   5.390  13.424 -0.4489  0.4860  0.5461
13157TIP3    H160886   5.828   5.352  13.396 -0.6861  1.9555 -0.8024
13157TIP3    H260887   5.968   5.382  13.347  0.8292 -0.9169  1.5935
13158TIP3   OH260888   0.403   4.424   2.013  0.5919 -0.0005 -0.0635
13158TIP3    H160889   0.450   4.499   2.050 -2.2474  2.0295 -0.4189
13158TIP3    H260890   0.405   4.358   2.082  0.9954  1.3245  1.2233
13159TIP3   OH260891   0.540   2.869   0.370 -0.7363  0.7779  0.1670
13159TIP3    H160892   0.541   2.959   0.404 -1.0528  0.6304  0.5642
13159TIP3    H260893   0.449   2.852   0.348 -0.7034  0.4924  0.2517
13160TIP3   OH260894   6.766   0.265   5.687 -0.2330 -0.4656 -0.9730
13160TIP3    H160895   6.722   0.315   5.756 -1.6520  0.0386 -2.2248
13160TIP3    H260896   6.705   0.266   5.614  0.7372 -2.0500 -1.8260
13161TIP3   OH260897   1.545   6.769   4.589 -0.4576  0.5218  0.1684
13161TIP3    H160898   1.511   6.768   4.500  0.0113  0.2139 -0.0058
13161TIP3    H260899   1.496   6.840   4.632 -0.5021  0.8411 -0.4001
13162TIP3   OH260900   1.839   1.719   6.349  0.3920  0.6144 -0.4442
13162TIP3    H160901   1.788   1.664   6.290 -0.2668  0.8803 -0.1336
13162TIP3    H260902   1.784   1.797   6.361  0.7365  0.7655  0.1419
13163TIP3   OH260903   5.545   4.903   3.443 -0.0234  0.5965  0.1583
13163TIP3    H160904   5.613   4.968   3.427 -0.4896  1.5124  1.8658
13163TIP3    H260905   5.470   4.934   3.393  0.3514  0.3375 -0.5766
13164TIP3   OH260906   5.696   0.130  15.369  0.1939  0.4109  0.1215
13164TIP3    H160907   5.645   0.052  15.390 -1.2868  1.2584 -0.2623
13164TIP3    H260908   5.729   0.114  15.280  0.8770 -0.2701  0.4899
13165TIP3   OH260909   0.796   5.359   1.163  0.0979 -0.1990  0.1197
13165TIP3    H160910   0.885   5.378   1.133  0.5056  0.1984  1.5351
13165TIP3    H260911   0.802   5.271   1.201 -0.3940 -0.6617 -0.8556
13166TIP3   OH260912   1.975   2.921  16.887  0.0460  0.0532  0.2783
13166TIP3    H160913   1.965   2.853  16.953  0.3178  0.5077  0.7855
13166TIP3    H260914   2.030   2.881  16.820  0.0913 -0.2715  0.5074
13167TIP3   OH260915   2.137   0.008  12.301 -0.3497  0.1636  0.2436
13167TIP3    H160916   2.049  -0.005  12.337  0.2547  1.2014  2.2024
13167TIP3    H260917   2.176   0.074  12.358  1.3404  0.4815 -1.2425
13168TIP3   OH260918   5.626   0.577   5.940  0.0567  0.4613 -0.7990
13168TIP3    H160919   5.622   0.585   6.035 -1.0468  1.1877 -0.9025
13168TIP3    H260920   5.637   0.483   5.924 -0.8766  0.2067  0.0110
13169TIP3   OH260921   0.380   2.164  13.397  0.0841 -0.8869  0.0962
13169TIP3    H160922   0.444   2.233  13.414  1.1853 -2.2721  1.7901
13169TIP3    H260923   0.411   2.122  13.316  0.2283 -0.3162 -0.1453
13170TIP3   OH260924   3.297   1.777  15.754 -0.6453 -0.0787  0.1665
13170TIP3    H160925   3.365   1.753  15.691  0.1862 -0.5808  1.2400
13170TIP3    H260926   3.217   1.736  15.721  0.2075 -2.0734  0.5336
13171TIP3   OH260927   1.286   1.643  12.975  0.0755  0.3996 -0.2855
13171TIP3    H160928   1.275   1.661  12.881  0.6124  1.4001 -0.1656
13171TIP3    H260929   1.294   1.730  13.015  0.2282 -0.0392  0.6407
13172TIP3   OH260930   6.639   3.302   1.579 -0.5157  0.4136 -0.1906
13172TIP3    H160931   6.716   3.355   1.598 -0.0823  0.0448 -0.9023
13172TIP3    H260932   6.586   3.308   1.658  0.3224  0.5349  0.3727
13173TIP3   OH260933   6.013   1.507  16.399  0.4331  0.4938  0.0529
13173TIP3    H160934   6.065   1.471  16.327 -0.0046  0.8166 -0.4286
13173TIP3    H260935   5.976   1.431  16.443  1.9943  0.2056  0.9301
13174TIP3   OH260936   2.802   5.429  10.306  0.8015 -0.4798  0.4490
13174TIP3    H160937   2.776   5.358  10.248 -1.0118  0.0713  0.5624
13174TIP3    H260938   2.762   5.407  10.390 -0.7519  1.2460  0.1905
13175TIP3   OH260939   0.029   1.884   0.847 -0.4884 -0.2608  0.3400
13175TIP3    H160940   0.103   1.941   0.868  1.2288 -2.3276  0.1315
13175TIP3    H260941   0.006   1.844   0.931  0.2332 -1.4240  0.0032
13176TIP3   OH260942   3.326   4.391  16.314  0.3967 -0.1005 -0.7068
13176TIP3    H160943   3.290   4.399  16.225  0.8729 -1.9211 -1.0985
13176TIP3    H260944   3.418   4.370  16.300  0.3700 -0.8472  0.2047
13177TIP3   OH260945   1.227   1.406  12.746  0.6117  0.0783 -0.0323
13177TIP3    H160946   1.149   1.430  12.796  0.3815  0.5211 -0.5812
13177TIP3    H260947   1.205   1.431  12.656  1.9579  1.6153  0.0332
13178TIP3   OH260948   4.780   6.774  15.077 -0.3279  0.2441  0.3096
13178TIP3    H160949   4.782   6.689  15.033 -1.0654  0.1810  0.3856
13178TIP3    H260950   4.768   6.752  15.170  1.0055  0.3814  0.5343
13179TIP3   OH260951   2.841   5.466  13.991  0.5781  0.4909  0.4035
13179TIP3    H160952   2.804   5.528  13.928  1.0723  0.6367  0.2569
13179TIP3    H260953   2.881   5.521  14.059 -0.0542  0.3352  0.9080
13180TIP3   OH260954   3.340   2.251   2.304 -0.1642  0.2978 -0.0708
13180TIP3    H160955   3.254   2.220   2.278 -0.8492  1.5464  0.6227
13180TIP3    H260956   3.322   2.326   2.362  1.3940  2.1774 -1.9125
13181TIP3   OH260957   0.863   5.585   3.287 -0.3266  0.1688  0.2881
13181TIP3    H160958   0.948   5.591   3.244 -0.5705 -0.9099 -0.3594
13181TIP3    H260959   0.861   5.660   3.347  0.7271  0.6832 -0.3072
13182TIP3   OH260960   5.202   5.052  15.051 -0.2592  0.5601  0.0281
13182TIP3    H160961   5.155   5.055  15.135 -3.8807  0.7104 -1.9294
13182TIP3    H260962   5.209   5.143  15.024  1.7722  0.5942  0.5669
13183TIP3   OH260963   6.664   5.142   5.423  0.2841  0.3974 -0.3483
13183TIP3    H160964   6.715   5.170   5.499  1.0900 -0.8679 -0.4217
13183TIP3    H260965   6.607   5.073   5.457  1.2170 -0.7352 -1.0590
13184TIP3   OH260966   5.122   5.255  12.012  0.2397 -0.6290  0.6432
13184TIP3    H160967   5.059   5.287  12.078  0.3105  1.0099 -0.0453
13184TIP3    H260968   5.160   5.335  11.976 -1.2142 -1.3809 -2.7861
13185TIP3   OH260969   5.609   2.947  14.163  0.0727 -0.1279  0.0936
13185TIP3    H160970   5.597   2.986  14.076  2.0056  1.0483  0.3312
13185TIP3    H260971   5.584   3.016  14.224  0.6371 -0.2808  0.4979
13186TIP3   OH260972   0.011   5.285  11.801 -0.1928  0.2430  0.2835
13186TIP3    H160973  -0.049   5.251  11.734 -0.8300  0.1520  0.8913
13186TIP3    H260974   0.096   5.247  11.779 -0.4946 -0.1603 -0.1969
13187TIP3   OH260975   5.121   3.988  12.397  0.0178  0.4357 -0.5825
13187TIP3    H160976   5.173   4.068  12.404 -0.2107  0.5476 -0.1482
13187TIP3    H260977   5.184   3.921  12.370  0.4583  0.4960  0.2661
13188TIP3   OH260978   4.985   2.716   5.325 -0.3542 -0.1078 -0.1531
13188TIP3    H160979   4.894   2.742   5.311 -0.6410 -1.9104 -1.8911
13188TIP3    H260980   5.012   2.679   5.241  1.8290 -0.0633  0.5031
13189TIP3   OH260981   5.536   1.283   3.517 -0.0008 -0.0773 -0.2756
13189TIP3    H160982   5.595   1.224   3.564  1.1301  0.2471 -1.2482
13189TIP3    H260983   5.459   1.230   3.498  0.8946 -1.1867 -0.9059
13190TIP3   OH260984   4.766   0.969   1.081  0.5345 -0.0365  0.1905
13190TIP3    H160985   4.739   0.935   0.995 -1.1055  0.0543  0.6566
13190TIP3    H260986   4.798   1.057   1.063 -2.3467  1.0243  0.0164
13191TIP3   OH260987   6.059   2.459   3.417 -0.1518 -0.2970  0.4329
13191TIP3    H160988   6.034   2.372   3.386 -0.9791 -0.5059  1.6604
13191TIP3    H260989   5.993   2.482   3.482 -0.2996  1.5157 -0.2982
13192TIP3   OH260990   6.266   1.376   0.360  0.2202  0.5083 -0.0546
13192TIP3    H160991   6.200   1.436   0.394  1.1790  1.7306 -0.2761
13192TIP3    H260992   6.255   1.379   0.265 -0.3228 -0.3698 -0.0181
13193TIP3   OH260993   0.567   2.526  11.262 -0.2768 -0.3158  0.0752
13193TIP3    H160994   0.558   2.444  11.310 -1.1770 -0.8127 -0.9334
13193TIP3    H260995   0.638   2.572  11.307 -1.9391 -0.2019  2.6863
13194TIP3   OH260996   4.775   6.279  14.942 -0.5122 -0.9349  0.0659
13194TIP3    H160997   4.684   6.286  14.914 -0.8749  0.2101  1.4340
13194TIP3    H260998   4.781   6.338  15.017  1.6598 -0.0878 -0.7373
13195TIP3   OH260999   2.786   5.609   0.521 -0.3764  0.9350  0.2758
13195TIP3    H161000   2.798   5.689   0.470 -1.0703  1.5065  0.9941
13195TIP3    H261001   2.809   5.633   0.610 -2.1823  0.7860  0.8063
13196TIP3   OH261002   2.376   3.609   0.081 -0.1873 -0.4050 -0.0247
13196TIP3    H161003   2.380   3.700   0.050 -0.6389 -0.2781  0.2820
13196TIP3    H261004   2.352   3.616   0.173  1.6459 -0.7659  0.5014
13197TIP3   OH261005   3.122   3.629   2.234  0.3572  0.7746  0.0798
13197TIP3    H161006   3.088   3.590   2.315 -0.5052  1.1020 -0.1188
13197TIP3    H261007   3.136   3.554   2.176  0.9717  0.5376  0.5224
13198TIP3   OH261008   0.291   2.608   0.317 -0.5926  0.3065  0.3764
13198TIP3    H161009   0.283   2.700   0.290 -0.0096 -0.0790 -1.1464
13198TIP3    H261010   0.222   2.563   0.268 -0.8090 -0.0988  1.0477
13199TIP3   OH261011   1.641   3.263   1.860 -0.5105  0.3521  0.5913
13199TIP3    H161012   1.650   3.340   1.803 -0.2763 -0.0214  0.1263
13199TIP3    H261013   1.683   3.192   1.812 -1.0079 -0.1438  0.8859
13200TIP3   OH261014   4.918   1.220   5.724  0.1900 -0.0242  0.0321
13200TIP3    H161015   4.913   1.206   5.818 -0.4657  1.8051  0.2898
13200TIP3    H261016   4.878   1.306   5.710 -2.6670 -1.6618 -2.2919
13201TIP3   OH261017   3.639   0.730  12.823  0.9825  0.0550 -0.1049
13201TIP3    H161018   3.694   0.725  12.901 -1.8265  1.0008  2.0357
13201TIP3    H261019   3.623   0.638  12.800 -0.6884 -0.3239  2.3506
13202TIP3   OH261020   2.030   1.033  15.710  0.6055 -0.0268 -0.3168
13202TIP3    H161021   1.952   1.086  15.691  1.5167  0.7740 -1.9353
13202TIP3    H261022   2.039   0.977  15.633  1.2375 -0.6147  0.1842
13203TIP3   OH261023   6.542   4.132   0.102  0.1579 -1.1713 -0.4692
13203TIP3    H161024   6.455   4.169   0.110  0.2960 -0.8848 -0.2879
13203TIP3    H261025   6.530   4.054   0.048 -0.0683 -0.6276 -1.2080
13204TIP3   OH261026   0.278   1.106  10.807  0.2344 -0.0256 -0.0018
13204TIP3    H161027   0.208   1.058  10.764  1.4878  0.0529 -2.2332
13204TIP3    H261028   0.326   1.147  10.735  1.9873  0.6992  1.5443
13205TIP3   OH261029   4.123   5.881   4.787  0.1843 -0.0620 -0.1241
13205TIP3    H161030   4.053   5.894   4.723  0.5669  0.8113 -0.3739
13205TIP3    H261031   4.092   5.809   4.842 -0.3251 -0.5514 -1.0392
13206TIP3   OH261032   2.769   0.775   6.230  0.0239  0.1248 -0.5565
13206TIP3    H161033   2.770   0.869   6.248  0.0509 -0.0840  0.6276
13206TIP3    H261034   2.854   0.744   6.261 -0.5609 -0.5167  0.4513
13207TIP3   OH261035   4.083   3.473  14.894 -0.0821 -0.6923 -0.0570
13207TIP3    H161036   4.164   3.471  14.842 -0.7958 -0.0914 -1.2223
13207TIP3    H261037   4.016   3.504  14.833 -0.8570  0.4947  1.3464
13208TIP3   OH261038   4.826   6.044   0.198 -0.4370 -0.2688 -0.0587
13208TIP3    H161039   4.841   6.032   0.104  1.6164  0.0816  0.1915
13208TIP3    H261040   4.779   5.965   0.226  1.9823 -1.9843 -0.7260
13209TIP3   OH261041   6.610   1.676  11.232 -0.5089 -0.0471 -0.5137
13209TIP3    H161042   6.693   1.661  11.187  0.5865  0.7262  1.2007
13209TIP3    H261043   6.612   1.615  11.307 -0.3907  1.6714  0.9110
13210TIP3   OH261044   2.037   6.176   2.313 -0.0982  0.0359  0.1356
13210TIP3    H161045   1.991   6.098   2.281  0.4751 -0.4237  0.4196
13210TIP3    H261046   2.056   6.156   2.404  0.1540  0.4604  0.1744
13211TIP3   OH261047   0.563   1.602   3.247 -0.5200  0.6300  1.2943
13211TIP3    H161048   0.477   1.586   3.286  0.0034 -1.1265  1.7674
13211TIP3    H261049   0.624   1.555   3.304  0.2165 -2.3716 -1.8655
13212TIP3   OH261050   3.684   5.865   0.889 -0.4551  0.1591  0.3054
13212TIP3    H161051   3.723   5.811   0.821 -0.2668  0.3976  0.2250
13212TIP3    H261052   3.753   5.925   0.915 -0.9816  1.0550 -0.3288
13213TIP3   OH261053   5.759   2.798  15.861 -0.0969  0.1308 -0.4461
13213TIP3    H161054   5.711   2.719  15.886  1.0704 -0.9515 -1.5567
13213TIP3    H261055   5.729   2.818  15.773  0.1379  0.5227 -0.4399
13214TIP3   OH261056   2.940   4.972  14.984  0.3364  0.2512  0.0146
13214TIP3    H161057   3.006   4.926  15.036  1.2450 -0.5482 -1.7910
13214TIP3    H261058   2.990   5.015  14.914 -0.8266  1.5395 -0.0475
13215TIP3   OH261059   4.261   2.044   2.691 -0.2766  0.8808 -0.0052
13215TIP3    H161060   4.346   1.999   2.693 -0.4070  0.6804  1.6141
13215TIP3    H261061   4.277   2.122   2.639  0.9513  0.9323  0.4327
13216TIP3   OH261062   3.687   5.149   5.726 -0.1138 -0.1569  0.0990
13216TIP3    H161063   3.754   5.135   5.793 -0.2462 -0.1983  0.2230
13216TIP3    H261064   3.704   5.238   5.693  0.1623 -0.2650 -0.0517
13217TIP3   OH261065   0.351   5.840   2.782 -0.2255  1.2209 -0.1070
13217TIP3    H161066   0.309   5.844   2.868 -0.2538  0.9042 -0.1042
13217TIP3    H261067   0.325   5.755   2.747 -1.7509  2.1099 -1.2026
13218TIP3   OH261068   3.464   3.398   0.832  0.2061 -0.3199  0.4167
13218TIP3    H161069   3.383   3.361   0.797  1.1366 -0.6863 -1.4479
13218TIP3    H261070   3.485   3.469   0.771 -0.1309  1.5621  2.4277
13219TIP3   OH261071   3.068   2.877  11.479  0.1689  0.5203 -0.5404
13219TIP3    H161072   3.095   2.942  11.414  1.9058 -0.0633 -0.4061
13219TIP3    H261073   3.129   2.889  11.551  0.2270 -0.9924 -0.3408
13220TIP3   OH261074   0.210   1.792  12.763  0.1952 -0.5443 -0.1869
13220TIP3    H161075   0.290   1.839  12.740 -0.3559  0.5567  0.1140
13220TIP3    H261076   0.195   1.814  12.855 -1.0456  0.1304 -0.5428
13221TIP3   OH261077   4.784   5.762  15.012  0.1242 -0.3813 -0.1841
13221TIP3    H161078   4.714   5.817  14.974  1.5201  0.1719 -2.0303
13221TIP3    H261079   4.865   5.808  14.989  1.0778 -0.3624  2.9903
13222TIP3   OH261080   4.396   5.891  14.444  1.3139  0.4886  0.0357
13222TIP3    H161081   4.488   5.867  14.432  1.1540 -0.2407  0.2353
13222TIP3    H261082   4.357   5.816  14.488  1.1534  1.7675  2.1597
13223TIP3   OH261083   1.614   2.829  11.911  0.3349  0.3672  0.0329
13223TIP3    H161084   1.553   2.892  11.875  0.9000  0.8991 -0.0111
13223TIP3    H261085   1.627   2.857  12.002  1.4828  1.0148 -0.3208
13224TIP3   OH261086   0.033   4.828   2.528  0.6088  0.2601  0.2658
13224TIP3    H161087  -0.057   4.821   2.559  0.5100 -1.3846 -0.3304
13224TIP3    H261088   0.070   4.741   2.541  2.1864  0.9792  0.7004
13225TIP3   OH261089   5.388   5.136  16.010 -0.0026  0.0599  0.0440
13225TIP3    H161090   5.454   5.201  16.035  0.3382 -0.0006 -0.6855
13225TIP3    H261091   5.412   5.057  16.058  0.9759 -0.2200 -0.8915
13226TIP3   OH261092   4.743   2.767   3.310 -0.1174 -0.4351 -0.1180
13226TIP3    H161093   4.775   2.802   3.393 -0.3537  0.7505 -0.5119
13226TIP3    H261094   4.807   2.700   3.286  0.0707 -0.6223  0.9084
13227TIP3   OH261095   4.575   0.655   3.801  0.3653  0.3319  0.0240
13227TIP3    H161096   4.571   0.737   3.752  0.4341 -0.1332 -0.7615
13227TIP3    H261097   4.502   0.603   3.767 -0.2756  0.4465  1.2086
13228TIP3   OH261098   0.021   4.162  14.252 -0.2644 -0.0222 -0.1888
13228TIP3    H161099   0.031   4.250  14.289 -0.7226  0.2174 -0.6323
13228TIP3    H261100  -0.072   4.144  14.258 -0.3740  0.0962 -1.3937
13229TIP3   OH261101   3.039   0.484   0.610  0.0473  0.1543  0.2261
13229TIP3    H161102   2.959   0.530   0.582  0.1567 -0.3295 -0.9183
13229TIP3    H261103   3.108   0.549   0.598  0.1890 -0.2519 -1.3123
13230TIP3   OH261104   3.533   3.160   1.685 -0.4491 -0.1394  0.1280
13230TIP3    H161105   3.529   3.229   1.619  0.3373 -1.2003 -1.0666
13230TIP3    H261106   3.446   3.159   1.725 -0.4748  1.4955  0.1232
13231TIP3   OH261107   3.860   2.424   4.160  0.0011 -0.5881 -0.4748
13231TIP3    H161108   3.912   2.500   4.186 -0.3770 -0.7894  0.9107
13231TIP3    H261109   3.853   2.372   4.240 -0.5317 -1.6113 -1.1883
13232TIP3   OH261110   1.610   4.397   2.175 -0.4534 -0.0225  0.5297
13232TIP3    H161111   1.645   4.363   2.257 -0.4394 -0.2597  0.4252
13232TIP3    H261112   1.613   4.323   2.114  0.7698  0.5087 -0.0622
13233TIP3   OH261113   1.480   2.316  14.979  0.2315  0.2675 -0.0966
13233TIP3    H161114   1.488   2.405  15.012 -0.8312  0.2023  0.3556
13233TIP3    H261115   1.544   2.265  15.029 -1.1314  0.2284  1.6455
13234TIP3   OH261116   3.267   1.797   3.609  0.3529  0.3205 -0.5484
13234TIP3    H161117   3.335   1.803   3.676 -1.0467  2.1490  0.7280
13234TIP3    H261118   3.185   1.812   3.656 -0.8327 -0.5202 -2.3029
13235TIP3   OH261119   6.241   5.449  14.043 -0.0326  0.8873  0.1921
13235TIP3    H161120   6.297   5.394  13.989 -0.8643  1.0505 -0.8674
13235TIP3    H261121   6.253   5.537  14.008 -2.8345  0.5728 -1.7290
13236TIP3   OH261122   3.785   2.340  11.689 -0.2765  0.2571 -0.3655
13236TIP3    H161123   3.826   2.268  11.642  0.5628  0.3699  0.1806
13236TIP3    H261124   3.755   2.400  11.621  2.0834  1.0526 -0.7290
13237TIP3   OH261125   5.657   2.395  12.199  0.4132 -0.5990  0.3937
13237TIP3    H161126   5.626   2.403  12.109  1.7533  1.9913  0.1356
13237TIP3    H261127   5.595   2.447  12.250  0.2455 -1.2412  0.8600
13238TIP3   OH261128   0.506   5.155   4.298  0.0326 -0.1130 -0.0034
13238TIP3    H161129   0.417   5.133   4.271  0.7825  0.2857 -2.8851
13238TIP3    H261130   0.500   5.245   4.329 -0.4256  0.1822 -0.9462
13239TIP3   OH261131   1.100   0.923   4.698 -0.4909 -0.1815 -0.3664
13239TIP3    H161132   1.042   0.991   4.732  1.2483  2.5343 -2.6407
13239TIP3    H261133   1.178   0.929   4.753  0.0709  0.3696 -1.2170
13240TIP3   OH261134   2.125   4.808   5.004  0.0639  0.1939 -0.4718
13240TIP3    H161135   2.137   4.721   5.043 -0.4313 -0.1286 -1.0278
13240TIP3    H261136   2.033   4.830   5.022  1.3376  2.6660  3.8079
13241TIP3   OH261137   1.154   0.106  13.136  0.1796  0.0288 -0.4684
13241TIP3    H161138   1.215   0.090  13.209  0.9722 -0.2312 -1.1795
13241TIP3    H261139   1.111   0.188  13.158  0.4230 -0.0424  0.2922
13242TIP3   OH261140   1.256   6.310   0.445 -0.3368 -0.1840  0.0626
13242TIP3    H161141   1.270   6.323   0.351 -0.5981  1.9028  0.2933
13242TIP3    H261142   1.339   6.334   0.485 -0.4767 -0.3149  0.4342
13243TIP3   OH261143   4.477   2.089  16.944 -0.3450 -0.3659  0.2880
13243TIP3    H161144   4.466   2.172  16.990  2.0367 -0.0402  0.3390
13243TIP3    H261145   4.427   2.099  16.863  0.2778  1.2790  0.0987
13244TIP3   OH261146   3.554   6.303   5.829 -0.0804 -1.0215 -0.2040
13244TIP3    H161147   3.501   6.323   5.906 -1.7304 -1.6496 -1.1423
13244TIP3    H261148   3.615   6.236   5.858 -0.1533 -0.6773  0.7635
13245TIP3   OH261149   5.649   0.037   5.471 -0.3374 -0.3493  0.3468
13245TIP3    H161150   5.741   0.044   5.443 -0.7162  1.4186 -0.5809
13245TIP3    H261151   5.611  -0.028   5.412  0.4494 -1.4730  1.0790
13246TIP3   OH261152   5.349   5.869   3.635 -0.9580  0.0188  0.3801
13246TIP3    H161153   5.285   5.932   3.670  0.1498  0.1678  2.2252
13246TIP3    H261154   5.350   5.798   3.699 -1.0087 -1.1244 -0.8652
13247TIP3   OH261155   0.773   2.448   5.321  0.2265  0.0410  0.2790
13247TIP3    H161156   0.790   2.478   5.232 -0.7012  1.9044  0.7172
13247TIP3    H261157   0.847   2.390   5.341  1.5180  1.2329 -0.9487
13248TIP3   OH261158   0.047   4.995   2.753  0.5195  0.0223  0.1760
13248TIP3    H161159   0.030   4.922   2.694  0.8585 -0.1331  0.2697
13248TIP3    H261160   0.138   5.018   2.736  0.7572 -0.3295  0.9865
13249TIP3   OH261161   2.559   5.412   5.585 -0.1417  0.0567 -0.2292
13249TIP3    H161162   2.590   5.400   5.495  0.8060 -0.1709  0.1203
13249TIP3    H261163   2.621   5.474   5.623  0.0042 -0.5615  0.5439
13250TIP3   OH261164   1.540   1.854   3.607  0.4386 -0.7979  0.0862
13250TIP3    H161165   1.609   1.880   3.668 -1.2427  2.1275  0.8810
13250TIP3    H261166   1.494   1.783   3.652  0.4806 -0.0479  1.3496
13251TIP3   OH261167   0.134   1.416  11.338 -0.5035  0.9591 -0.0610
13251TIP3    H161168   0.227   1.408  11.318 -0.4193 -1.6635  1.0512
13251TIP3    H261169   0.093   1.342  11.292 -1.9545  1.7821 -0.1275
13252TIP3   OH261170   4.820   1.861   4.451 -0.0214  0.1133 -0.1408
13252TIP3    H161171   4.745   1.877   4.394  0.3835  0.1344 -0.6653
13252TIP3    H261172   4.828   1.766   4.453 -0.7221  0.0657  0.7724
13253TIP3   OH261173   6.241   5.715   1.575 -0.9392 -0.3486  0.0948
13253TIP3    H161174   6.172   5.653   1.597  1.1067 -3.1599 -1.1297
13253TIP3    H261175   6.259   5.700   1.482  0.2091  1.4664 -0.0080
13254TIP3   OH261176   4.402   6.251  16.341  0.4515 -0.4365 -0.2811
13254TIP3    H161177   4.313   6.217  16.332  0.5434 -0.3149 -1.6273
13254TIP3    H261178   4.399   6.306  16.419 -1.7565  3.0987 -2.7356
13255TIP3   OH261179   5.068   5.745  11.582  0.1217 -0.0060  0.0850
13255TIP3    H161180   5.029   5.766  11.667  0.8134  0.4689  0.2918
13255TIP3    H261181   5.047   5.821  11.527  2.4728  1.1911  0.7804
13256TIP3   OH261182   5.119   6.300  14.718  0.6841  0.3555 -0.4208
13256TIP3    H161183   5.149   6.389  14.696  2.5865  0.0209  0.7140
13256TIP3    H261184   5.190   6.263  14.770 -0.4265 -1.5828 -0.2399
13257TIP3   OH261185   5.727   4.035  12.857 -0.2401 -0.2490 -0.0038
13257TIP3    H161186   5.658   3.971  12.840  0.4898 -0.9620 -0.3123
13257TIP3    H261187   5.730   4.089  12.778 -0.2787 -0.3813 -0.0948
13258TIP3   OH261188   0.654   2.769   2.605 -0.4330 -0.5787 -0.4103
13258TIP3    H161189   0.634   2.764   2.698  1.1884 -0.9346 -0.0682
13258TIP3    H261190   0.582   2.722   2.563 -1.6294  0.3311  0.5846
13259TIP3   OH261191   5.900   1.554  12.673 -0.2093  0.1601 -0.6467
13259TIP3    H161192   5.917   1.501  12.595  0.5301  0.3355 -0.6085
13259TIP3    H261193   5.908   1.644  12.643 -2.1935  0.2875 -0.8806
13260TIP3   OH261194   2.461   6.573  12.323 -0.5202  0.5340  0.0967
13260TIP3    H161195   2.475   6.665  12.303 -1.1506  0.3203 -1.3892
13260TIP3    H261196   2.506   6.559  12.406  1.7172  1.5870 -0.9071
13261TIP3   OH261197   6.043   2.154   1.774  0.2951 -0.0186 -0.1817
13261TIP3    H161198   6.129   2.151   1.817 -0.0555  1.7533  0.6985
13261TIP3    H261199   5.981   2.128   1.842  0.1069 -1.1663 -0.7786
13262TIP3   OH261200   6.393   2.257   3.238 -0.1313 -0.2494  0.4700
13262TIP3    H161201   6.387   2.257   3.142  2.1104 -0.7088  0.3020
13262TIP3    H261202   6.326   2.194   3.266 -0.5344 -0.4121 -0.8046
13263TIP3   OH261203   2.607   0.464   0.106 -0.1820  0.2847  0.4586
13263TIP3    H161204   2.554   0.396   0.147  0.8050  0.1899  1.6090
13263TIP3    H261205   2.554   0.495   0.032 -1.2174 -0.7781  0.7425
13264TIP3   OH261206   4.578   4.032   0.746 -0.1858  0.0291  0.0834
13264TIP3    H161207   4.503   4.076   0.707 -0.1156 -1.4368 -1.7405
13264TIP3    H261208   4.655   4.076   0.710 -0.1349 -0.4466 -0.3882
13265TIP3   OH261209   2.774   2.855  14.138 -0.1064 -0.4142 -0.1024
13265TIP3    H161210   2.707   2.860  14.205  1.3021 -1.1955  1.3965
13265TIP3    H261211   2.851   2.898  14.176  0.0235  1.2233 -2.0987
13266TIP3   OH261212   3.248   0.043  15.776 -0.4557  0.0778  0.0069
13266TIP3    H161213   3.175   0.025  15.835 -1.8804  3.1420 -0.7631
13266TIP3    H261214   3.211   0.035  15.688  1.1187 -2.2360 -0.4909
13267TIP3   OH261215   3.136   2.128  17.186 -0.1325  0.5199  0.0892
13267TIP3    H161216   3.111   2.069  17.115 -0.3440  0.0644  0.5361
13267TIP3    H261217   3.184   2.198  17.143 -0.6978  0.5088 -0.5638
13268TIP3   OH261218   3.681   1.914  16.803  0.3877 -0.0809  0.1381
13268TIP3    H161219   3.668   2.009  16.800  0.6132 -0.0181  0.9713
13268TIP3    H261220   3.603   1.878  16.761  0.2583  0.4665 -0.1064
13269TIP3   OH261221   3.102   4.428  15.858  0.4611  0.4443  0.3608
13269TIP3    H161222   3.010   4.402  15.854  0.4614  0.5925 -1.1990
13269TIP3    H261223   3.102   4.519  15.827  1.4030 -0.3622 -2.1582
13270TIP3   OH261224   6.614   2.003  10.983 -0.7266  0.4616 -0.1467
13270TIP3    H161225   6.583   1.961  11.063 -0.9322  0.1169 -0.4113
13270TIP3    H261226   6.639   2.091  11.011 -1.7783  0.6918  0.1028
13271TIP3   OH261227   0.186   5.934   1.196  0.0925  0.1628 -0.1558
13271TIP3    H161228   0.268   5.950   1.243 -1.3960  2.0346  1.9315
13271TIP3    H261229   0.166   5.842   1.213 -0.2438  0.7055  2.7490
13272TIP3   OH261230   1.010   4.407  14.024  0.2533  0.3284  0.3220
13272TIP3    H161231   0.946   4.357  14.075 -1.6603  1.5251 -0.8718
13272TIP3    H261232   0.958   4.457  13.962  2.3200  1.8362 -0.2459
13273TIP3   OH261233   4.164   2.818   1.690 -0.0639 -0.2127  0.6409
13273TIP3    H161234   4.211   2.816   1.774  2.2508 -0.4730 -0.6177
13273TIP3    H261235   4.153   2.726   1.667 -0.0782 -0.1336  0.3355
13274TIP3   OH261236   5.408   2.449  15.476 -0.4378  0.4140 -0.1032
13274TIP3    H161237   5.386   2.377  15.535 -0.6117  1.1765  0.7853
13274TIP3    H261238   5.425   2.408  15.392 -0.7909 -0.6347  0.3370
13275TIP3   OH261239   2.212   3.693   1.728 -0.4523 -0.3018 -0.2269
13275TIP3    H161240   2.151   3.728   1.664 -0.4800 -1.8133 -1.0418
13275TIP3    H261241   2.236   3.606   1.695  0.8602 -0.4052  0.9197
13276TIP3   OH261242   2.920   1.287   4.270 -0.3545  0.5014 -0.7631
13276TIP3    H161243   2.849   1.281   4.334  0.5790  0.8369  0.3322
13276TIP3    H261244   2.966   1.203   4.278 -0.6835  0.2512 -1.5280
13277TIP3   OH261245   0.568   0.509   1.132 -0.1675 -0.0978 -0.7630
13277TIP3    H161246   0.523   0.463   1.060 -0.5012  0.0340 -0.6405
13277TIP3    H261247   0.516   0.588   1.146 -0.8816 -0.7686  0.5161
13278TIP3   OH261248   0.434   4.043  14.253 -0.8097  0.4120 -0.2786
13278TIP3    H161249   0.457   4.131  14.282  1.0747  0.4411 -1.6882
13278TIP3    H261250   0.381   4.057  14.174 -0.7531  0.2894 -0.3385
13279TIP3   OH261251   6.463   4.825   1.990 -0.3270 -0.0549  0.4246
13279TIP3    H161252   6.442   4.736   2.019  1.9962 -0.8889 -0.2693
13279TIP3    H261253   6.476   4.816   1.895  2.8385  0.3660  0.7570
13280TIP3   OH261254   3.344   6.274   1.104 -0.1417 -0.1532  0.8020
13280TIP3    H161255   3.311   6.201   1.051 -2.6306  1.6604 -0.2171
13280TIP3    H261256   3.362   6.343   1.041  1.2287  0.4839  1.8702
13281TIP3   OH261257   2.645   4.723  15.336  0.4013 -0.2284 -0.7836
13281TIP3    H161258   2.565   4.678  15.311 -0.7455  1.6136 -0.5557
13281TIP3    H261259   2.694   4.733  15.254 -0.8244  0.9391 -1.4039
13282TIP3   OH261260   4.233   1.505   2.911  0.7421  0.2187 -0.2660
13282TIP3    H161261   4.312   1.480   2.863 -0.5331 -0.2098 -2.2011
13282TIP3    H261262   4.184   1.423   2.922  0.3832  0.5386  0.6214
13283TIP3   OH261263   4.735   0.841   4.533 -0.2001 -0.0648  0.6335
13283TIP3    H161264   4.801   0.899   4.494 -0.7868  0.4821  0.4410
13283TIP3    H261265   4.725   0.770   4.470 -0.3946  0.2838  0.2658
13284TIP3   OH261266   3.645   4.215  15.760  0.4640  0.2307 -0.0462
13284TIP3    H161267   3.565   4.162  15.754  0.9864 -0.5588 -0.1537
13284TIP3    H261268   3.614   4.305  15.752 -0.2412 -0.1477 -1.7093
13285TIP3   OH261269   6.763   2.738  13.779  0.3732 -0.6072  0.2546
13285TIP3    H161270   6.754   2.798  13.706 -1.0059 -0.3794  0.5832
13285TIP3    H261271   6.807   2.788  13.847  3.2229 -1.3502 -0.9967
13286TIP3   OH261272   3.199   5.297  15.337 -0.0278 -0.4784 -0.1936
13286TIP3    H161273   3.117   5.343  15.322  0.9988  1.4237 -0.2302
13286TIP3    H261274   3.234   5.281  15.250 -0.7962 -2.1260 -0.2048
13287TIP3   OH261275   4.927   4.844   5.186 -0.2433  0.0778  0.2848
13287TIP3    H161276   4.940   4.776   5.121  1.7669  0.7558 -0.0687
13287TIP3    H261277   4.975   4.814   5.263 -0.1560  0.6363  0.4536
13288TIP3   OH261278   3.465   5.596  13.883 -0.3797 -0.3402  0.4464
13288TIP3    H161279   3.540   5.608  13.825 -0.6414 -0.7623  0.0142
13288TIP3    H261280   3.471   5.504  13.911 -0.2236 -0.1269  1.1335
13289TIP3   OH261281   0.736   5.245  15.100 -0.2708 -0.3658 -0.1066
13289TIP3    H161282   0.741   5.305  15.025 -0.6505 -0.3730 -0.1383
13289TIP3    H261283   0.718   5.160  15.061  3.1182 -1.0546 -0.3102
13290TIP3   OH261284   5.393   4.395   2.348 -0.0141 -0.0868  0.7283
13290TIP3    H161285   5.359   4.357   2.267 -0.1527  0.3906  0.5600
13290TIP3    H261286   5.326   4.457   2.376  0.1450 -0.0715  1.0787
13291TIP3   OH261287   2.617   6.147   3.260  0.0298  0.1183 -0.2610
13291TIP3    H161288   2.524   6.164   3.277 -0.1801 -0.3929 -0.8673
13291TIP3    H261289   2.626   6.052   3.268  0.2096  0.0192 -1.6004
13292TIP3   OH261290   0.451   5.962   0.913 -0.3542  0.5063  0.5320
13292TIP3    H161291   0.530   5.922   0.948 -0.8301 -0.3904  0.5864
13292TIP3    H261292   0.405   5.891   0.868 -0.8681  1.1371  0.0437
13293TIP3   OH261293   5.038   5.988   2.661  0.0773  0.2933  0.0894
13293TIP3    H161294   5.115   5.965   2.608 -0.3966 -0.8932 -0.1198
13293TIP3    H261295   5.060   5.958   2.749 -0.2123 -0.2138 -0.0086
13294TIP3   OH261296   6.653   2.597  17.208 -0.0651 -0.0395 -0.1546
13294TIP3    H161297   6.629   2.565  17.121  0.3609  0.6367 -0.5289
13294TIP3    H261298   6.572   2.635  17.243 -0.1709 -0.0607 -0.3722
13295TIP3   OH261299   4.073   4.216  13.494 -0.4211 -0.6893 -0.1474
13295TIP3    H161300   4.007   4.267  13.541  0.2164 -1.0102  1.1299
13295TIP3    H261301   4.024   4.146  13.452 -0.9398 -0.7773  0.5865
13296TIP3   OH261302   3.443   0.866  15.657 -0.3440  0.9695 -0.1460
13296TIP3    H161303   3.382   0.793  15.660 -0.3658  0.9389 -1.3007
13296TIP3    H261304   3.422   0.917  15.736 -1.7610  0.8817 -0.4475
13297TIP3   OH261305   2.065   6.046   1.657  0.3071 -0.0779 -0.3199
13297TIP3    H161306   2.015   5.992   1.718  0.3271  0.1321 -0.1190
13297TIP3    H261307   2.045   6.136   1.682  0.3352  0.0096 -0.6051
13298TIP3   OH261308   2.964   5.399   2.225 -0.0112 -0.5193  0.3639
13298TIP3    H161309   2.954   5.429   2.316 -0.9360 -0.8464  0.3664
13298TIP3    H261310   2.889   5.343   2.209 -2.1730  2.8106 -1.9318
13299TIP3   OH261311   3.963   1.254  14.237  0.7515  0.3263 -0.3884
13299TIP3    H161312   3.906   1.200  14.292  0.6866  0.8779  0.0932
13299TIP3    H261313   4.020   1.191  14.193  1.3835 -0.0907  0.9712
13300TIP3   OH261314   5.824   6.222   2.555 -0.5264  0.6739 -0.2994
13300TIP3    H161315   5.847   6.145   2.606 -2.8976  0.4800  0.5253
13300TIP3    H261316   5.819   6.293   2.619  0.7258  1.3361 -0.9186
13301TIP3   OH261317   5.191   3.312  12.638  0.2173 -0.1523 -0.5608
13301TIP3    H161318   5.196   3.328  12.544  0.0948  0.2883 -0.4934
13301TIP3    H261319   5.127   3.375  12.670  0.2775 -0.2814 -0.1782
13302TIP3   OH261320   2.812   6.744   3.890 -0.3639  0.6885 -1.0198
13302TIP3    H161321   2.812   6.649   3.874 -1.9414  0.1943  1.6908
13302TIP3    H261322   2.748   6.756   3.960 -0.0825  3.7691 -1.2560
13303TIP3   OH261323   4.847   4.994  15.231  0.0045 -0.3735 -0.2256
13303TIP3    H161324   4.817   4.944  15.155  0.7226  2.6068 -2.5568
13303TIP3    H261325   4.934   4.959  15.250  0.5764  0.0529 -1.9474
13304TIP3   OH261326   2.021   0.880  13.405 -0.1402 -0.4413  0.5204
13304TIP3    H161327   2.011   0.791  13.373  0.3126  0.3032 -1.8047
13304TIP3    H261328   2.114   0.899  13.394 -0.3999  0.6341  0.0961
13305TIP3   OH261329   2.756   2.668  13.913  0.1246 -0.3306 -0.3372
13305TIP3    H161330   2.797   2.586  13.884 -1.8421 -1.9389  1.2472
13305TIP3    H261331   2.797   2.687  13.998  0.9680  0.6373 -0.9551
13306TIP3   OH261332   3.500   5.952  15.508 -0.2406 -0.0949  0.4935
13306TIP3    H161333   3.531   6.035  15.471 -0.3388 -1.0702 -1.9026
13306TIP3    H261334   3.515   5.888  15.438 -0.9586 -1.9417  1.9892
13307TIP3   OH261335   6.392   1.355   1.858 -0.0181  0.3286 -0.1752
13307TIP3    H161336   6.312   1.405   1.875 -0.6423  0.0348 -2.1155
13307TIP3    H261337   6.448   1.415   1.809 -0.0805 -0.2974 -1.0227
13308TIP3   OH261338   0.332   1.085  12.305 -1.3272 -0.2926  0.2141
13308TIP3    H161339   0.395   1.136  12.254 -2.5942  1.4574  0.3571
13308TIP3    H261340   0.355   1.104  12.396 -1.7452 -0.0409  0.2678
13309TIP3   OH261341   6.536   6.150   2.836 -0.0745 -0.0171  0.1275
13309TIP3    H161342   6.453   6.165   2.882  0.2416  0.3663  0.5852
13309TIP3    H261343   6.598   6.206   2.882  0.3533 -0.0056 -0.4643
13310TIP3   OH261344   3.183   2.691  12.942  0.5462 -0.3714 -0.4760
13310TIP3    H161345   3.260   2.666  12.891  0.5662  0.9534 -1.1087
13310TIP3    H261346   3.154   2.610  12.983  1.6846 -1.0729 -1.0388
13311TIP3   OH261347   4.554   3.088  16.233 -0.0962  0.5927 -0.0745
13311TIP3    H161348   4.609   3.153  16.190  0.1257  0.2334 -0.3278
13311TIP3    H261349   4.493   3.058  16.165 -0.5587  0.9322  0.1833
13312TIP3   OH261350   6.111   2.787  11.184 -0.9375 -0.1376  0.5171
13312TIP3    H161351   6.160   2.730  11.244  1.1024  0.1328 -0.8456
13312TIP3    H261352   6.076   2.726  11.118 -1.7460 -0.2256  1.0199
13313TIP3   OH261353   5.186   5.705  12.051 -0.3600  0.0578  0.1455
13313TIP3    H161354   5.198   5.799  12.068  1.3000 -0.2010  0.4721
13313TIP3    H261355   5.094   5.689  12.071 -0.3157  1.3457  1.4742
13314TIP3   OH261356   6.406   4.770  12.757 -1.3355 -0.0805  0.7018
13314TIP3    H161357   6.442   4.854  12.730 -1.5681  0.0886  0.9183
13314TIP3    H261358   6.454   4.706  12.704 -0.6788  0.1337  1.0317
13315TIP3   OH261359   0.801   0.159  16.497  0.2518  0.0694  0.5130
13315TIP3    H161360   0.841   0.076  16.473  0.7816  0.8514 -1.4220
13315TIP3    H261361   0.744   0.138  16.571 -0.0199 -2.1029 -0.2731
13316TIP3   OH261362   3.202   5.427   0.818 -0.3192 -0.5700 -0.3779
13316TIP3    H161363   3.225   5.412   0.726  1.1347  1.2194 -0.3153
13316TIP3    H261364   3.137   5.358   0.837 -0.4335 -1.1415 -2.6396
13317TIP3   OH261365   3.425   2.774  12.772 -0.7868 -0.1006  0.1841
13317TIP3    H161366   3.506   2.795  12.726 -0.5191  0.8017  1.0427
13317TIP3    H261367   3.357   2.820  12.723 -0.7036 -0.4023 -0.2106
13318TIP3   OH261368   0.619   3.121  16.688  0.2057  1.0455  0.3556
13318TIP3    H161369   0.652   3.168  16.612 -2.0637  0.9700 -0.7174
13318TIP3    H261370   0.599   3.189  16.752 -0.5355  1.3498 -0.1885
13319TIP3   OH261371   5.007   4.531  16.876 -0.2131 -0.3557  0.1698
13319TIP3    H161372   5.018   4.506  16.784  1.1758 -0.4393  0.3505
13319TIP3    H261373   5.016   4.626  16.876  2.5908 -0.6054  0.5983
13320TIP3   OH261374   1.510   4.598  16.888  0.0951  0.4085  0.0008
13320TIP3    H161375   1.598   4.588  16.926 -0.3488  2.0149  1.5121
13320TIP3    H261376   1.520   4.669  16.824 -0.1478  0.7377  0.3279
13321TIP3   OH261377   0.182   4.977   4.356 -0.2283  0.4758 -0.2436
13321TIP3    H161378   0.088   4.996   4.361 -0.5137 -0.2475 -2.3937
13321TIP3    H261379   0.191   4.893   4.401 -1.0171 -0.6484 -2.1316
13322TIP3   OH261380   2.129   3.826   0.213 -0.3044  0.5424 -0.1969
13322TIP3    H161381   2.150   3.882   0.138 -0.7033  0.7637 -0.1473
13322TIP3    H261382   2.035   3.807   0.202 -0.6298  1.4970  0.8646
13323TIP3   OH261383   4.427   0.033   6.596 -1.1795 -0.0770  0.5289
13323TIP3    H161384   4.440   0.081   6.514  0.5072  0.0899  0.8791
13323TIP3    H261385   4.362  -0.034   6.575 -0.6892 -0.0926 -0.9725
13324TIP3   OH261386   4.114   1.877   5.684 -0.1621 -0.2034  0.6365
13324TIP3    H161387   4.100   1.821   5.760  1.3596  1.3141  2.0879
13324TIP3    H261388   4.160   1.954   5.719 -1.6148  1.6434 -1.3948
13325TIP3   OH261389   2.494   3.857  15.415 -0.0774 -0.3293  0.3514
13325TIP3    H161390   2.424   3.840  15.478  0.5157 -0.0505  1.0963
13325TIP3    H261391   2.570   3.877  15.469  0.2763  0.5628 -0.4638
13326TIP3   OH261392   0.829   1.748  11.085 -0.3640  0.0299  0.3279
13326TIP3    H161393   0.749   1.797  11.065 -1.1119 -1.5531 -0.6282
13326TIP3    H261394   0.891   1.815  11.113 -2.1084  1.2542  1.3963
13327TIP3   OH261395   4.354   4.114   3.412  0.1948 -0.3232  0.0027
13327TIP3    H161396   4.271   4.151   3.441 -0.5690 -1.7532 -0.3127
13327TIP3    H261397   4.332   4.025   3.383  1.9771 -1.0221  0.7342
13328TIP3   OH261398   0.475   4.059   0.067 -0.0882  0.4345  0.0204
13328TIP3    H161399   0.506   4.051   0.157 -0.1732  1.2568  0.1280
13328TIP3    H261400   0.400   4.000   0.062 -0.0012  0.2862  0.4504
13329TIP3   OH261401   4.302   0.282   5.999  0.3360 -0.2115  0.2841
13329TIP3    H161402   4.217   0.241   6.011  1.1133 -2.1484 -0.6212
13329TIP3    H261403   4.340   0.285   6.087 -0.5783  0.4869  0.6615
13330TIP3   OH261404   0.456   5.393   1.653  0.7541  0.0193  0.2882
13330TIP3    H161405   0.426   5.307   1.683  0.3244  0.6128  1.5928
13330TIP3    H261406   0.401   5.455   1.699  2.1184  1.0441  0.5826
13331TIP3   OH261407   2.983   1.004   4.307  0.3917 -0.1261  0.4678
13331TIP3    H161408   3.018   0.921   4.339  1.8046  0.3404  0.1455
13331TIP3    H261409   2.896   0.982   4.273  1.3201 -1.7570 -0.9251
13332TIP3   OH261410   5.478   4.776   6.141  0.2151 -0.2557  0.0513
13332TIP3    H161411   5.507   4.865   6.161 -0.5716 -0.2481  1.2424
13332TIP3    H261412   5.407   4.787   6.078 -0.0133 -0.0144  0.3472
13333TIP3   OH261413   2.991   4.727   2.525 -0.4035  0.0137 -0.1774
13333TIP3    H161414   2.921   4.787   2.552 -0.6226 -0.0314 -0.6414
13333TIP3    H261415   2.951   4.640   2.531 -0.6977  0.0542 -1.3768
13334TIP3   OH261416   3.265   3.213  14.258  0.3246 -0.4538 -0.2538
13334TIP3    H161417   3.186   3.184  14.304 -0.2297 -0.3937 -1.1575
13334TIP3    H261418   3.337   3.184  14.314 -0.2853 -1.7780 -0.1306
13335TIP3   OH261419   6.390   4.483   0.310  0.1609  0.0306  0.2892
13335TIP3    H161420   6.296   4.479   0.324  0.4218 -0.5507  1.9888
13335TIP3    H261421   6.402   4.554   0.246 -1.3720  0.5877  0.6079
13336TIP3   OH261422   5.744   2.881  16.905  0.5701  0.7906 -0.8285
13336TIP3    H161423   5.803   2.870  16.979 -0.8740  0.7237  0.3448
13336TIP3    H261424   5.717   2.793  16.881  0.3779  0.8599 -0.8727
13337TIP3   OH261425   1.651   2.257   3.672  0.3747  0.5138  0.0204
13337TIP3    H161426   1.605   2.204   3.737 -0.1298  2.9913  1.7363
13337TIP3    H261427   1.582   2.292   3.616  0.7089 -0.6656 -1.1358
13338TIP3   OH261428   2.944   6.118   4.936 -0.1667  0.4164 -0.2307
13338TIP3    H161429   2.996   6.088   4.862 -0.5975  2.1802 -1.2730
13338TIP3    H261430   2.890   6.042   4.960  0.1090 -0.2253 -1.5895
13339TIP3   OH261431   4.197   2.417   5.286  0.4061  0.0750  0.1698
13339TIP3    H161432   4.290   2.398   5.284  0.4573  0.3285  0.0493
13339TIP3    H261433   4.160   2.353   5.346  0.8633  0.8526  1.2966
13340TIP3   OH261434   5.907   1.627   4.324  0.1331 -0.3401  0.7864
13340TIP3    H161435   5.940   1.565   4.389  0.3840  0.0207  1.0067
13340TIP3    H261436   5.854   1.574   4.265  0.5262 -0.7964  0.8444
13341TIP3   OH261437   2.611   0.197  11.906  0.1533 -0.1709  0.4661
13341TIP3    H161438   2.519   0.181  11.929  0.0606  0.1613  0.3292
13341TIP3    H261439   2.657   0.120  11.938 -0.2669 -0.6395 -0.0526
13342TIP3   OH261440   2.841   4.449  13.439 -0.4285 -0.2476 -0.4523
13342TIP3    H161441   2.798   4.476  13.520  0.5170 -1.5887  0.5235
13342TIP3    H261442   2.898   4.522  13.417  1.4602 -1.0116  1.6761
13343TIP3   OH261443   1.040   5.211   1.347  0.5209  0.1463 -0.0904
13343TIP3    H161444   0.976   5.165   1.292  1.9234  0.3709 -1.9612
13343TIP3    H261445   1.122   5.202   1.300  2.1605 -1.1849  2.8703
13344TIP3   OH261446   6.285   1.498   5.895 -0.0238 -0.2710  0.0779
13344TIP3    H161447   6.241   1.534   5.818  1.9996  1.8354 -0.1346
13344TIP3    H261448   6.365   1.458   5.861 -0.3000 -1.4803  0.8185
13345TIP3   OH261449   0.540   4.226  11.629 -0.1244 -0.0447 -0.2450
13345TIP3    H161450   0.456   4.270  11.618  0.5801  0.8490 -2.4562
13345TIP3    H261451   0.561   4.237  11.721 -1.5269  1.4033 -0.0736
13346TIP3   OH261452   2.646   4.630  13.288  0.0619  0.4432 -0.3587
13346TIP3    H161453   2.671   4.701  13.229 -0.2509  0.0282 -1.0022
13346TIP3    H261454   2.729   4.595  13.320  0.2329  0.7415 -0.4758
13347TIP3   OH261455   5.250   4.433  10.918 -0.1461  0.1915 -0.6371
13347TIP3    H161456   5.313   4.414  10.987  0.6931 -1.8162 -1.9139
13347TIP3    H261457   5.232   4.526  10.927  2.0631  0.5364  0.5376
13348TIP3   OH261458   5.378   5.358   1.294 -0.4729  0.2750  0.3313
13348TIP3    H161459   5.288   5.383   1.312 -0.1019  1.6042  0.3944
13348TIP3    H261460   5.375   5.317   1.207 -1.5665 -2.2478  1.5179
13349TIP3   OH261461   1.761   1.035   1.139 -0.4129  0.1677  0.2731
13349TIP3    H161462   1.681   1.085   1.151  0.3953  1.7886 -1.0064
13349TIP3    H261463   1.805   1.040   1.224 -0.8207  0.7510  0.4506
13350TIP3   OH261464   0.931   6.347  16.529  0.5414 -0.3371 -0.4896
13350TIP3    H161465   0.836   6.342  16.542  0.4777 -2.0220 -1.4843
13350TIP3    H261466   0.964   6.386  16.610 -0.8910 -0.8645  0.3702
13351TIP3   OH261467   1.640   3.757   3.475  0.3113  0.0418 -0.0146
13351TIP3    H161468   1.714   3.697   3.472 -0.1459 -0.4931 -0.9607
13351TIP3    H261469   1.674   3.835   3.519  1.0432 -0.7195  0.7819
13352TIP3   OH261470   1.725   1.105  16.585  0.4300 -0.1847 -0.3987
13352TIP3    H161471   1.793   1.057  16.537 -0.2161 -2.1815  0.6145
13352TIP3    H261472   1.767   1.187  16.610  2.7759 -1.7058  0.8690
13353TIP3   OH261473   6.342   2.820   3.072  0.7863 -0.2382 -0.2580
13353TIP3    H161474   6.369   2.737   3.112  2.4066  0.2090 -0.4136
13353TIP3    H261475   6.294   2.865   3.142  4.1894  0.8381  1.5185
13354TIP3   OH261476   2.158   3.072   6.839  0.5947 -0.2401  0.0884
13354TIP3    H161477   2.179   2.980   6.857 -1.9825 -1.3542 -2.1499
13354TIP3    H261478   2.216   3.096   6.767  0.3559 -0.5456 -0.2092
13355TIP3   OH261479   4.810   3.852   3.890  0.2400  0.3920 -0.2683
13355TIP3    H161480   4.775   3.936   3.859 -2.0435  0.2457  1.7057
13355TIP3    H261481   4.789   3.851   3.983  0.6416 -2.1811 -0.1748
13356TIP3   OH261482   2.948   6.290  16.129 -0.4139 -0.6334  0.0355
13356TIP3    H161483   2.956   6.234  16.206  0.6838 -0.8660 -0.2401
13356TIP3    H261484   2.907   6.235  16.063  0.9279 -1.2193 -0.3293
13357TIP3   OH261485   2.240   4.064  13.264 -0.1288  0.2297  0.5120
13357TIP3    H161486   2.149   4.066  13.235  0.2799 -0.4170 -0.8479
13357TIP3    H261487   2.279   4.143  13.227 -0.4102  1.1278  2.0786
13358TIP3   OH261488   3.690   3.822   4.792  0.2897 -0.3790 -0.1161
13358TIP3    H161489   3.675   3.778   4.876 -0.3865 -0.5682 -0.3364
13358TIP3    H261490   3.625   3.892   4.789  1.7863  1.0926  0.5268
13359TIP3   OH261491   0.212   3.089   6.135  0.6468  0.3345 -0.2162
13359TIP3    H161492   0.172   3.112   6.219 -0.3263 -0.9708 -0.3102
13359TIP3    H261493   0.306   3.085   6.154  0.3737 -0.6703  0.9935
13360TIP3   OH261494   1.164   0.419  15.614  0.1611  0.2017  0.3647
13360TIP3    H161495   1.254   0.439  15.640  0.0286  0.3397  0.7227
13360TIP3    H261496   1.157   0.324  15.622  0.3063  0.1801  0.2347
13361TIP3   OH261497   0.515   6.696  17.065 -0.3008  0.0573  0.3641
13361TIP3    H161498   0.447   6.630  17.075 -0.6337  0.3966  0.3681
13361TIP3    H261499   0.468   6.775  17.037  0.3040 -0.1677 -1.3117
13362TIP3   OH261500   2.482   4.531  16.144  0.3544  0.7649 -0.3774
13362TIP3    H161501   2.415   4.478  16.188 -1.6119  3.5793  0.1535
13362TIP3    H261502   2.543   4.554  16.214  1.4819 -1.1414 -0.7037
13363TIP3   OH261503   2.756   1.739   1.592  0.0203 -0.2361 -0.9185
13363TIP3    H161504   2.745   1.819   1.643 -0.7892 -1.6842  1.2247
13363TIP3    H261505   2.764   1.670   1.657  1.8137 -1.7861 -2.7224
13364TIP3   OH261506   5.466   2.848  11.325  0.1691 -0.2980  0.1910
13364TIP3    H161507   5.419   2.906  11.385  0.4136 -1.1468  1.2147
13364TIP3    H261508   5.435   2.874  11.238 -1.7106 -0.3931  0.8101
13365TIP3   OH261509   1.430   5.665  16.027 -0.1283  0.4601  0.2286
13365TIP3    H161510   1.453   5.749  16.067  1.8861  0.4120 -0.7323
13365TIP3    H261511   1.351   5.637  16.073 -0.6694  2.7367  0.7682
13366TIP3   OH261512   3.512   2.234   4.093 -0.4759  0.1492 -0.7731
13366TIP3    H161513   3.580   2.227   4.027  0.6830 -0.4066  0.4680
13366TIP3    H261514   3.535   2.313   4.143 -2.1970  1.4535 -1.9599
13367TIP3   OH261515   1.403   1.621  14.419 -0.0418  0.5295  0.6184
13367TIP3    H161516   1.329   1.634  14.359 -0.4895  2.5698  1.5742
13367TIP3    H261517   1.370   1.557  14.483 -0.2068 -0.2394 -0.2241
13368TIP3   OH261518   0.567   5.633   2.781  0.9892  0.3629 -0.0673
13368TIP3    H161519   0.563   5.716   2.733  1.3009  0.3228 -0.1659
13368TIP3    H261520   0.556   5.659   2.873 -2.2607  0.1780 -0.3468
13369TIP3   OH261521   6.584   4.592   1.720 -0.2697  0.2564  0.3257
13369TIP3    H161522   6.600   4.680   1.686  0.6197  0.4021  1.0842
13369TIP3    H261523   6.500   4.566   1.683 -0.2224  1.1674 -0.4303
13370TIP3   OH261524   5.620   3.698  14.607 -0.1601 -0.1547 -0.0279
13370TIP3    H161525   5.710   3.665  14.610 -0.2143 -0.4049 -1.1138
13370TIP3    H261526   5.597   3.712  14.699  0.7302 -0.7932  0.2984
13371TIP3   OH261527   0.588   5.842   4.636  0.2262  0.0662  0.6739
13371TIP3    H161528   0.510   5.787   4.632  0.4351 -0.1225 -1.2573
13371TIP3    H261529   0.648   5.795   4.693 -1.5621  0.8691  3.2880
13372TIP3   OH261530   4.839   5.003  16.648  0.2703 -0.6303 -0.7321
13372TIP3    H161531   4.820   5.092  16.679  0.9295 -0.3118 -1.2283
13372TIP3    H261532   4.839   5.011  16.552  2.1944 -0.7613 -0.7588
13373TIP3   OH261533   5.787   4.905   5.076 -0.1381 -0.1830  0.1370
13373TIP3    H161534   5.845   4.833   5.103 -1.3279 -1.4490 -0.6946
13373TIP3    H261535   5.744   4.932   5.157  0.1317 -0.5633  0.4093
13374TIP3   OH261536   0.300   1.502  14.205  0.4235 -0.3119  0.6330
13374TIP3    H161537   0.293   1.498  14.110 -3.6522 -2.7539  0.9317
13374TIP3    H261538   0.237   1.569  14.232  1.2825  0.1073  1.6527
13375TIP3   OH261539   4.088   0.795   0.803 -0.5353  0.0496  0.3446
13375TIP3    H161540   4.015   0.856   0.788  0.6092  1.2207 -0.5911
13375TIP3    H261541   4.141   0.838   0.870  1.3837  1.0871 -1.7992
13376TIP3   OH261542   4.455   0.465  17.148  0.0414  0.4043 -0.0011
13376TIP3    H161543   4.441   0.415  17.228  0.4243  1.9824  1.0789
13376TIP3    H261544   4.367   0.475  17.111 -0.0055 -1.2902 -0.4052
13377TIP3   OH261545   3.881   6.429  14.469 -0.0805  0.6449 -0.2666
13377TIP3    H161546   3.918   6.386  14.392 -2.5273 -0.4899 -0.8545
13377TIP3    H261547   3.880   6.522  14.446  0.3825  0.4438 -1.1135
13378TIP3   OH261548   0.787   5.057   4.302 -0.2653  0.0966  0.5828
13378TIP3    H161549   0.700   5.096   4.295  0.1436  0.8582 -0.2989
13378TIP3    H261550   0.789   4.993   4.231  0.6250  1.5060 -0.6802
13379TIP3   OH261551   3.435   4.988   2.017  0.3316  0.0623  0.0786
13379TIP3    H161552   3.518   5.009   1.973  0.0028 -0.6714 -0.9209
13379TIP3    H261553   3.378   4.956   1.946 -0.0184 -1.6636  1.1078
13380TIP3   OH261554   6.237   2.847  16.115  0.2422 -1.1524 -0.0935
13380TIP3    H161555   6.238   2.770  16.172  1.6389 -2.6826 -2.1465
13380TIP3    H261556   6.185   2.821  16.040  1.1681 -0.2893 -1.0479
13381TIP3   OH261557   5.309   5.097   2.216 -0.4658  0.4246 -0.0044
13381TIP3    H161558   5.220   5.109   2.249  0.0700  2.1556  0.8271
13381TIP3    H261559   5.334   5.182   2.182  0.1610 -0.5528 -2.0409
13382TIP3   OH261560   4.075   3.585   3.311 -0.0057 -0.0390 -0.1470
13382TIP3    H161561   4.054   3.614   3.223  1.2448  2.0352  0.2144
13382TIP3    H261562   4.061   3.490   3.309 -0.5739  0.0679 -2.3807
13383TIP3   OH261563   1.182   3.520  15.760 -0.6828  0.0647 -0.0917
13383TIP3    H161564   1.204   3.510  15.668 -1.8760  0.4856 -0.4295
13383TIP3    H261565   1.130   3.442  15.781 -2.1249  0.9366 -0.3173
13384TIP3   OH261566   0.082   5.055  14.109 -0.5680  0.1372  0.1628
13384TIP3    H161567   0.133   5.011  14.176 -1.9175 -0.7226  0.6421
13384TIP3    H261568  -0.004   5.014  14.114 -0.7712  0.3018 -1.8762
13385TIP3   OH261569   2.232   2.814   1.757 -0.2870  0.4423  0.2097
13385TIP3    H161570   2.297   2.838   1.691 -0.6474  0.8948  0.0168
13385TIP3    H261571   2.267   2.851   1.839 -1.0439  1.9992 -0.1588
13386TIP3   OH261572   2.399   5.187  13.308  0.2919  0.4451  0.3989
13386TIP3    H161573   2.481   5.141  13.290 -2.4557 -5.2198  1.0967
13386TIP3    H261574   2.399   5.200  13.403  1.1572  2.1491  0.1790
13387TIP3   OH261575   1.041   3.842   2.967 -0.3732  0.3220  0.0855
13387TIP3    H161576   1.118   3.879   2.924  0.9308 -0.1739  1.9165
13387TIP3    H261577   1.074   3.764   3.011 -1.7991  0.4696  1.4559
13388TIP3   OH261578   3.732   6.228  11.542 -0.4590 -0.6776  1.0138
13388TIP3    H161579   3.799   6.189  11.599 -0.1256  0.4175  1.3794
13388TIP3    H261580   3.680   6.153  11.512  0.0392 -1.3836  1.8827
13389TIP3   OH261581   1.231   3.825   5.453 -0.2063  0.4947  0.3463
13389TIP3    H161582   1.212   3.751   5.512 -0.6461  0.0243 -0.3785
13389TIP3    H261583   1.234   3.901   5.511  2.3675 -0.3727  1.4080
13390TIP3   OH261584   6.363   6.480  11.208 -0.4049  0.5274 -0.0491
13390TIP3    H161585   6.359   6.526  11.125  0.3941  1.1193  0.2345
13390TIP3    H261586   6.401   6.543  11.269  0.3552 -0.3772  0.4254
13391TIP3   OH261587   4.963   5.661   3.135 -0.0307 -0.6635 -0.5501
13391TIP3    H161588   4.951   5.580   3.086 -0.3400 -0.4847 -0.7686
13391TIP3    H261589   5.049   5.693   3.109 -0.2493 -0.4998 -1.0735
13392TIP3   OH261590   5.627   3.860   0.364  0.1196 -0.0689 -0.4435
13392TIP3    H161591   5.712   3.880   0.403  0.4441  0.0794 -1.2177
13392TIP3    H261592   5.572   3.834   0.438  1.7319 -3.2444 -0.2499
13393TIP3   OH261593   5.509   3.553  15.764  0.2328 -0.1023  0.6634
13393TIP3    H161594   5.473   3.620  15.822  1.0241  0.1726  0.8463
13393TIP3    H261595   5.473   3.470  15.797 -1.5470  0.3142 -0.1774
13394TIP3   OH261596   1.952   6.175   2.003  0.5248 -0.0295  0.0569
13394TIP3    H161597   1.955   6.232   1.926  0.7699  1.0511  0.8570
13394TIP3    H261598   1.978   6.231   2.075 -3.1959 -0.0931  1.5197
13395TIP3   OH261599   0.077   1.307   5.087 -0.0886  0.6938 -0.1149
13395TIP3    H161600   0.074   1.274   4.998 -2.1621  0.3460  0.0619
13395TIP3    H261601   0.052   1.233   5.142  3.2154  0.2772  0.9859
13396TIP3   OH261602   0.024   4.784  13.729  0.0730 -0.1656  0.3562
13396TIP3    H161603  -0.069   4.792  13.752 -0.0353 -0.0520 -0.0994
13396TIP3    H261604   0.025   4.717  13.660  0.2837  0.1012  0.1012
13397TIP3   OH261605   3.946   5.863   1.561 -0.1528  0.0517  0.2051
13397TIP3    H161606   3.870   5.824   1.604 -0.1713 -0.9111 -0.6749
13397TIP3    H261607   3.928   5.957   1.561 -1.4001 -0.1738 -0.1023
13398TIP3   OH261608   2.543   1.959   1.490  0.0887 -0.0795  0.4558
13398TIP3    H161609   2.532   1.929   1.580 -1.1339  0.2181  0.4203
13398TIP3    H261610   2.562   2.053   1.498 -1.6072  0.2858  0.3509
13399TIP3   OH261611   3.342   0.285   0.766 -0.0143  0.9044  0.2046
13399TIP3    H161612   3.294   0.255   0.688 -1.0409  0.5175  0.9771
13399TIP3    H261613   3.374   0.204   0.807 -0.8450  1.0022  1.0523
13400TIP3   OH261614   5.737   2.142  12.277  0.5191  0.2794 -0.2493
13400TIP3    H161615   5.704   2.231  12.263  2.9447  1.2736  0.0924
13400TIP3    H261616   5.702   2.117  12.362  2.2251  2.0843  1.0338
13401TIP3   OH261617   6.629   6.573   4.444  0.8120  0.2514  0.3369
13401TIP3    H161618   6.554   6.517   4.425  0.9803 -0.3982  1.5024
13401TIP3    H261619   6.662   6.600   4.359 -0.5866  0.3243 -0.1924
13402TIP3   OH261620   4.867   3.642   1.512 -0.5052  0.5401 -0.1476
13402TIP3    H161621   4.935   3.662   1.576  0.4266 -1.5443 -0.4691
13402TIP3    H261622   4.836   3.555   1.535 -2.3693  1.0355 -0.6384
13403TIP3   OH261623   4.545   3.083   2.356  0.6479 -0.6786  0.6016
13403TIP3    H161624   4.497   3.163   2.376  1.2589 -0.3219  0.6700
13403TIP3    H261625   4.523   3.022   2.427 -0.9749 -1.0872 -0.2438
13404TIP3   OH261626   0.849   4.810  11.781 -0.1907  0.0635  0.2319
13404TIP3    H161627   0.774   4.755  11.806  0.6119 -0.1987  2.1099
13404TIP3    H261628   0.916   4.748  11.754  0.2676  0.1642  1.1187
13405TIP3   OH261629   1.018   2.316   2.008  0.6579  0.4436  0.1111
13405TIP3    H161630   1.007   2.312   2.103  0.5087  0.2361  0.0855
13405TIP3    H261631   0.971   2.240   1.975  1.1386  0.2307 -0.0905
13406TIP3   OH261632   3.409   1.776  12.576  0.6242  0.4635 -0.1432
13406TIP3    H161633   3.404   1.716  12.502 -0.9157 -0.0006  0.3084
13406TIP3    H261634   3.401   1.720  12.653 -1.4944  1.2740  0.2729
13407TIP3   OH261635   4.733   3.058  17.103 -0.1081  0.2827 -0.5265
13407TIP3    H161636   4.824   3.042  17.078 -0.5472  0.1352 -2.0653
13407TIP3    H261637   4.682   2.996  17.051 -1.0461 -0.1384  0.8571
13408TIP3   OH261638   5.809   0.757  15.765 -0.0659 -0.6162  0.1483
13408TIP3    H161639   5.901   0.734  15.776  0.0541 -0.6651 -0.8944
13408TIP3    H261640   5.784   0.718  15.682 -1.0509 -0.6578  0.4580
13409TIP3   OH261641   1.473   4.721  11.933  0.3095  0.0480 -0.3886
13409TIP3    H161642   1.426   4.658  11.988  1.9717  0.4675  1.5360
13409TIP3    H261643   1.414   4.797  11.928 -0.2154 -0.3245  0.0918
13410TIP3   OH261644   0.300   4.364  12.427  0.1874 -0.3390  0.7500
13410TIP3    H161645   0.278   4.282  12.384  1.0479  0.1715 -0.7200
13410TIP3    H261646   0.227   4.382  12.486 -1.3196 -0.7501 -0.9719
13411TIP3   OH261647   4.824   0.574   4.989 -0.3341 -0.5726 -0.5063
13411TIP3    H161648   4.816   0.596   4.896  0.2944  0.8335 -0.2433
13411TIP3    H261649   4.775   0.643   5.034 -1.2529 -1.6520  0.1853
13412TIP3   OH261650   2.887   1.690  11.762  0.4225 -0.3529  0.2402
13412TIP3    H161651   2.878   1.597  11.743 -0.0487 -0.1174 -0.7116
13412TIP3    H261652   2.943   1.724  11.692 -0.3910  0.3068 -0.0975
13413TIP3   OH261653   2.152   1.528   5.517 -0.1812 -0.1941  0.1826
13413TIP3    H161654   2.214   1.456   5.503  0.6944  0.1311  2.2308
13413TIP3    H261655   2.187   1.600   5.465  0.5942 -0.3420  0.4910
13414TIP3   OH261656   4.581   3.334  15.282  0.3308  0.2946  0.2118
13414TIP3    H161657   4.515   3.269  15.260 -2.3841  3.6401 -1.9047
13414TIP3    H261658   4.605   3.313  15.373 -1.8681 -2.4077  0.2486
13415TIP3   OH261659   5.907   1.154  15.786  0.5273  0.1672  0.1490
13415TIP3    H161660   5.971   1.223  15.805  0.0199  1.3297 -2.0963
13415TIP3    H261661   5.952   1.072  15.809  1.3720  1.2046  2.2602
13416TIP3   OH261662   3.118   3.910   3.747  0.4029 -0.1695 -0.0279
13416TIP3    H161663   3.054   3.895   3.677 -0.4852 -2.0321  1.1310
13416TIP3    H261664   3.161   3.992   3.723 -1.5563  0.4753 -1.4910
13417TIP3   OH261665   0.025   4.308  13.719 -0.4979 -0.3339 -0.3681
13417TIP3    H161666   0.085   4.283  13.789 -1.9912 -2.8723  0.0929
13417TIP3    H261667  -0.012   4.225  13.689 -3.2016  1.0912 -1.1324
13418TIP3   OH261668   0.954   6.726  16.801 -0.4959  0.1853 -0.0056
13418TIP3    H161669   0.876   6.776  16.828  0.7446  2.7915 -1.0147
13418TIP3    H261670   0.936   6.637  16.829 -2.6039  1.2805  2.3693
13419TIP3   OH261671   1.662   1.663  15.601  0.2311  0.5986  0.4062
13419TIP3    H161672   1.709   1.640  15.521 -0.5276 -1.9229  0.6403
13419TIP3    H261673   1.678   1.757  15.612  2.3155  0.5020 -1.3882
13420TIP3   OH261674   2.771   1.549   1.786  0.3482  0.3421 -0.3580
13420TIP3    H161675   2.826   1.472   1.800 -0.0495  0.4952  2.2700
13420TIP3    H261676   2.682   1.515   1.778  0.3336  0.4330 -0.6031
13421TIP3   OH261677   2.393   3.778  15.651  0.1548  0.0109  0.1376
13421TIP3    H161678   2.326   3.833  15.691 -1.1859 -1.2033 -0.3896
13421TIP3    H261679   2.472   3.796  15.701 -0.1178  2.8246 -0.3825
13422TIP3   OH261680   3.616   3.784   5.586 -0.0784 -0.1237 -0.0024
13422TIP3    H161681   3.614   3.860   5.528 -1.4013 -1.0822 -1.2641
13422TIP3    H261682   3.670   3.811   5.660  1.3807  1.2328 -1.5359
13423TIP3   OH261683   3.457   3.781  16.069  0.7941  0.0971  0.1335
13423TIP3    H161684   3.553   3.783  16.067  0.7594  1.2299 -1.7581
13423TIP3    H261685   3.433   3.846  16.134  1.3225 -0.9977  1.4411
13424TIP3   OH261686   0.557   3.572  12.056  0.4661  0.3879 -0.6907
13424TIP3    H161687   0.485   3.626  12.025  1.1577  1.0452 -1.1652
13424TIP3    H261688   0.631   3.596  12.001  0.8845 -0.7668 -0.6622
13425TIP3   OH261689   6.609   6.042  17.174 -0.0001 -0.1559  0.1117
13425TIP3    H161690   6.524   6.033  17.218 -0.8646 -0.1336 -1.5143
13425TIP3    H261691   6.645   5.953  17.174 -0.6501 -0.4290 -0.3997
13426TIP3   OH261692   5.125   2.581   5.094 -0.3537 -0.2634 -0.2511
13426TIP3    H161693   5.060   2.602   5.027 -0.1478  0.8638 -0.0943
13426TIP3    H261694   5.198   2.641   5.078  0.2014 -0.7878  0.2459
13427TIP3   OH261695   1.291   5.041  14.306 -0.6745  0.0026 -0.1359
13427TIP3    H161696   1.207   4.996  14.316 -0.4892 -0.9909 -2.6697
13427TIP3    H261697   1.274   5.111  14.243  0.6726 -1.1362 -1.8415
13428TIP3   OH261698   0.504   3.639   3.288 -0.4987  0.5958 -0.0943
13428TIP3    H161699   0.444   3.568   3.310  0.3382  0.8153  3.0962
13428TIP3    H261700   0.591   3.605   3.310  0.0683  1.9860 -0.1103
13429TIP3   OH261701   5.204   4.138  13.347  0.0327  0.0446 -0.6631
13429TIP3    H161702   5.133   4.078  13.369  0.6242 -0.7593 -0.8877
13429TIP3    H261703   5.243   4.162  13.431 -0.0131 -0.1288 -0.5931
13430TIP3   OH261704   6.189   0.347  12.957  0.0758  0.1189 -0.1236
13430TIP3    H161705   6.189   0.253  12.977 -1.3735  0.3561  1.0763
13430TIP3    H261706   6.112   0.360  12.902  0.3342  0.5866 -0.3761
13431TIP3   OH261707   5.072   4.262   0.567  0.3943 -0.3340 -0.2402
13431TIP3    H161708   5.040   4.349   0.594 -1.4607 -0.7174 -1.1410
13431TIP3    H261709   5.152   4.281   0.518  0.3429  0.8213  0.0897
13432TIP3   OH261710   3.006   1.406  13.139 -0.3493  0.2459  0.0438
13432TIP3    H161711   3.030   1.322  13.178  2.4185  0.5391 -0.9124
13432TIP3    H261712   3.036   1.471  13.202  0.1532  0.5845 -0.5374
13433TIP3   OH261713   4.369   1.306  13.758 -0.2770  0.6239  0.0544
13433TIP3    H161714   4.376   1.240  13.827  4.7417  1.3585  0.4033
13433TIP3    H261715   4.350   1.387  13.805  1.3141  0.7873  0.4484
13434TIP3   OH261716   4.554   5.471  12.150 -0.2875  0.3680  0.0979
13434TIP3    H161717   4.535   5.538  12.084  2.4222  1.3434  0.2362
13434TIP3    H261718   4.607   5.517  12.215  1.7294 -1.9133  0.1375
13435TIP3   OH261719   5.322   2.875  10.969  0.7066 -0.6268  0.0866
13435TIP3    H161720   5.321   2.791  10.924  1.7550 -0.3808 -0.4191
13435TIP3    H261721   5.311   2.940  10.899  1.8633 -0.2625  0.2350
13436TIP3   OH261722   4.367   4.979   1.240 -0.5398  0.6259 -0.1749
13436TIP3    H161723   4.294   5.000   1.298 -0.8941 -0.7111 -0.1285
13436TIP3    H261724   4.433   4.940   1.296 -0.3243  0.6007 -0.4429
13437TIP3   OH261725   5.721   4.017  11.934 -0.6696 -0.0304 -0.7548
13437TIP3    H161726   5.733   3.958  11.859  0.1454  0.0123 -0.6617
13437TIP3    H261727   5.789   4.084  11.922 -1.1928  0.5425 -0.5258
13438TIP3   OH261728   5.429   0.277  16.610 -0.3313 -0.0541  0.4704
13438TIP3    H161729   5.486   0.330  16.666  0.6599 -0.9934  0.3560
13438TIP3    H261730   5.481   0.262  16.531 -1.3776  0.4997 -0.3327
13439TIP3   OH261731   2.106   6.322  16.701  0.3321  0.2776 -0.1317
13439TIP3    H161732   2.160   6.305  16.624  0.6993 -1.8714  0.5648
13439TIP3    H261733   2.128   6.412  16.726  2.5617 -0.0695 -0.6852
13440TIP3   OH261734   2.902   2.590  14.191  0.0071 -0.3956  0.0068
13440TIP3    H161735   2.857   2.514  14.229  0.6345 -0.5583  0.4372
13440TIP3    H261736   2.986   2.556  14.160  0.6877  0.2797  1.0367
13441TIP3   OH261737   3.554   6.485  10.702 -0.1124  0.1732 -0.4204
13441TIP3    H161738   3.553   6.391  10.688 -1.5902  0.2700 -1.0825
13441TIP3    H261739   3.490   6.500  10.771  1.0668  0.5742  0.6081
13442TIP3   OH261740   0.630   5.187  16.599 -0.2191  0.7835 -0.6028
13442TIP3    H161741   0.573   5.226  16.533 -2.2813 -2.0988 -0.6229
13442TIP3    H261742   0.571   5.138  16.656  2.2964 -3.6487 -1.5833
13443TIP3   OH261743   1.636   5.705  10.675 -0.2597  0.2482  0.0263
13443TIP3    H161744   1.693   5.640  10.632 -1.0755  0.1527 -0.9246
13443TIP3    H261745   1.561   5.714  10.616 -0.1252  2.1164  0.1274
13444TIP3   OH261746   0.311   0.835  14.782 -0.3738  0.7999  0.1521
13444TIP3    H161747   0.292   0.928  14.770  1.3194  0.9249 -1.8810
13444TIP3    H261748   0.277   0.793  14.702  2.5628  0.2776 -0.8827
13445TIP3   OH261749   2.216   1.261  13.922 -0.2602  0.1001  0.4627
13445TIP3    H161750   2.146   1.252  13.988  0.5476 -1.9338  1.0847
13445TIP3    H261751   2.173   1.301  13.847 -2.0048 -0.7499  0.9897
13446TIP3   OH261752   1.178   4.500   5.455  0.0059  0.8784  0.9291
13446TIP3    H161753   1.104   4.556   5.476 -0.7445 -0.7383  2.7478
13446TIP3    H261754   1.218   4.480   5.539 -0.0060 -1.6115  0.3900
13447TIP3   OH261755   5.850   4.733  14.943  0.2225  0.0035  0.3037
13447TIP3    H161756   5.770   4.785  14.942  0.4031  0.3151  1.3496
13447TIP3    H261757   5.835   4.667  15.011  0.4526 -0.5623 -0.1961
13448TIP3   OH261758   3.055   2.808  14.683 -0.4934  0.6124 -0.0596
13448TIP3    H161759   3.057   2.769  14.770  0.3428  0.7148 -0.0298
13448TIP3    H261760   3.096   2.743  14.626  1.2808  1.5920  0.0638
13449TIP3   OH261761   1.550   1.208   3.410 -0.1063 -0.8922 -0.9830
13449TIP3    H161762   1.615   1.148   3.447  0.3038 -0.4296 -0.9530
13449TIP3    H261763   1.555   1.286   3.465 -0.3035 -0.6453 -1.3167
13450TIP3   OH261764   6.651   1.585   0.504  0.0833 -0.3058  0.7430
13450TIP3    H161765   6.610   1.652   0.560 -1.0005 -0.0315 -0.3595
13450TIP3    H261766   6.579   1.527   0.480  0.2660  0.3367 -1.4398
13451TIP3   OH261767   3.982   1.039   0.382  0.3901 -0.0070 -0.2359
13451TIP3    H161768   4.033   0.968   0.420 -0.4288 -0.8943 -0.7751
13451TIP3    H261769   3.896   1.033   0.425  0.3064  0.6362 -0.2996
13452TIP3   OH261770   6.590   6.032   1.678 -0.2397 -0.1454  0.2336
13452TIP3    H161771   6.553   5.999   1.760 -0.5851 -0.4958 -0.0659
13452TIP3    H261772   6.569   5.965   1.613 -0.3663  0.3505 -0.2376
13453TIP3   OH261773   3.689   1.588   2.235 -0.4822  0.1951  0.9667
13453TIP3    H161774   3.731   1.505   2.262 -2.2669 -1.7858 -2.0744
13453TIP3    H261775   3.743   1.619   2.163  0.2456  1.8194  2.1755
13454TIP3   OH261776   1.285   3.209   6.692  0.0269  0.0608 -0.1108
13454TIP3    H161777   1.224   3.270   6.734 -0.9139 -1.2400  0.4560
13454TIP3    H261778   1.258   3.123   6.725  1.7905 -0.5841 -0.3284
13455TIP3   OH261779   1.672   2.784  13.224  0.3478 -0.3681 -0.5816
13455TIP3    H161780   1.622   2.799  13.304 -0.9518 -1.0832 -1.2433
13455TIP3    H261781   1.762   2.771  13.254 -0.1454 -0.7665  0.7778
13456TIP3   OH261782   1.542   5.676   2.765 -0.0778 -0.2980  0.1850
13456TIP3    H161783   1.569   5.713   2.849 -0.1653  1.7226 -0.6411
13456TIP3    H261784   1.448   5.691   2.761  0.0510  0.3489 -0.6150
13457TIP3   OH261785   2.338   2.712  14.500  0.1949  0.2236 -0.1146
13457TIP3    H161786   2.315   2.783  14.440  0.9108 -0.3716 -1.1235
13457TIP3    H261787   2.412   2.746  14.550 -0.5225  0.7923  0.5700
13458TIP3   OH261788   4.005   3.387   1.574  0.3505 -0.4771 -0.2567
13458TIP3    H161789   3.929   3.358   1.524 -1.5298  1.1359  1.5599
13458TIP3    H261790   4.078   3.381   1.512 -1.6562  0.2242 -2.8015
13459TIP3   OH261791   1.639   0.329   5.822  0.0972  0.5534 -0.2916
13459TIP3    H161792   1.619   0.247   5.866  1.8554  0.9190  1.2605
13459TIP3    H261793   1.628   0.396   5.890  1.5112  1.2837 -0.7702
13460TIP3   OH261794   4.016   1.953   0.615 -0.0531 -0.1974  0.0018
13460TIP3    H161795   4.065   2.001   0.549  0.8402  1.4709  1.8011
13460TIP3    H261796   3.938   1.921   0.570  1.4503 -0.6877 -2.2775
13461TIP3   OH261797   1.992   5.150  15.484  0.2144 -0.3384 -0.6677
13461TIP3    H161798   1.988   5.223  15.422  0.9500 -1.0803 -1.6069
13461TIP3    H261799   2.076   5.107  15.466  0.4368 -0.5688  0.8482
13462TIP3   OH261800   0.307   4.922  15.486  0.2798  0.1412 -0.1981
13462TIP3    H161801   0.386   4.971  15.509 -0.1440  0.0547  1.5364
13462TIP3    H261802   0.317   4.838  15.530 -0.9697  0.2929  0.4162
13463TIP3   OH261803   2.274   3.665  12.666  0.2260 -0.0406 -0.5578
13463TIP3    H161804   2.187   3.705  12.675  0.1240 -0.2819 -0.4879
13463TIP3    H261805   2.304   3.652  12.756  1.0804  1.6724 -0.5643
13464TIP3   OH261806   5.268   3.460  12.388 -0.4131  0.2204  0.0562
13464TIP3    H161807   5.328   3.498  12.452 -1.1168  1.5104 -0.0425
13464TIP3    H261808   5.324   3.434  12.316 -0.0804  2.5064 -0.5519
13465TIP3   OH261809   3.828   4.750  13.354  0.0641  0.3149  0.0759
13465TIP3    H161810   3.913   4.767  13.394  1.8505 -0.8173 -3.0404
13465TIP3    H261811   3.824   4.808  13.278 -1.1207 -0.9289 -0.8697
13466TIP3   OH261812   4.074   6.036   3.487  0.5244  0.4081  0.3808
13466TIP3    H161813   4.049   5.945   3.476 -2.7097  0.9110  2.7081
13466TIP3    H261814   4.000   6.076   3.533  2.6629  3.7552  1.1343
13467TIP3   OH261815   0.018   6.248   0.966 -0.0724 -0.0645 -0.3791
13467TIP3    H161816   0.013   6.153   0.954  1.5407 -0.5044  1.9809
13467TIP3    H261817   0.023   6.259   1.061 -0.6722  2.4246 -0.6038
13468TIP3   OH261818   3.982   5.535   2.200  0.6277 -0.8825  0.1003
13468TIP3    H161819   3.915   5.601   2.182  2.6736  0.8641 -1.2909
13468TIP3    H261820   3.999   5.543   2.294  1.0839  0.7747 -0.1156
13469TIP3   OH261821   1.143   2.999  15.658  0.6937  0.2450  0.2581
13469TIP3    H161822   1.100   2.922  15.622  2.1294  0.6937 -2.4820
13469TIP3    H261823   1.231   2.969  15.681  0.8192  0.7551  0.4543
13470TIP3   OH261824   1.731   5.385  15.621  0.1927  0.5034 -0.3913
13470TIP3    H161825   1.768   5.299  15.636  0.7544  0.7343 -0.4547
13470TIP3    H261826   1.669   5.397  15.692  1.6916  0.9463  0.8542
13471TIP3   OH261827   4.762   5.260  16.675 -0.1180  0.1003 -0.0377
13471TIP3    H161828   4.819   5.334  16.655  0.2320 -0.2926 -0.4882
13471TIP3    H261829   4.698   5.259  16.604  0.6782 -0.8372 -0.7593
13472TIP3   OH261830   3.806   2.207  15.280  0.1259  0.3587  0.1204
13472TIP3    H161831   3.721   2.163  15.277 -1.0021  2.5019 -0.0503
13472TIP3    H261832   3.843   2.194  15.193  0.8547 -2.2206  0.7722
13473TIP3   OH261833   3.794   2.602   5.770 -0.3905  0.0605 -0.7905
13473TIP3    H161834   3.762   2.512   5.768  2.3565 -0.9457 -2.2521
13473TIP3    H261835   3.803   2.623   5.863 -0.0586 -1.5772 -0.4349
13474TIP3   OH261836   6.308   5.837  14.769 -0.0958 -0.1003 -0.0985
13474TIP3    H161837   6.339   5.863  14.855  0.6402  1.2720 -0.7663
13474TIP3    H261838   6.353   5.754  14.752 -2.3336 -1.8281  1.9568
13475TIP3   OH261839   6.677   0.702   0.978  0.1201 -0.1590  0.0342
13475TIP3    H161840   6.684   0.795   1.002  1.9172 -0.3048  0.0995
13475TIP3    H261841   6.645   0.703   0.888  0.5595  0.5433 -0.1205
13476TIP3   OH261842   5.882   5.566   0.457  0.1870 -0.0749  0.3495
13476TIP3    H161843   5.807   5.558   0.516 -0.6397 -1.1534 -0.8308
13476TIP3    H261844   5.879   5.487   0.404  0.7568  1.0097 -1.3375
13477TIP3   OH261845   3.858   2.687   6.030  0.3892 -0.7055  0.1238
13477TIP3    H161846   3.864   2.778   6.060 -0.0140 -0.4839 -0.4534
13477TIP3    H261847   3.807   2.643   6.097  1.2523 -0.6894  0.8041
13478TIP3   OH261848   1.757   2.463   3.328 -0.0150  0.1941  0.1932
13478TIP3    H161849   1.821   2.462   3.399 -0.5984 -0.5075  0.7165
13478TIP3    H261850   1.672   2.470   3.372 -0.2599  2.1036 -0.5340
13479TIP3   OH261851   2.784   1.013   6.362 -0.2087  0.9145  0.3956
13479TIP3    H161852   2.719   0.988   6.428 -1.7021  1.5269 -0.8193
13479TIP3    H261853   2.817   1.098   6.392 -1.0172  1.2768  0.2856
13480TIP3   OH261854   6.683   1.846   2.167  0.5612  0.3750 -0.1064
13480TIP3    H161855   6.718   1.782   2.105  0.5710 -0.5494  0.8577
13480TIP3    H261856   6.755   1.908   2.180  1.4147 -0.8096  0.8824
13481TIP3   OH261857   4.600   6.715   2.867 -0.8122 -0.4550 -0.6736
13481TIP3    H161858   4.660   6.778   2.908 -1.2033 -0.8466  0.5445
13481TIP3    H261859   4.513   6.748   2.889 -1.0344 -0.5015 -1.4769
13482TIP3   OH261860   5.196   2.540   3.377  0.7435  0.0169 -0.0890
13482TIP3    H161861   5.279   2.493   3.369  0.5372 -0.3836  0.0543
13482TIP3    H261862   5.148   2.492   3.445 -0.3398 -0.8701 -1.4385
13483TIP3   OH261863   4.135   2.516  13.990 -0.2499 -1.1300 -0.1987
13483TIP3    H161864   4.107   2.513  14.081  3.4745  1.1114  1.1124
13483TIP3    H261865   4.130   2.608  13.965  0.9189 -1.4004 -1.5259
13484TIP3   OH261866   3.491   6.561  14.345 -0.3949 -0.1100  0.0140
13484TIP3    H161867   3.499   6.505  14.422 -0.4813 -1.0020 -0.6176
13484TIP3    H261868   3.473   6.648  14.380  0.0424 -0.4235  1.0125
13485TIP3   OH261869   1.872   0.685   3.871  0.2596 -0.1819 -0.0633
13485TIP3    H161870   1.888   0.608   3.924  1.7989  0.2974  0.2038
13485TIP3    H261871   1.835   0.749   3.931 -1.0980 -0.7289 -0.3039
13486TIP3   OH261872   0.430   2.604   4.868 -0.3765  0.8799 -0.6052
13486TIP3    H161873   0.445   2.673   4.932  1.0467  0.6340 -0.6593
13486TIP3    H261874   0.335   2.596   4.862 -0.5217  0.8759  1.5147
13487TIP3   OH261875   4.252   1.456   4.525  0.1324 -0.8973  0.0501
13487TIP3    H161876   4.186   1.519   4.554 -0.5728 -1.1212 -1.0266
13487TIP3    H261877   4.336   1.493   4.552 -0.3495  0.0508  0.2357
13488TIP3   OH261878   2.862   0.523  11.328  0.3956  0.6382  0.1266
13488TIP3    H161879   2.895   0.589  11.267 -1.0982  0.0854 -1.3267
13488TIP3    H261880   2.784   0.563  11.367  1.2266  0.9108  1.5687
13489TIP3   OH261881   1.832   1.929   6.033 -0.2082 -0.3154  0.0704
13489TIP3    H161882   1.847   1.967   5.947 -2.3838 -1.6602 -0.9364
13489TIP3    H261883   1.915   1.942   6.080  1.0882  0.1780 -2.3037
13490TIP3   OH261884   0.955   4.217  16.965  0.7230 -0.1161  0.6156
13490TIP3    H161885   0.901   4.296  16.974 -0.2903 -0.3325 -2.6185
13490TIP3    H261886   1.029   4.246  16.911  0.3842 -1.3219 -0.5237
13491TIP3   OH261887   0.940   6.107  15.816  0.0280 -0.4277 -0.3261
13491TIP3    H161888   0.916   6.197  15.795  1.2226  0.7414  2.9728
13491TIP3    H261889   1.001   6.082  15.747  0.3102  1.6004 -0.8595
13492TIP3   OH261890   2.343   4.434  14.388  0.0177  0.0996  0.0815
13492TIP3    H161891   2.255   4.398  14.395 -0.0968 -0.3191 -2.9165
13492TIP3    H261892   2.398   4.371  14.434 -0.8162 -1.4955 -1.0373
13493TIP3   OH261893   1.322   1.425  14.578 -0.1408  0.6907 -1.0067
13493TIP3    H161894   1.318   1.359  14.509  2.3523  0.2202 -0.7735
13493TIP3    H261895   1.236   1.422  14.620 -0.9500 -0.5166 -2.7055
13494TIP3   OH261896   4.316   3.106  14.334 -0.0930  0.0058  0.2505
13494TIP3    H161897   4.277   3.182  14.379  0.5974  1.2128 -1.1318
13494TIP3    H261898   4.402   3.097  14.373  0.6500  1.2852 -1.0419
13495TIP3   OH261899   2.844   1.282   6.433 -0.5619 -0.1178  0.1506
13495TIP3    H161900   2.805   1.318   6.513 -1.3106 -0.9325  0.1589
13495TIP3    H261901   2.894   1.354   6.396  1.8880 -0.4023  2.6918
13496TIP3   OH261902   3.067   5.003  11.204  0.5295 -0.1220  0.3211
13496TIP3    H161903   3.076   4.944  11.130 -0.1772  0.6878 -0.4204
13496TIP3    H261904   2.993   4.970  11.253  1.7834 -1.4074  1.3804
13497TIP3   OH261905   0.114   1.648  12.558  0.4027  0.0396 -0.0922
13497TIP3    H161906   0.135   1.708  12.630 -0.1861  0.0890  0.0393
13497TIP3    H261907   0.026   1.616  12.578  1.6012 -2.6724  1.0737
13498TIP3   OH261908   2.410   0.346  17.180  0.7429 -0.5996 -0.0374
13498TIP3    H161909   2.407   0.369  17.087  0.4818  1.4159  0.4425
13498TIP3    H261910   2.318   0.334  17.205  0.7983 -0.9184  0.0204
13499TIP3   OH261911   2.728   0.591  12.772 -0.1193  0.4391  0.3446
13499TIP3    H161912   2.810   0.615  12.730 -0.9421  0.8843 -1.0237
13499TIP3    H261913   2.736   0.496  12.786  0.2734  0.3264 -0.5879
13500TIP3   OH261914   6.715   3.656   4.842  0.0514  0.1825  0.1324
13500TIP3    H161915   6.785   3.717   4.867  1.0817 -0.8231 -0.2701
13500TIP3    H261916   6.700   3.603   4.919  0.5903 -0.4034 -0.1572
13501TIP3   OH261917   3.189   4.186   5.055  0.0628  0.2415  0.3763
13501TIP3    H161918   3.208   4.095   5.033  0.5015  0.6991 -1.2916
13501TIP3    H261919   3.258   4.211   5.117 -0.4385 -0.7324  1.3367
13502TIP3   OH261920   1.846   4.579  16.225  0.1569  0.6371 -0.0578
13502TIP3    H161921   1.756   4.611  16.237 -0.0578  0.2354 -0.5871
13502TIP3    H261922   1.890   4.649  16.177 -0.4587 -0.0632 -1.6967
13503TIP3   OH261923   4.254   3.988   2.180  0.0974 -0.4145 -0.3456
13503TIP3    H161924   4.275   4.027   2.095 -1.9775 -0.5990 -0.9647
13503TIP3    H261925   4.263   4.060   2.243  1.5575 -0.2611 -0.7049
13504TIP3   OH261926   0.105   1.915   3.434 -0.2597 -0.8601  0.2987
13504TIP3    H161927   0.038   1.964   3.388  0.7602 -1.8795 -2.3503
13504TIP3    H261928   0.163   1.882   3.366  1.7783 -1.7398  2.3612
13505TIP3   OH261929   5.981   4.880  17.219  0.2606 -0.4278  0.4847
13505TIP3    H161930   6.043   4.904  17.150  1.0096 -0.9090  0.9770
13505TIP3    H261931   5.895   4.895  17.181  0.6866  0.3212 -0.1855
13506TIP3   OH261932   3.549   4.449  16.678  0.3744 -0.1616 -0.0832
13506TIP3    H161933   3.492   4.524  16.694  0.6071 -0.2546  1.2937
13506TIP3    H261934   3.627   4.487  16.637  0.0162  0.1937 -0.4387
13507TIP3   OH261935   4.021   3.898   6.139 -0.0116  0.7534  0.3901
13507TIP3    H161936   3.985   3.951   6.210 -0.4170  0.8026  0.1524
13507TIP3    H261937   4.019   3.808   6.173 -1.6876  0.5651 -0.1280
13508TIP3   OH261938   3.969   6.020  11.336 -0.5504 -0.5615 -0.1751
13508TIP3    H161939   4.029   5.946  11.324 -2.5176 -2.1794 -0.3589
13508TIP3    H261940   4.026   6.096  11.343  1.4595 -1.8337 -1.9694
13509TIP3   OH261941   0.934   2.100   4.710  0.0252  0.4008  0.2931
13509TIP3    H161942   0.942   2.167   4.778  0.8649 -1.8821  2.5291
13509TIP3    H261943   1.024   2.072   4.693 -0.2335  0.4690 -1.3080
13510TIP3   OH261944   4.334   3.115  16.643 -0.5057 -0.3273  0.2027
13510TIP3    H161945   4.332   3.187  16.581  0.1164 -1.5551 -1.2664
13510TIP3    H261946   4.271   3.140  16.711 -0.3859  1.5261 -0.3506
13511TIP3   OH261947   1.002   5.343   5.771 -0.1604 -0.1184  0.4075
13511TIP3    H161948   1.016   5.379   5.683  2.3800 -1.9985 -0.0313
13511TIP3    H261949   0.921   5.384   5.801 -0.9742  0.7299 -2.7191
13512TIP3   OH261950   4.238   4.124  12.512  0.4849 -0.4809  0.5957
13512TIP3    H161951   4.332   4.116  12.526  0.3216 -0.9689  1.4595
13512TIP3    H261952   4.206   4.034  12.512 -0.1480 -0.2650  1.5491
13513TIP3   OH261953   0.288   0.940   4.858 -0.4003  0.1699  0.4018
13513TIP3    H161954   0.275   0.869   4.920  0.3351  0.9194  1.4410
13513TIP3    H261955   0.210   0.939   4.803 -0.7621 -0.9163  0.9275
13514TIP3   OH261956   1.242   4.583   2.958 -0.3755  0.1981  0.1877
13514TIP3    H161957   1.190   4.522   3.011 -0.3140  0.4365  0.5271
13514TIP3    H261958   1.288   4.637   3.023 -1.4277  1.4696 -0.0920
13515TIP3   OH261959   1.975   5.758   3.823 -0.2127  0.0081  0.3623
13515TIP3    H161960   1.897   5.703   3.834 -1.0123  0.4092 -2.8356
13515TIP3    H261961   2.048   5.699   3.839 -1.1316 -0.6805  2.1760
13516TIP3   OH261962   5.300   5.512   4.883 -0.6829  0.3471  0.3965
13516TIP3    H161963   5.214   5.473   4.900 -2.1400  2.4171 -1.8821
13516TIP3    H261964   5.313   5.574   4.954 -0.6007 -0.6923  1.2984
13517TIP3   OH261965   3.969   6.185  10.974  0.2361  0.3955  0.0207
13517TIP3    H161966   3.992   6.241  10.899 -0.3483  1.0030  0.2941
13517TIP3    H261967   4.053   6.163  11.014  0.5271  0.3539 -0.6116
13518TIP3   OH261968   5.016   0.803   4.981 -0.0014  0.7811  0.1327
13518TIP3    H161969   5.023   0.858   5.058 -0.4570 -1.3058  1.7210
13518TIP3    H261970   5.077   0.731   4.998 -2.1975 -1.2047 -0.1114
13519TIP3   OH261971   4.512   6.448   4.951  0.3020 -0.6321  0.1405
13519TIP3    H161972   4.468   6.422   5.033  1.8955 -1.1912  0.8344
13519TIP3    H261973   4.604   6.457   4.975  0.9015 -1.5191 -1.7691
13520TIP3   OH261974   6.571   5.457   3.490  0.2669  0.3135 -0.8069
13520TIP3    H161975   6.523   5.422   3.415  1.5081  1.3459 -2.0984
13520TIP3    H261976   6.594   5.546   3.464  2.9527 -0.1918 -0.2434
13521TIP3   OH261977   0.081   4.197   5.463 -0.3228  0.6533  1.3291
13521TIP3    H161978   0.027   4.261   5.509  0.3020  0.9562  1.6506
13521TIP3    H261979   0.039   4.187   5.377  1.1228  3.5949  0.2194
13522TIP3   OH261980   0.695   5.804  16.604  0.1328 -0.3263  0.2166
13522TIP3    H161981   0.710   5.863  16.678 -0.3300  1.7156 -1.2375
13522TIP3    H261982   0.778   5.806  16.556  0.0266 -0.6609  0.0227
13523TIP3   OH261983   4.578   3.669   3.353 -0.5113  0.3028 -0.2807
13523TIP3    H161984   4.488   3.666   3.386 -0.0219  1.9345  1.2780
13523TIP3    H261985   4.615   3.748   3.391  1.6571 -0.4334 -0.7806
13524TIP3   OH261986   3.584   1.014  15.461  0.1202  0.3139  0.5016
13524TIP3    H161987   3.650   0.966  15.411  0.7951  1.5746  0.1372
13524TIP3    H261988   3.557   0.954  15.530  1.2831 -0.4123  0.3347
13525TIP3   OH261989   1.168   6.671  15.871  0.2512 -0.3134  0.3150
13525TIP3    H161990   1.125   6.590  15.900  0.0037 -0.2361  0.1680
13525TIP3    H261991   1.101   6.739  15.885 -0.2371 -0.4123 -1.3798
13526TIP3   OH261992   4.712   2.658  15.111 -0.5784 -0.4921  0.9057
13526TIP3    H161993   4.701   2.598  15.036  1.5560  0.3758 -0.1524
13526TIP3    H261994   4.675   2.741  15.081  2.1016  0.4300 -0.0033
13527TIP3   OH261995   4.794   0.066   2.991 -0.2134 -0.0940 -0.1551
13527TIP3    H161996   4.872   0.024   2.956 -1.7585 -2.7437 -0.5391
13527TIP3    H261997   4.798   0.052   3.085 -0.3271 -0.4095 -0.1976
13528TIP3   OH261998   5.874   6.458   3.700  0.1914  0.2675  0.4786
13528TIP3    H161999   5.832   6.544   3.700  0.1921  0.2674  0.5344
13528TIP3    H262000   5.808   6.400   3.660 -0.6628 -0.1244  2.3994
13529TIP3   OH262001   0.848   5.960  17.067  0.2739  0.1050  0.0316
13529TIP3    H162002   0.899   5.932  17.143  1.5784  1.4898 -0.3097
13529TIP3    H262003   0.828   6.052  17.084  1.0018  0.5624 -1.5326
13530TIP3   OH262004   1.278   3.469  14.697 -0.1129 -0.2062  0.4246
13530TIP3    H162005   1.340   3.540  14.680  0.2515 -1.1747 -2.5989
13530TIP3    H262006   1.192   3.510  14.690  0.1272  0.2290 -0.0575
13531TIP3   OH262007   1.340   0.651   4.843 -0.2575  0.0077  0.0776
13531TIP3    H162008   1.281   0.604   4.785 -0.3321  1.5726 -1.1566
13531TIP3    H262009   1.415   0.674   4.788  0.3143  0.2724  0.9595
13532TIP3   OH262010   4.677   3.029  15.711  0.1540 -0.6593  0.0435
13532TIP3    H162011   4.641   3.114  15.686  0.5201  0.2334  2.3406
13532TIP3    H262012   4.639   2.967  15.650 -2.8707  0.6757  0.4847
13533TIP3   OH262013   6.013   4.122  14.133 -0.0904 -0.7524 -0.0724
13533TIP3    H162014   5.919   4.115  14.115 -0.5998  1.7693  1.2885
13533TIP3    H262015   6.038   4.206  14.093  1.1089 -0.4085  1.3646
13534TIP3   OH262016   2.218   2.732   0.679 -0.1238  0.2918 -0.0278
13534TIP3    H162017   2.242   2.761   0.591  0.7211 -0.5996 -0.0866
13534TIP3    H262018   2.299   2.734   0.728 -0.0585 -2.0062 -0.0312
13535TIP3   OH262019   1.298   5.180  13.802 -0.9857  0.3627 -0.6402
13535TIP3    H162020   1.366   5.144  13.858 -0.8167 -0.6710 -1.4986
13535TIP3    H262021   1.227   5.116  13.806 -0.8048  0.0644 -1.9273
13536TIP3   OH262022   0.823   4.473  12.883 -0.0898  0.2465  0.3557
13536TIP3    H162023   0.748   4.490  12.827 -0.2953  0.0933  0.5795
13536TIP3    H262024   0.801   4.391  12.928  0.6377 -0.3071 -0.2973
13537TIP3   OH262025   4.668   4.566   5.623 -0.2285  0.1463  0.5500
13537TIP3    H162026   4.637   4.513   5.696  3.5826 -1.0011  1.4268
13537TIP3    H262027   4.726   4.630   5.663 -0.6993  1.6738 -1.1219
13538TIP3   OH262028   4.369   1.230  12.385  0.5064  0.6133 -0.1687
13538TIP3    H162029   4.361   1.244  12.291  0.3816 -0.6123 -0.3392
13538TIP3    H262030   4.280   1.244  12.419  0.7329  1.9866 -0.0953
13539TIP3   OH262031   6.700   6.310  10.996 -0.0296  0.4985 -0.0603
13539TIP3    H162032   6.662   6.320  10.909 -2.9507  0.4802  1.1313
13539TIP3    H262033   6.770   6.246  10.985 -0.0549  0.8520 -2.4731
13540TIP3   OH262034   0.750   5.944  11.591  0.1586  0.1052 -0.2908
13540TIP3    H162035   0.812   6.013  11.613  0.4829 -0.1145 -0.4954
13540TIP3    H262036   0.715   5.914  11.675  0.1798  0.3696 -0.1889
13541TIP3   OH262037   2.188   6.768  16.664 -0.4574 -0.8076  0.1847
13541TIP3    H162038   2.124   6.748  16.595 -0.6793 -0.0183  0.1629
13541TIP3    H262039   2.264   6.801  16.618 -1.3659  1.7015  0.4395
13542TIP3   OH262040   0.120   4.017   4.000 -0.1647 -0.0392  0.3244
13542TIP3    H162041   0.141   3.967   4.079 -0.0458  1.0748  1.0195
13542TIP3    H262042   0.205   4.039   3.962 -0.2133 -0.3274  0.0539
13543TIP3   OH262043   3.321   0.197  16.959 -0.1506 -0.5945  0.2114
13543TIP3    H162044   3.248   0.243  16.918 -0.5012 -0.9844  0.3895
13543TIP3    H262045   3.279   0.126  17.009  0.3503 -0.8374  0.2899
13544TIP3   OH262046   6.234   1.571  14.180  0.1008 -0.0119  0.8220
13544TIP3    H162047   6.267   1.547  14.266  0.3117  0.3627  0.8468
13544TIP3    H262048   6.205   1.489  14.141  0.5202 -0.2565  1.0313
13545TIP3   OH262049   0.025   5.443  12.104 -0.0778  0.0793  0.3006
13545TIP3    H162050  -0.055   5.427  12.154  0.1419  0.4917  0.7892
13545TIP3    H262051  -0.002   5.436  12.012 -0.3582 -1.2933  0.4792
13546TIP3   OH262052   1.122   4.119   4.953  0.1541 -0.1928 -0.3721
13546TIP3    H162053   1.161   4.053   4.897  0.0015 -0.2647 -0.3932
13546TIP3    H262054   1.190   4.138   5.019 -0.6228 -1.9862  0.9790
13547TIP3   OH262055   6.239   3.629  11.580 -0.8382  0.0505  0.4448
13547TIP3    H162056   6.282   3.616  11.665 -0.5223  1.3991  0.5044
13547TIP3    H262057   6.216   3.722  11.579 -1.4992 -0.1179 -0.6503
13548TIP3   OH262058   3.472   5.413   4.358  0.4545 -0.3182  0.6438
13548TIP3    H162059   3.479   5.318   4.349 -0.4590 -0.4055  0.8265
13548TIP3    H262060   3.414   5.441   4.288  1.2733  0.2011  0.1570
13549TIP3   OH262061   1.799   4.428  15.832  0.0971  0.0110 -0.5062
13549TIP3    H162062   1.734   4.403  15.897  0.7481 -0.2442  0.0512
13549TIP3    H262063   1.750   4.433  15.750 -0.7197  0.2987 -0.0094
13550TIP3   OH262064   3.487   4.729   1.123 -0.1644  0.1362 -0.4612
13550TIP3    H162065   3.427   4.759   1.055  0.8300  3.1218 -0.0685
13550TIP3    H262066   3.537   4.659   1.082 -2.0944 -0.6290 -1.5958
13551TIP3   OH262067   0.454   6.254   2.024  0.2551  0.6619 -0.0366
13551TIP3    H162068   0.420   6.275   1.937  1.1998  1.2386 -0.2736
13551TIP3    H262069   0.377   6.228   2.074 -0.4001  1.0401 -0.8348
13552TIP3   OH262070   0.645   5.651  13.912 -0.3514  0.5632 -0.1951
13552TIP3    H162071   0.623   5.686  13.825  0.9368  0.0139 -0.7522
13552TIP3    H262072   0.673   5.561  13.895 -0.7719  0.2169  0.8864
13553TIP3   OH262073   1.810   1.092  14.340 -0.0179 -0.1678 -0.7286
13553TIP3    H162074   1.786   1.095  14.248  0.3183  1.2655 -0.7958
13553TIP3    H262075   1.876   1.022  14.346  0.6992  0.3960 -1.7681
13554TIP3   OH262076   3.346   4.428  11.475  0.4210  0.5096  0.2313
13554TIP3    H162077   3.434   4.447  11.443  0.5760  0.2098  0.4748
13554TIP3    H262078   3.358   4.408  11.568  0.0372  0.9098  0.3706
13555TIP3   OH262079   2.528   2.595   1.148  0.6183 -0.1240  0.0141
13555TIP3    H162080   2.622   2.586   1.159  0.4864 -1.8976 -0.1606
13555TIP3    H262081   2.516   2.609   1.054  0.6741 -0.3101 -0.0200
13556TIP3   OH262082   2.202   4.933   1.434  0.2696  0.0180  0.3250
13556TIP3    H162083   2.175   4.874   1.504  0.5205 -2.3287 -1.4780
13556TIP3    H262084   2.185   4.884   1.353  1.3658  2.0550 -1.1955
13557TIP3   OH262085   6.571   3.835  16.433 -0.3311  0.0021 -0.1450
13557TIP3    H162086   6.600   3.872  16.350 -1.3332 -0.2856 -0.6278
13557TIP3    H262087   6.574   3.740  16.419  1.6534 -0.1112  0.8914
13558TIP3   OH262088   0.169   1.621  15.538  0.1815  0.0331  0.1748
13558TIP3    H162089   0.155   1.711  15.568  0.8158 -0.0622  0.7742
13558TIP3    H262090   0.201   1.575  15.615 -0.4187 -0.7845 -0.0522
13559TIP3   OH262091   5.270   0.349  15.829 -0.5656 -0.9423  0.1374
13559TIP3    H162092   5.175   0.359  15.828 -0.4496  0.1566 -1.7541
13559TIP3    H262093   5.286   0.285  15.898 -2.7323 -1.6873 -0.0013
13560TIP3   OH262094   5.878   1.176  11.536  0.2064  0.4009  0.2866
13560TIP3    H162095   5.929   1.101  11.567 -0.5355 -0.7562 -1.2226
13560TIP3    H262096   5.944   1.241  11.511  0.9727 -1.1381 -1.7924
13561TIP3   OH262097   3.611   0.176  10.506 -0.9110 -0.0315 -0.1554
13561TIP3    H162098   3.705   0.169  10.522 -1.1900 -0.6418  1.3298
13561TIP3    H262099   3.592   0.269  10.516 -0.2513  0.3031 -1.8222
13562TIP3   OH262100   6.359   0.232   0.403 -0.0056 -0.1093  0.4641
13562TIP3    H162101   6.384   0.181   0.479 -1.4401 -0.1376  0.9328
13562TIP3    H262102   6.264   0.224   0.398 -0.2962  2.6061  0.6295
13563TIP3   OH262103   3.411   1.277   2.301 -0.2728  0.1233 -0.5037
13563TIP3    H162104   3.503   1.286   2.328 -1.1550 -1.9186  3.6844
13563TIP3    H262105   3.401   1.184   2.279 -1.1734  0.4722 -1.5951
13564TIP3   OH262106   1.828   4.462  13.870  0.7440 -0.0606 -0.3530
13564TIP3    H162107   1.878   4.385  13.895 -0.0049 -0.5837 -0.4400
13564TIP3    H262108   1.801   4.502  13.952 -1.5785 -1.6856 -0.2654
13565TIP3   OH262109   1.168   6.187   4.527  0.0795  0.1063  0.5731
13565TIP3    H162110   1.083   6.189   4.572  1.3712  2.6763  3.0612
13565TIP3    H262111   1.197   6.096   4.535 -1.7164 -0.4341  1.1548
13566TIP3   OH262112   0.180   0.390  14.432  0.2030  0.6948  0.0708
13566TIP3    H162113   0.250   0.385  14.367  1.5503 -0.9583  1.5975
13566TIP3    H262114   0.175   0.302  14.468 -2.1087  1.0048  0.5954
13567TIP3   OH262115   4.039   3.248   3.223 -0.6910  0.0060  0.3896
13567TIP3    H162116   4.102   3.176   3.218  0.2174  0.8582 -0.7866
13567TIP3    H262117   4.007   3.259   3.134 -0.8305  1.0616  0.5585
13568TIP3   OH262118   3.369   2.325   1.193  0.1428 -0.0935 -0.3337
13568TIP3    H162119   3.420   2.277   1.127 -1.0125 -1.9419  0.0977
13568TIP3    H262120   3.434   2.353   1.258  0.7516 -1.6352 -0.2579
13569TIP3   OH262121   4.072   1.701  11.973  0.4403 -0.6655 -0.4866
13569TIP3    H162122   4.067   1.666  12.062  0.6047 -2.3326 -1.1157
13569TIP3    H262123   4.166   1.718  11.959  0.3117  0.5401 -0.0132
13570TIP3   OH262124   1.958   5.997  14.136 -0.4123 -0.3202 -0.2449
13570TIP3    H162125   1.931   5.905  14.139  0.0395 -0.4270  0.6474
13570TIP3    H262126   2.001   6.007  14.051 -1.8175 -0.5496 -0.9973
13571TIP3   OH262127   2.422   1.288  11.962 -0.6575  0.5665 -0.1477
13571TIP3    H162128   2.443   1.256  11.875 -1.4131 -0.2273 -0.0376
13571TIP3    H262129   2.488   1.249  12.019 -1.4376 -0.6441 -0.0471
13572TIP3   OH262130   5.536   6.558  10.803  0.2613 -0.2113 -0.2524
13572TIP3    H162131   5.596   6.629  10.781  1.2482 -1.4374 -1.6200
13572TIP3    H262132   5.589   6.496  10.853  0.0838 -1.1911 -1.2727
13573TIP3   OH262133   0.307   6.272   4.468  0.0055 -0.2365  0.4997
13573TIP3    H162134   0.273   6.218   4.540 -1.1112  1.2225  1.0936
13573TIP3    H262135   0.230   6.316   4.432  0.6377 -0.5332 -1.2580
13574TIP3   OH262136   1.819   1.332  11.923 -0.0833  0.1151 -0.5095
13574TIP3    H162137   1.914   1.328  11.937 -0.2013  1.3962  0.7646
13574TIP3    H262138   1.808   1.400  11.857 -0.1695  0.5860 -0.0142
13575TIP3   OH262139   1.549   2.931   1.364 -0.1675  0.5108 -0.0557
13575TIP3    H162140   1.525   2.896   1.450 -2.4318 -1.2911 -1.3562
13575TIP3    H262141   1.638   2.963   1.375  0.7112 -2.4973  2.1465
13576TIP3   OH262142   6.471   4.770   1.345  0.0504 -0.1911  0.3427
13576TIP3    H162143   6.532   4.730   1.282 -0.5555  0.3837 -0.6283
13576TIP3    H262144   6.517   4.766   1.429  0.8026 -1.1384 -0.0988
13577TIP3   OH262145   3.538   4.341   5.427  0.0114 -0.0376 -0.0793
13577TIP3    H162146   3.590   4.305   5.498  1.9306 -0.9753 -1.9270
13577TIP3    H262147   3.599   4.397   5.379 -1.3897  0.9677 -0.7099
13578TIP3   OH262148   6.420   1.385  13.942 -0.2158  0.0080 -1.0158
13578TIP3    H162149   6.474   1.451  13.985  0.6260 -1.0684 -0.4197
13578TIP3    H262150   6.438   1.395  13.849 -0.8403  1.2773 -1.0095
13579TIP3   OH262151   2.912   1.444  16.351 -0.1298  0.2628  0.2106
13579TIP3    H162152   2.971   1.497  16.298 -2.0007  1.0844 -1.0571
13579TIP3    H262153   2.952   1.444  16.438  2.4097 -0.2355 -0.9050
13580TIP3   OH262154   2.316   2.901   5.467 -0.2794 -0.5650  0.3510
13580TIP3    H162155   2.271   2.878   5.548  1.3803 -0.7526  1.2356
13580TIP3    H262156   2.331   2.818   5.423  0.4850 -0.6402  0.7488
13581TIP3   OH262157   4.486   4.233   2.715  0.7022 -0.3717 -0.3531
13581TIP3    H162158   4.534   4.198   2.640  0.6332  0.8955 -1.0080
13581TIP3    H262159   4.460   4.156   2.765 -1.4656 -1.3992 -2.9696
13582TIP3   OH262160   3.895   0.598   0.830 -0.0018 -0.2326  0.4922
13582TIP3    H162161   3.821   0.657   0.850 -0.9722 -0.8264 -1.2667
13582TIP3    H262162   3.969   0.657   0.819  0.0691  0.3120  3.3096
13583TIP3   OH262163   0.659   5.710  15.357 -0.1327  0.0187 -0.0897
13583TIP3    H162164   0.668   5.748  15.444  1.5434 -0.9532  0.1738
13583TIP3    H262165   0.703   5.625  15.362  0.8530  0.3631 -2.1216
13584TIP3   OH262166   2.083   1.947  10.748  0.2591  0.2630 -0.5804
13584TIP3    H162167   1.999   1.924  10.788  0.3500  0.0790 -0.4977
13584TIP3    H262168   2.116   1.865  10.712  0.5234  0.2872 -0.3925
13585TIP3   OH262169   6.570   1.740   3.978  0.0677 -0.3018  0.3165
13585TIP3    H162170   6.592   1.755   4.069  1.5558  0.0384 -0.0828
13585TIP3    H262171   6.590   1.823   3.934  1.0869 -1.0193 -0.6078
13586TIP3   OH262172   3.252   5.945   5.372 -0.9410  0.2820 -0.2869
13586TIP3    H162173   3.308   5.928   5.447 -0.6238 -1.0829 -0.8115
13586TIP3    H262174   3.248   6.041   5.366  1.1970  0.4025 -0.1504
13587TIP3   OH262175   3.186   4.891  16.265 -1.3221 -0.2841  0.1091
13587TIP3    H162176   3.233   4.918  16.344  1.0975 -0.2956 -1.3072
13587TIP3    H262177   3.127   4.965  16.246  0.9237  1.4531 -0.3060
13588TIP3   OH262178   6.311   4.419  10.719  0.2560 -0.1165 -0.6554
13588TIP3    H162179   6.342   4.349  10.661  2.9695  0.1513  0.3908
13588TIP3    H262180   6.363   4.495  10.694  1.1889  0.0979  1.8097
13589TIP3   OH262181   3.671   1.091   5.529  0.2911 -0.1986  0.0627
13589TIP3    H162182   3.678   1.167   5.587  0.8594 -0.8923  0.9122
13589TIP3    H262183   3.761   1.073   5.503  0.4492 -2.1439  1.8991
13590TIP3   OH262184   6.334   4.330   4.644 -0.4377 -0.4195  0.0170
13590TIP3    H162185   6.238   4.321   4.649 -0.4484 -0.1679  0.3321
13590TIP3    H262186   6.367   4.264   4.706 -0.3254 -2.0208 -1.7001
13591TIP3   OH262187   2.017   6.443  12.707 -0.3225  0.3784  0.0478
13591TIP3    H162188   1.985   6.431  12.796 -1.5088 -0.8774 -0.5284
13591TIP3    H262189   2.088   6.380  12.698 -1.6334 -1.0602 -0.5664
13592TIP3   OH262190   2.421   0.523   5.991 -0.5985  0.1305  0.1581
13592TIP3    H162191   2.452   0.557   6.076  0.7170 -0.2431 -0.1520
13592TIP3    H262192   2.348   0.466   6.013 -0.7198  0.5929  0.9796
13593TIP3   OH262193   2.688   4.354   3.561 -0.0112  0.2276  0.2818
13593TIP3    H162194   2.614   4.347   3.621  0.4424  1.8525  1.0640
13593TIP3    H262195   2.696   4.448   3.544  2.1147  0.1099  0.5220
13594TIP3   OH262196   3.169   4.022  14.405  0.0738  0.7867 -0.4271
13594TIP3    H162197   3.211   4.090  14.458  1.4695 -1.4778  1.4822
13594TIP3    H262198   3.226   3.945  14.415 -3.0131 -1.5425 -0.0909
13595TIP3   OH262199   4.348   4.093  14.311  0.2690  0.2740 -0.1139
13595TIP3    H162200   4.419   4.030  14.304  1.0087  1.2184 -1.5508
13595TIP3    H262201   4.304   4.089  14.226 -0.3564  0.8843  0.1706
13596TIP3   OH262202   0.623   4.721   2.333 -0.4158 -0.2549 -0.3335
13596TIP3    H162203   0.604   4.646   2.389  0.3252 -1.0674 -1.1633
13596TIP3    H262204   0.615   4.797   2.392  0.8187 -1.1255  0.9882
13597TIP3   OH262205   6.470   6.501   0.720  0.2614  0.3813 -0.1978
13597TIP3    H162206   6.396   6.499   0.781  0.1600 -0.5528 -0.3555
13597TIP3    H262207   6.536   6.555   0.765 -0.0870  0.3028  0.4164
13598TIP3   OH262208   3.046   3.719  12.213  0.5885  0.4213 -0.3334
13598TIP3    H162209   3.039   3.649  12.278  1.1091  0.8818  0.2222
13598TIP3    H262210   2.959   3.759  12.211  1.3030  2.2501  2.1645
13599TIP3   OH262211   3.609   3.235   2.495  0.4243 -0.1530  0.6818
13599TIP3    H162212   3.653   3.319   2.503 -0.0388  0.0952  0.6272
13599TIP3    H262213   3.549   3.232   2.569 -0.7908  0.3092 -0.2618
13600TIP3   OH262214   1.979   4.823  16.788 -0.0198 -0.2671  0.2119
13600TIP3    H162215   1.982   4.821  16.883 -0.3878  0.8187  0.2551
13600TIP3    H262216   2.027   4.903  16.764 -1.1772  0.2380 -0.4529
13601TIP3   OH262217   0.885   4.056   0.191 -0.0817  0.8838 -0.5792
13601TIP3    H162218   0.905   4.046   0.098 -0.7866  0.9259 -0.7423
13601TIP3    H262219   0.928   4.138   0.216  0.6035  0.5678 -0.7260
13602TIP3   OH262220   4.573   0.542  11.998  0.1771  0.2765 -0.5790
13602TIP3    H162221   4.495   0.597  11.987  0.7948  1.1870 -0.3657
13602TIP3    H262222   4.647   0.602  11.990  0.8255 -0.2484  1.1515
13603TIP3   OH262223   1.282   1.985  16.355  0.7203 -0.1228  0.1684
13603TIP3    H162224   1.204   1.930  16.350 -0.9952  2.2992 -0.6065
13603TIP3    H262225   1.316   1.970  16.443  0.3188 -2.3977 -0.0277
13604TIP3   OH262226   3.761   3.676  11.968 -0.0294 -0.3073  0.1762
13604TIP3    H162227   3.687   3.722  12.008 -0.3194 -1.3450  0.8264
13604TIP3    H262228   3.831   3.741  11.968 -1.0553  0.8307 -0.8536
13605TIP3   OH262229   0.663   4.096   2.377  0.0733 -0.0298 -0.6096
13605TIP3    H162230   0.598   4.084   2.447 -0.6682 -0.3443 -1.3458
13605TIP3    H262231   0.633   4.173   2.330  0.7184  0.3333 -0.4292
13606TIP3   OH262232   0.678   5.679  16.127  0.4941  0.0251 -0.4351
13606TIP3    H162233   0.671   5.691  16.033  1.2958 -2.2652 -0.8280
13606TIP3    H262234   0.771   5.690  16.146  0.4334 -0.1626 -0.0221
13607TIP3   OH262235   1.973   6.344   1.766 -0.4865 -0.1805 -0.1300
13607TIP3    H162236   1.893   6.342   1.714  0.0390  2.6244 -1.1439
13607TIP3    H262237   1.976   6.432   1.803  1.5591 -0.6022  0.8105
13608TIP3   OH262238   5.871   5.982   6.198  0.0574  0.1873 -0.1540
13608TIP3    H162239   5.780   5.963   6.176 -0.5874  0.8417  1.7634
13608TIP3    H262240   5.873   6.078   6.208  0.5111  0.0254  1.5271
13609TIP3   OH262241   1.474   2.803   1.638 -0.5044  0.0269 -0.3106
13609TIP3    H162242   1.519   2.754   1.707 -1.4724 -0.6065 -0.1146
13609TIP3    H262243   1.391   2.828   1.678 -0.8801  0.0411 -1.0976
13610TIP3   OH262244   3.864   3.351   2.757  0.1600  0.1530 -0.1738
13610TIP3    H162245   3.950   3.386   2.733 -0.0210  0.4604 -0.3861
13610TIP3    H262246   3.805   3.385   2.690 -0.2523  0.5397  0.3707
13611TIP3   OH262247   5.530   3.492  10.369  0.3298 -0.2638 -0.4912
13611TIP3    H162248   5.500   3.548  10.298  1.0102 -0.2722 -0.7895
13611TIP3    H262249   5.506   3.539  10.449  0.6586  0.3277 -0.7404
13612TIP3   OH262250   0.836   6.649   4.625 -0.1553  0.5892  0.1980
13612TIP3    H162251   0.759   6.686   4.581  0.6044  0.4698 -1.2611
13612TIP3    H262252   0.910   6.679   4.572  0.6045 -1.6405 -0.0606
13613TIP3   OH262253   5.527   2.083   6.826  0.3659  0.4675  0.4520
13613TIP3    H162254   5.495   2.023   6.760  0.7817  0.2694  0.4317
13613TIP3    H262255   5.622   2.079   6.819  0.4721 -0.9015  2.2476
13614TIP3   OH262256   1.177   3.372  12.684  0.0764 -0.7078  0.0580
13614TIP3    H162257   1.185   3.402  12.593  2.3051  0.9807  0.7659
13614TIP3    H262258   1.091   3.402  12.712 -0.0592 -0.0095 -1.0709
13615TIP3   OH262259   2.300   3.081  13.779  0.0296  0.6421  0.2480
13615TIP3    H162260   2.369   3.127  13.730 -0.1349  1.1152  0.4535
13615TIP3    H262261   2.288   3.135  13.858  1.0651 -0.6868  1.3395
13616TIP3   OH262262   2.760   1.659  12.214  0.2144  0.3801 -0.0774
13616TIP3    H162263   2.791   1.704  12.135 -0.9009  0.0027 -0.7535
13616TIP3    H262264   2.673   1.697  12.229 -0.9191 -1.8298 -0.8954
13617TIP3   OH262265   1.677   5.236   3.211 -0.1256 -0.0451 -0.5786
13617TIP3    H162266   1.599   5.249   3.157 -1.4529  0.5789  1.4129
13617TIP3    H262267   1.724   5.319   3.206 -0.7679  0.3601  0.0183
13618TIP3   OH262268   0.883   1.506  14.395  0.1864  0.0143  0.4203
13618TIP3    H162269   0.845   1.555  14.322  1.4925 -0.1533 -0.3907
13618TIP3    H262270   0.820   1.516  14.466 -0.8285  0.6615 -0.5537
13619TIP3   OH262271   1.904   0.551   5.132  0.2135 -0.0493 -0.2539
13619TIP3    H162272   1.919   0.499   5.210  0.5516  1.8175  0.9594
13619TIP3    H262273   1.980   0.609   5.126 -0.8597  1.3539 -0.6963
13620TIP3   OH262274   0.834   6.537  14.423 -0.6909 -0.2321  0.3020
13620TIP3    H162275   0.830   6.447  14.394  1.0804 -0.7046  1.4301
13620TIP3    H262276   0.829   6.532  14.519 -0.0909  0.8150  0.4061
13621TIP3   OH262277   3.268   3.408   5.724  0.0723  0.4796  0.3781
13621TIP3    H162278   3.219   3.327   5.708  0.2047  0.5614 -0.4959
13621TIP3    H262279   3.351   3.378   5.761  0.3070  0.1698 -0.3746
13622TIP3   OH262280   4.284   1.184  15.673  0.1519  0.0157 -0.1671
13622TIP3    H162281   4.296   1.236  15.593 -0.5368  2.0838  1.0197
13622TIP3    H262282   4.273   1.250  15.742  1.2204 -1.7354  1.7071
13623TIP3   OH262283   1.072   5.179   3.298 -0.2498  0.0158 -0.0896
13623TIP3    H162284   1.040   5.157   3.210  0.3694  0.7382 -0.4918
13623TIP3    H262285   1.039   5.108   3.353 -0.9238 -0.2646 -0.8453
13624TIP3   OH262286   0.416   1.322   0.398 -0.4621  0.0879  0.8009
13624TIP3    H162287   0.505   1.321   0.431  0.2670  1.1397 -1.0616
13624TIP3    H262288   0.376   1.243   0.435  1.3275 -0.5786  1.3775
13625TIP3   OH262289   0.094   6.229   5.208 -0.7037  0.1709  0.1323
13625TIP3    H162290   0.102   6.247   5.301  1.0677 -0.4776  0.1352
13625TIP3    H262291   0.103   6.315   5.166  1.9872  0.0711  0.4171
13626TIP3   OH262292   5.593   2.340   5.801  0.8455  0.0352  0.2439
13626TIP3    H162293   5.610   2.432   5.783 -0.1932  0.1191 -0.3581
13626TIP3    H262294   5.637   2.323   5.884  0.3377  1.2960  0.7826
13627TIP3   OH262295   0.858   5.795   2.859 -0.5171 -0.0930  0.2846
13627TIP3    H162296   0.828   5.836   2.777 -0.5407  1.5832  1.1218
13627TIP3    H262297   0.777   5.772   2.905 -0.5030 -0.3138  0.2004
13628TIP3   OH262298   1.507   2.361   4.265 -0.0777  0.5031  0.1348
13628TIP3    H162299   1.482   2.346   4.356 -1.4499  1.1577 -0.1255
13628TIP3    H262300   1.478   2.283   4.219 -0.9701  0.9395 -0.0409
13629TIP3   OH262301   5.965   2.094  16.074  0.0712 -0.2804 -0.3050
13629TIP3    H162302   5.990   2.126  15.988  0.5607 -0.8815 -0.3904
13629TIP3    H262303   6.044   2.052  16.108 -0.2428 -0.4240  0.2579
13630TIP3   OH262304   4.525   2.695  11.786  0.2234 -0.7118 -0.2809
13630TIP3    H162305   4.458   2.640  11.827 -1.3243  3.1446  2.6464
13630TIP3    H262306   4.604   2.681  11.838 -0.3112  0.1512  0.7895
13631TIP3   OH262307   1.653   0.795   5.660  0.2688 -0.2425  0.1509
13631TIP3    H162308   1.599   0.726   5.698 -0.6227 -0.4960 -1.5405
13631TIP3    H262309   1.598   0.835   5.594  1.3887  0.9647 -0.0707
13632TIP3   OH262310   5.909   6.326   3.932 -0.3072  0.2890  0.2513
13632TIP3    H162311   5.845   6.340   4.001 -1.2379 -0.7953 -0.3725
13632TIP3    H262312   5.874   6.374   3.857 -0.9182 -1.1246 -0.3876
13633TIP3   OH262313   6.644   0.925  13.399  0.5917 -0.3060 -0.0361
13633TIP3    H162314   6.607   0.970  13.323 -1.1173 -0.4927  0.6896
13633TIP3    H262315   6.729   0.892  13.367 -0.2091 -0.5832 -1.9413
13634TIP3   OH262316   5.142   1.652   1.791 -0.6181 -0.0999 -0.2377
13634TIP3    H162317   5.096   1.568   1.787 -0.9821  0.1679 -2.0383
13634TIP3    H262318   5.119   1.696   1.709  0.3159  1.3695  0.2719
13635TIP3   OH262319   5.409   5.456  13.328  0.4806 -0.2686  0.1953
13635TIP3    H162320   5.377   5.468  13.417  0.7386 -0.5299  0.3250
13635TIP3    H262321   5.501   5.485  13.331  0.2866  0.3961 -0.1510
13636TIP3   OH262322   3.910   1.750  15.665  0.0105  0.5527  0.0067
13636TIP3    H162323   3.994   1.778  15.628  0.0539  1.0527  0.4797
13636TIP3    H262324   3.920   1.765  15.759 -0.1484 -0.5774  0.2115
13637TIP3   OH262325   5.318   5.342  12.688  0.5048  0.1752 -0.1702
13637TIP3    H162326   5.345   5.251  12.679  2.8375  0.7558  0.5864
13637TIP3    H262327   5.365   5.374  12.765 -2.0273  1.4188  0.9275
13638TIP3   OH262328   2.400   2.631   3.825 -0.2296 -0.1000 -0.1843
13638TIP3    H162329   2.378   2.688   3.898 -0.6421 -0.9715  0.3742
13638TIP3    H262330   2.492   2.652   3.805  0.6968 -1.6612  2.2445
13639TIP3   OH262331   1.106   3.841   1.975 -0.5787  0.8432 -0.3170
13639TIP3    H162332   1.140   3.772   1.917 -1.0405  0.8773 -0.6386
13639TIP3    H262333   1.032   3.800   2.019 -0.8920  1.1527 -0.5530
13640TIP3   OH262334   3.079   2.071   3.773 -0.0211 -0.8082  0.0682
13640TIP3    H162335   3.079   1.976   3.780  0.3533 -0.5830  3.8157
13640TIP3    H262336   3.152   2.100   3.827 -1.5564  1.7301  0.8902
13641TIP3   OH262337   1.258   4.711   4.302 -0.1896 -0.2860  0.5550
13641TIP3    H162338   1.193   4.642   4.312 -0.7133  0.3062  1.3125
13641TIP3    H262339   1.318   4.699   4.376  1.1521 -1.4281 -0.6719
13642TIP3   OH262340   6.414   3.087   0.156 -0.2186  0.6031 -0.0160
13642TIP3    H162341   6.399   3.181   0.160 -1.3086  0.4906 -1.2364
13642TIP3    H262342   6.413   3.066   0.062  0.6458 -0.5266  0.2077
13643TIP3   OH262343   1.073   3.995  16.096 -0.0467 -0.1319 -0.9911
13643TIP3    H162344   0.994   3.950  16.066 -0.7098  1.6761 -2.0488
13643TIP3    H262345   1.044   4.085  16.113  2.3700  1.4155 -4.4271
13644TIP3   OH262346   6.092   5.243   1.693  0.6561 -0.6230  0.5332
13644TIP3    H162347   6.125   5.246   1.603  1.0045 -1.8773  0.6069
13644TIP3    H262348   6.011   5.294   1.691  0.8850 -0.2835 -0.3868
13645TIP3   OH262349   3.785   6.650   3.884  0.4439  0.0843 -0.1854
13645TIP3    H162350   3.769   6.561   3.850 -0.1685 -0.0308  0.3991
13645TIP3    H262351   3.881   6.657   3.886  0.5111 -0.9914  0.8721
13646TIP3   OH262352   2.584   2.117  12.408 -0.1910 -0.3374  0.6419
13646TIP3    H162353   2.677   2.135  12.393 -0.3891 -0.9500 -1.6638
13646TIP3    H262354   2.548   2.199  12.442  0.5676  0.9809 -1.6028
13647TIP3   OH262355   4.136   0.846   0.507  0.3389 -0.2420  0.3864
13647TIP3    H162356   4.115   0.825   0.598 -1.7550  2.1816  0.5215
13647TIP3    H262357   4.223   0.884   0.510  0.3718 -0.3815  1.3341
13648TIP3   OH262358   1.286   3.925  16.854  0.3437  0.2680 -0.6906
13648TIP3    H162359   1.377   3.915  16.882  0.2126  0.7661 -0.0710
13648TIP3    H262360   1.286   4.005  16.800  0.5919 -0.6782 -2.1160
13649TIP3   OH262361   3.169   2.443   0.084  0.5730 -0.0792 -0.1876
13649TIP3    H162362   3.204   2.529   0.105  2.2512 -0.9866  0.8350
13649TIP3    H262363   3.233   2.381   0.120 -1.6776 -1.7646  1.0714
13650TIP3   OH262364   0.674   5.499   5.461 -0.3265 -0.0951 -0.1408
13650TIP3    H162365   0.686   5.524   5.552  1.3287  2.7059 -1.0376
13650TIP3    H262366   0.605   5.558   5.429  0.5113  0.3635 -1.1709
13651TIP3   OH262367   4.664   0.602   6.620 -0.4542  0.0311  0.8730
13651TIP3    H162368   4.574   0.633   6.621 -1.2424 -2.1652  0.9848
13651TIP3    H262369   4.685   0.592   6.527 -0.4064  0.3128  0.8533
13652TIP3   OH262370   5.393   1.330  15.608  0.3078  0.1169 -0.1035
13652TIP3    H162371   5.443   1.289  15.537  0.4364 -0.1466  0.1347
13652TIP3    H262372   5.453   1.395  15.645  0.3891 -0.0282  0.0237
13653TIP3   OH262373   2.422   3.458   5.532  0.0890  0.3661 -0.5567
13653TIP3    H162374   2.354   3.409   5.486 -0.3480  0.3878  0.0662
13653TIP3    H262375   2.382   3.543   5.552 -0.1367 -0.0741  0.9262
13654TIP3   OH262376   1.395   1.664  14.070  0.4694  0.4727  0.2742
13654TIP3    H162377   1.309   1.637  14.103  0.4869 -0.0008 -0.0623
13654TIP3    H262378   1.427   1.588  14.022  2.5310 -0.5585  3.1434
13655TIP3   OH262379   1.362   4.723   3.664  0.1666 -0.8120  0.2592
13655TIP3    H162380   1.353   4.731   3.759 -1.8692  0.3552 -0.0017
13655TIP3    H262381   1.394   4.808   3.636  2.3900 -1.6991  0.0609
13656TIP3   OH262382   5.141   0.809   2.473  0.2873  0.3000  0.0065
13656TIP3    H162383   5.158   0.718   2.497 -0.9800 -0.3897 -1.5820
13656TIP3    H262384   5.148   0.810   2.377  0.6519  1.9674  0.0294
13657TIP3   OH262385   5.634   5.979   2.098  0.1120  0.1532 -0.3488
13657TIP3    H162386   5.675   6.025   2.025  0.1928 -2.4139 -1.9842
13657TIP3    H262387   5.695   5.991   2.171  1.0948  0.9760 -1.2874
13658TIP3   OH262388   0.993   2.908   2.021 -0.3914  0.1056  0.6268
13658TIP3    H162389   1.087   2.923   2.026 -0.4704  1.3138 -1.0120
13658TIP3    H262390   0.955   2.974   2.080 -0.2704  0.3916  0.3860
13659TIP3   OH262391   5.952   6.150   5.016 -0.1405  0.0209 -0.1856
13659TIP3    H162392   5.864   6.182   4.993 -0.4539 -0.2850  0.5729
13659TIP3    H262393   6.011   6.207   4.968 -0.6752  2.2834  1.7649
13660TIP3   OH262394   5.253   4.866  12.458  0.6910  0.2999 -0.3173
13660TIP3    H162395   5.285   4.940  12.407  1.5714  0.2977  0.2075
13660TIP3    H262396   5.213   4.905  12.535 -1.6081  0.3488 -1.5069
13661TIP3   OH262397   4.691   5.003  14.969  0.0208  0.2812 -0.1186
13661TIP3    H162398   4.615   4.959  15.008  0.2803 -2.0276 -2.0876
13661TIP3    H262399   4.655   5.081  14.927 -0.8435  0.6632  1.3035
13662TIP3   OH262400   1.451   0.842   2.552 -0.9221  0.0115 -0.3775
13662TIP3    H162401   1.448   0.832   2.648  2.0520 -1.1004 -0.3527
13662TIP3    H262402   1.455   0.936   2.538  0.8148  0.1135  0.7025
13663TIP3   OH262403   1.361   1.793   3.083  0.3595 -0.2979 -0.1999
13663TIP3    H162404   1.365   1.854   3.010 -2.1615  0.7790  0.5043
13663TIP3    H262405   1.304   1.723   3.053 -0.2624 -0.1162  0.5340
13664TIP3   OH262406   4.874   4.103   2.018  0.6499  0.3208  0.2107
13664TIP3    H162407   4.793   4.053   2.003  1.4900 -0.8163 -0.6135
13664TIP3    H262408   4.914   4.060   2.093  1.0858  0.1076 -0.1421
13665TIP3   OH262409   5.079   4.089   1.781  0.3872  0.0205  0.5437
13665TIP3    H162410   5.058   4.114   1.871 -0.5541  0.6795  0.1471
13665TIP3    H262411   5.008   4.126   1.728  0.8267 -0.5269 -0.4503
13666TIP3   OH262412   6.681   0.519   4.606 -0.7014 -0.1410  0.3623
13666TIP3    H162413   6.604   0.575   4.612  0.0215  1.0887 -1.2170
13666TIP3    H262414   6.753   0.574   4.638  0.0642 -0.0234 -1.4976
13667TIP3   OH262415   3.098   3.468   0.941  0.2716 -0.1795  0.5656
13667TIP3    H162416   3.174   3.460   0.998  1.4413  2.6819 -0.5261
13667TIP3    H262417   3.119   3.541   0.883 -2.7807 -0.1646 -0.5898
13668TIP3   OH262418   3.235   0.441  11.291 -0.4140  0.0139 -0.2160
13668TIP3    H162419   3.156   0.400  11.257 -1.0638  0.5074  0.6966
13668TIP3    H262420   3.213   0.534  11.299  0.2639  0.1596  0.0232
13669TIP3   OH262421   0.784   0.069   2.562  0.1909 -0.2901  0.0668
13669TIP3    H162422   0.828   0.151   2.583  2.4735 -1.5220  0.2679
13669TIP3    H262423   0.763   0.030   2.647 -0.4389 -0.1611 -0.0252
13670TIP3   OH262424   2.407   4.665   2.230  0.5178  0.3915 -0.3214
13670TIP3    H162425   2.318   4.632   2.241 -0.3293  2.5722 -0.4316
13670TIP3    H262426   2.444   4.665   2.318  0.5512 -0.8766 -0.3285
13671TIP3   OH262427   2.948   6.026  15.365 -0.1448 -0.1112  0.3899
13671TIP3    H162428   3.025   6.082  15.375 -0.4433  0.2162  0.9138
13671TIP3    H262429   2.874   6.088  15.360 -0.2991 -0.3873 -0.9260
13672TIP3   OH262430   1.794   1.130  13.806 -0.0136  0.1951 -0.0419
13672TIP3    H162431   1.700   1.148  13.799  0.1245  0.7240 -0.5564
13672TIP3    H262432   1.836   1.215  13.793  0.5702 -0.1722 -0.5659
13673TIP3   OH262433   6.031   2.579   3.191  0.8651  0.0059 -0.3099
13673TIP3    H162434   6.047   2.512   3.124  2.3693 -2.2365  2.1944
13673TIP3    H262435   6.024   2.530   3.272 -1.2592  2.6500  1.1810
13674TIP3   OH262436   2.466   1.564  13.547 -0.5527  0.4139  0.6173
13674TIP3    H162437   2.397   1.602  13.494 -0.9323 -0.9750  0.0957
13674TIP3    H262438   2.441   1.584  13.637 -1.3733  0.3569  0.4070
13675TIP3   OH262439   2.652   5.341   3.896 -0.1513  0.2811 -0.1063
13675TIP3    H162440   2.598   5.301   3.964 -0.0993  1.3018  0.5519
13675TIP3    H262441   2.691   5.418   3.938  2.4329 -0.8376 -0.3196
13676TIP3   OH262442   0.140   4.765  13.054  0.1358  0.1418 -0.4016
13676TIP3    H162443   0.216   4.775  12.998  1.6800 -1.6315  1.2708
13676TIP3    H262444   0.155   4.826  13.127 -0.8710  0.9944 -0.8968
13677TIP3   OH262445   5.316   4.009   0.891  0.0203  0.2402  0.2160
13677TIP3    H162446   5.321   3.919   0.924  0.4204  0.6282  1.2501
13677TIP3    H262447   5.384   4.013   0.823  0.8835  0.1046  1.0516
13678TIP3   OH262448   0.532   6.318  12.935  0.0715  0.2173  0.0203
13678TIP3    H162449   0.468   6.259  12.975 -1.4645  1.2011 -0.9935
13678TIP3    H262450   0.531   6.396  12.990  2.3940 -0.7937  1.5961
13679TIP3   OH262451   2.931   0.840  15.039  0.4741  0.1652  0.5035
13679TIP3    H162452   2.944   0.882  15.124 -0.3039  2.3959 -0.4728
13679TIP3    H262453   3.020   0.823  15.007  0.7770  0.3945  1.2115
13680TIP3   OH262454   4.672   6.247   4.159 -0.5071  0.2314  0.1775
13680TIP3    H162455   4.758   6.279   4.188 -0.5207  1.2147 -0.7940
13680TIP3    H262456   4.679   6.246   4.063 -1.5524  0.2650  0.0996
13681TIP3   OH262457   6.636   5.006   2.173 -0.1187 -0.6818  0.4756
13681TIP3    H162458   6.671   5.092   2.199  0.1671 -0.9115  0.8507
13681TIP3    H262459   6.542   5.022   2.163 -0.3246 -0.6881  2.1435
13682TIP3   OH262460   6.242   3.563  12.568  0.1735 -0.0018  0.0885
13682TIP3    H162461   6.178   3.505  12.610  0.4753 -0.4853 -0.1194
13682TIP3    H262462   6.278   3.511  12.496  1.0848  0.1286  0.4430
13683TIP3   OH262463   5.115   1.739  12.548  0.3269  1.0841  0.0847
13683TIP3    H162464   5.072   1.656  12.565 -1.8743  2.2274  0.2919
13683TIP3    H262465   5.150   1.766  12.634  0.3713  0.7367  0.1760
13684TIP3   OH262466   3.915   4.748   2.619 -0.1684  0.1494 -0.8731
13684TIP3    H162467   3.953   4.663   2.594 -0.0150 -0.2829  0.8162
13684TIP3    H262468   3.973   4.781   2.687  0.1960  1.9749 -2.0390
13685TIP3   OH262469   0.311   6.427   4.129  0.4538  0.0452  0.1340
13685TIP3    H162470   0.325   6.448   4.222  0.1790 -0.4739  0.2950
13685TIP3    H262471   0.312   6.512   4.085  2.2880  0.1804  0.3821
13686TIP3   OH262472   3.327   3.079  16.359 -0.4589  0.0502  0.2540
13686TIP3    H162473   3.415   3.067  16.324 -0.1433  0.0218  1.0411
13686TIP3    H262474   3.318   3.010  16.425  0.2034  2.0919  2.5663
13687TIP3   OH262475   3.311   4.165   2.011  0.0876  0.2351  0.2093
13687TIP3    H162476   3.361   4.235   2.054 -3.0282  1.0456  2.7094
13687TIP3    H262477   3.232   4.209   1.980 -1.2442 -1.8863  0.5127
13688TIP3   OH262478   4.821   0.751  16.772  0.6371  0.2395  0.2703
13688TIP3    H162479   4.783   0.688  16.834 -1.5018 -1.7952 -2.9844
13688TIP3    H262480   4.894   0.704  16.732  1.1043  1.0213  0.1997
13689TIP3   OH262481   4.570   2.643  13.067 -0.6486  0.1139  0.2453
13689TIP3    H162482   4.512   2.613  12.998 -2.2826  0.8322  1.2828
13689TIP3    H262483   4.614   2.563  13.098 -0.1556 -0.2555 -1.3607
13690TIP3   OH262484   3.082   4.373  13.881  0.8328  0.2534 -0.1144
13690TIP3    H162485   3.025   4.436  13.924  0.1488  0.2179 -0.9437
13690TIP3    H262486   3.157   4.363  13.940  1.2270  2.2573 -0.2388
13691TIP3   OH262487   1.324   2.404   3.882 -0.2676  1.0254 -0.1357
13691TIP3    H162488   1.283   2.465   3.942 -1.2865 -1.7653  2.1264
13691TIP3    H262489   1.251   2.358   3.841  0.4860 -0.6630  0.3656
13692TIP3   OH262490   3.940   2.998  12.545  0.2416  0.1654  0.1063
13692TIP3    H162491   3.966   3.036  12.628 -1.4822  0.2972  0.5916
13692TIP3    H262492   3.984   3.052  12.479  0.7141  0.7439  0.8932
13693TIP3   OH262493   3.343   3.462   1.075  0.4469 -0.2101  0.0231
13693TIP3    H162494   3.403   3.408   1.023  0.7955 -0.7097  0.9474
13693TIP3    H262495   3.376   3.552   1.062  1.1280 -0.4322  0.1635
13694TIP3   OH262496   6.589   5.718   1.350 -0.1235  0.0169 -0.1829
13694TIP3    H162497   6.522   5.758   1.295 -0.8626 -1.9998 -0.8019
13694TIP3    H262498   6.621   5.644   1.298 -0.5018 -1.6389  1.8851
13695TIP3   OH262499   5.860   0.775  11.887 -0.0455 -0.3714 -0.6514
13695TIP3    H162500   5.947   0.759  11.850  0.4278  0.6039  0.0218
13695TIP3    H262501   5.867   0.744  11.977  0.4247  2.1953  0.2110
13696TIP3   OH262502   0.907   2.253   6.269  0.1004  0.2148  0.1921
13696TIP3    H162503   0.861   2.321   6.219  0.0368  0.0594  0.0414
13696TIP3    H262504   0.839   2.191   6.294  0.0143  0.6656  1.0837
13697TIP3   OH262505   3.254   1.380   4.975  0.1076 -0.6653  0.2705
13697TIP3    H162506   3.254   1.461   4.925  3.3433 -1.1953 -0.6888
13697TIP3    H262507   3.297   1.402   5.058 -2.3596 -0.5532  1.5649
13698TIP3   OH262508   1.979   2.634   3.583  0.0659 -0.0349  0.4452
13698TIP3    H162509   1.965   2.541   3.563 -0.3154  0.4437 -1.6856
13698TIP3    H262510   1.971   2.678   3.498  2.3673  1.7032  1.0727
13699TIP3   OH262511   6.295   2.692  17.029 -0.0286  0.1934 -0.0020
13699TIP3    H162512   6.205   2.707  17.057  0.0931 -0.5275  0.8279
13699TIP3    H262513   6.345   2.685  17.111  0.2872 -2.3295 -0.3462
13700TIP3   OH262514   4.203   2.870  15.083 -0.6728  0.1324  0.4052
13700TIP3    H162515   4.117   2.848  15.048 -0.4453  0.7722 -0.5865
13700TIP3    H262516   4.207   2.966  15.076  0.4885  0.0297 -0.4406
13701TIP3   OH262517   5.977   3.567  14.460  0.0974  0.5710 -0.0559
13701TIP3    H162518   6.072   3.559  14.451  0.3363  1.2151  1.6925
13701TIP3    H262519   5.960   3.660  14.447 -0.0260  0.8234  1.8277
13702TIP3   OH262520   0.080   1.720  14.921  0.1156 -0.0842  0.0268
13702TIP3    H162521   0.013   1.692  14.860  1.2344  0.8461 -1.6891
13702TIP3    H262522   0.034   1.732  15.004 -1.5576 -0.7209 -0.7875
13703TIP3   OH262523   1.213   0.917   5.938 -0.0253  0.1206 -0.3718
13703TIP3    H162524   1.198   0.841   5.881  0.0241  0.5237 -0.9231
13703TIP3    H262525   1.126   0.957   5.948 -0.4420 -1.1502  1.5691
13704TIP3   OH262526   1.644   0.075   5.963 -0.0986  0.1118 -0.1129
13704TIP3    H162527   1.661   0.079   6.057 -1.0169  0.1835  0.0558
13704TIP3    H262528   1.683  -0.008   5.935 -1.0543 -0.5818  0.5949
13705TIP3   OH262529   2.206   0.795  13.668 -0.3582 -0.0412  0.2819
13705TIP3    H162530   2.167   0.708  13.676  0.5561 -0.3966  0.9181
13705TIP3    H262531   2.134   0.856  13.685 -1.1513 -0.6609 -0.8126
13706TIP3   OH262532   5.039   5.465  16.007  0.1971  0.1272 -0.4081
13706TIP3    H162533   5.050   5.371  15.996  0.4493  0.1691 -0.5024
13706TIP3    H262534   4.948   5.481  15.981 -0.5066 -0.4069  1.6451
13707TIP3   OH262535   4.776   5.531   5.206  0.0087  0.0184 -0.7944
13707TIP3    H162536   4.751   5.533   5.299 -0.4802 -0.5443 -0.9147
13707TIP3    H262537   4.696   5.508   5.160  0.1046  0.9353 -1.4165
13708TIP3   OH262538   1.475   5.283  14.177 -0.0286  0.1111  0.5690
13708TIP3    H162539   1.516   5.247  14.256  0.0403  1.7118  1.2669
13708TIP3    H262540   1.383   5.293  14.199  0.3579  2.5612  1.2002
13709TIP3   OH262541   3.332   0.265   3.149 -0.6021  0.1722 -0.2533
13709TIP3    H162542   3.398   0.331   3.170 -0.0890 -0.0874 -1.0297
13709TIP3    H262543   3.373   0.209   3.083  1.2883 -4.7072  4.6954
13710TIP3   OH262544   5.854   2.644  14.016 -0.2718  0.5479 -0.0514
13710TIP3    H162545   5.901   2.562  14.032  0.6164  1.0405 -0.0869
13710TIP3    H262546   5.770   2.633  14.060  0.4586  0.2169  1.2797
13711TIP3   OH262547   2.688   4.592   4.093  0.4086 -0.9865 -0.1360
13711TIP3    H162548   2.710   4.570   4.003  0.1928  1.9909 -0.9649
13711TIP3    H262549   2.596   4.569   4.102  0.0746 -0.0523 -1.0923
13712TIP3   OH262550   6.353   3.968  13.364 -0.1093  0.6196  0.4952
13712TIP3    H162551   6.390   3.904  13.304 -1.4899  0.4784 -0.2274
13712TIP3    H262552   6.413   3.968  13.439  1.1507  0.1729 -0.4977
13713TIP3   OH262553   4.917   6.641  13.074 -0.1149  0.0839 -0.6959
13713TIP3    H162554   4.954   6.553  13.082 -1.8938 -0.8976 -2.6572
13713TIP3    H262555   4.988   6.694  13.037  0.3348 -1.0320 -1.4570
13714TIP3   OH262556   1.481   0.283  12.740  0.6408  0.1898  0.3796
13714TIP3    H162557   1.548   0.346  12.766 -1.2884  2.8671 -0.7710
13714TIP3    H262558   1.422   0.278  12.816 -0.1625  1.1606 -0.1686
13715TIP3   OH262559   0.108   4.673   1.572 -0.2041 -0.2982  0.1607
13715TIP3    H162560   0.068   4.723   1.501  2.4225  1.2593 -0.2819
13715TIP3    H262561   0.106   4.732   1.648 -0.7177 -1.0246  0.7249
13716TIP3   OH262562   6.253   1.267  16.030 -0.2438  0.2085  0.5634
13716TIP3    H162563   6.329   1.274  15.973 -0.9685  0.0496 -0.4242
13716TIP3    H262564   6.290   1.250  16.117  0.9183  1.7149  0.3896
13717TIP3   OH262565   1.588   6.685  12.443  0.1815 -0.0433  0.3090
13717TIP3    H162566   1.624   6.657  12.528 -0.4847 -0.5778  0.4260
13717TIP3    H262567   1.508   6.633  12.434 -0.2942  0.7705 -0.1717
13718TIP3   OH262568   4.074   4.414   3.908  0.4643 -0.3266  0.1376
13718TIP3    H162569   3.982   4.431   3.889  0.0184 -1.7065  1.0156
13718TIP3    H262570   4.099   4.484   3.969  0.4460  0.9751 -1.3219
13719TIP3   OH262571   3.167   6.469  15.192  0.0965 -0.3406  0.4194
13719TIP3    H162572   3.211   6.400  15.242  1.2509 -1.4018 -2.0107
13719TIP3    H262573   3.161   6.435  15.103  1.2844  2.9327 -0.9935
13720TIP3   OH262574   4.535   5.548   5.083  0.0173  0.1497  0.7138
13720TIP3    H162575   4.504   5.607   5.151  0.7990 -1.2620  2.3479
13720TIP3    H262576   4.467   5.480   5.077  0.9186 -0.8367  1.5459
13721TIP3   OH262577   2.350   5.286   4.717  0.3703  0.2981 -0.1797
13721TIP3    H162578   2.416   5.297   4.786 -0.5341 -0.9542  0.9306
13721TIP3    H262579   2.282   5.349   4.739  1.2969  1.7691 -1.4716
13722TIP3   OH262580   0.464   3.715  15.665  0.2973 -0.0973 -0.2179
13722TIP3    H162581   0.478   3.686  15.575  1.8378  0.8894 -0.3184
13722TIP3    H262582   0.401   3.786  15.658  1.6218  1.0541 -0.7133
13723TIP3   OH262583   4.376   3.456  15.900 -0.5716 -0.2618 -0.3199
13723TIP3    H162584   4.435   3.419  15.834  0.6942 -0.6662  1.0009
13723TIP3    H262585   4.356   3.544  15.868  0.9202 -0.0452 -0.7070
13724TIP3   OH262586   6.608   2.761  12.392  0.1260 -0.1984  0.0815
13724TIP3    H162587   6.617   2.749  12.487  1.1034 -3.7679 -0.3829
13724TIP3    H262588   6.696   2.779  12.361 -0.3695  2.0976 -0.0372
13725TIP3   OH262589   4.019   0.473   4.974 -0.0048  0.9293  0.1434
13725TIP3    H162590   3.932   0.437   4.961  0.7345 -0.8528  0.0451
13725TIP3    H262591   4.004   0.562   5.006 -1.8595 -0.2151  2.5752
13726TIP3   OH262592   0.728   6.000  15.952 -0.0259 -0.2175  0.3842
13726TIP3    H162593   0.805   6.020  15.899 -0.4414 -0.2347 -0.2201
13726TIP3    H262594   0.661   5.975  15.889 -0.5445 -0.1481  0.9098
13727TIP3   OH262595   5.347   1.089  14.549  0.0671  0.4295 -0.1000
13727TIP3    H162596   5.372   1.065  14.460 -0.2956 -0.5430  0.0519
13727TIP3    H262597   5.428   1.123  14.588  0.4214  0.1194 -0.5556
13728TIP3   OH262598   3.886   3.183  10.988 -0.0528 -0.0761  0.2041
13728TIP3    H162599   3.958   3.231  10.948  1.0467  0.0415  2.2682
13728TIP3    H262600   3.847   3.134  10.915  3.1065 -1.4130 -0.6829
13729TIP3   OH262601   5.903   1.086   5.561 -0.0437  0.1512 -0.6876
13729TIP3    H162602   5.808   1.089   5.570  0.0728 -0.0750  0.6529
13729TIP3    H262603   5.918   1.044   5.476 -1.1338 -0.1174 -0.7465
13730TIP3   OH262604   4.451   4.790   4.275 -0.0544  0.0744  0.2075
13730TIP3    H162605   4.370   4.827   4.240 -0.5586 -0.0979  1.1878
13730TIP3    H262606   4.518   4.856   4.258 -0.3698  0.1571 -0.7321
13731TIP3   OH262607   1.572   1.001  12.876 -0.0023 -0.4424 -0.5827
13731TIP3    H162608   1.655   0.976  12.836  0.2907 -0.4271  0.0017
13731TIP3    H262609   1.567   1.096  12.864 -0.1714 -0.5088 -1.0520
13732TIP3   OH262610   4.566   5.367  14.144  0.4448  0.5177 -0.2513
13732TIP3    H162611   4.494   5.314  14.176  0.4964 -0.2826 -1.4572
13732TIP3    H262612   4.641   5.342  14.199  0.1859  0.2014 -0.0448
13733TIP3   OH262613   5.987   3.105   3.523 -0.4851  0.2533 -0.1301
13733TIP3    H162614   5.937   3.179   3.491 -1.4044 -0.4083 -0.2457
13733TIP3    H262615   6.017   3.060   3.444 -0.7752 -0.0606 -0.0616
13734TIP3   OH262616   4.682   4.031  12.480  0.3306  0.3162  0.0999
13734TIP3    H162617   4.688   3.963  12.413 -0.3528  0.0926  0.2606
13734TIP3    H262618   4.772   4.046  12.508  0.4683 -0.5886  0.1378
13735TIP3   OH262619   2.709   4.287  16.569  0.1863 -0.4362 -0.0540
13735TIP3    H162620   2.643   4.355  16.559 -1.3830 -1.7574  0.9855
13735TIP3    H262621   2.761   4.314  16.644  0.6948  0.4941 -0.7316
13736TIP3   OH262622   4.661   4.660   0.753 -0.5255  0.0574 -0.7718
13736TIP3    H162623   4.671   4.755   0.760 -1.1321  0.3246 -3.1049
13736TIP3    H262624   4.745   4.624   0.781 -0.4050  1.2484  0.4542
13737TIP3   OH262625   3.711   4.792   2.049  0.4518  0.2406 -0.3354
13737TIP3    H162626   3.756   4.747   1.977 -0.2581 -0.5476 -0.2976
13737TIP3    H262627   3.700   4.882   2.018  0.5440  0.0124 -1.0304
13738TIP3   OH262628   2.967   5.160   0.612  0.3236  0.7430  0.2891
13738TIP3    H162629   2.961   5.225   0.542  0.7392 -0.5441 -0.9689
13738TIP3    H262630   2.982   5.077   0.566 -2.5361 -0.6285  1.6959
13739TIP3   OH262631   5.730   6.254   3.580  0.6774  0.5965  0.5057
13739TIP3    H162632   5.660   6.297   3.530 -0.0709 -0.0830  0.9424
13739TIP3    H262633   5.685   6.184   3.627  1.7337 -0.0996  0.4895
13740TIP3   OH262634   1.066   1.097   3.249 -0.5980  0.0475 -0.3008
13740TIP3    H162635   1.069   1.164   3.181 -1.6443 -1.3716 -1.7842
13740TIP3    H262636   1.136   1.122   3.310  1.1628  0.7011 -2.5079
13741TIP3   OH262637   4.387   4.212   0.653  0.2741 -0.0241  0.1137
13741TIP3    H162638   4.384   4.307   0.642  0.6650 -0.1168 -0.8608
13741TIP3    H262639   4.381   4.199   0.748 -0.8900  0.9166  0.1805
13742TIP3   OH262640   2.959   0.415   6.031  0.4024  0.3305  0.3181
13742TIP3    H162641   2.875   0.455   6.053  0.3707 -0.1708  1.1608
13742TIP3    H262642   2.944   0.368   5.949  0.2437  1.4281 -0.2815
13743TIP3   OH262643   5.685   2.933   1.642 -0.4114 -0.0152  0.0712
13743TIP3    H162644   5.739   2.994   1.694 -0.4046 -1.1162  1.3928
13743TIP3    H262645   5.746   2.863   1.617 -0.8842 -0.5290  0.3481
13744TIP3   OH262646   6.015   2.358  14.971 -0.6406 -0.1056  0.1740
13744TIP3    H162647   6.012   2.294  15.043  0.0041  0.7346  0.9625
13744TIP3    H262648   6.023   2.443  15.015  0.6936  0.3514 -0.9321
13745TIP3   OH262649   5.988   2.819  17.101 -0.1049 -0.0430 -0.2394
13745TIP3    H162650   5.923   2.750  17.084  0.4160  0.1991 -3.4834
13745TIP3    H262651   5.997   2.819  17.196 -2.4933 -2.2653  0.0706
13746TIP3   OH262652   2.917   5.900   0.597 -0.0395  0.1856  0.0939
13746TIP3    H162653   2.876   5.935   0.518 -0.3407 -2.0025 -0.7601
13746TIP3    H262654   2.981   5.836   0.565  1.0102  0.4520  1.5783
13747TIP3   OH262655   6.176   4.430  16.401 -0.1764  0.1664  0.2383
13747TIP3    H162656   6.245   4.496  16.401 -0.2957  0.2891  0.6459
13747TIP3    H262657   6.217   4.352  16.439  0.6623 -0.7224 -2.3964
13748TIP3   OH262658   5.212   5.079   1.459 -0.3355 -0.0729 -0.2099
13748TIP3    H162659   5.200   5.165   1.420 -0.9395 -0.6989 -1.4408
13748TIP3    H262660   5.217   5.019   1.385  1.4691 -0.9475  0.5867
13749TIP3   OH262661   6.298   6.262  14.117 -0.0050 -0.4269  0.5733
13749TIP3    H162662   6.349   6.300  14.047 -2.1280 -0.2786 -0.9515
13749TIP3    H262663   6.331   6.172  14.126 -0.2947 -0.7237 -1.2356
13750TIP3   OH262664   0.350   4.627   1.834  0.3314 -0.1167 -0.1637
13750TIP3    H162665   0.364   4.552   1.892  0.0576 -0.0851 -0.0568
13750TIP3    H262666   0.259   4.618   1.805 -0.0307  0.7612  0.6930
13751TIP3   OH262667   3.374   0.823  12.800 -0.0174  0.3014  0.3065
13751TIP3    H162668   3.333   0.776  12.728 -2.0309 -0.5159  1.9496
13751TIP3    H262669   3.462   0.785  12.808 -0.5713 -1.0916 -0.2851
13752TIP3   OH262670   5.238   5.145   4.420 -0.3666 -0.5484 -0.1021
13752TIP3    H162671   5.308   5.102   4.370 -0.0877  0.6168 -0.7289
13752TIP3    H262672   5.278   5.226   4.452 -0.6867 -1.0657  1.6291
13753TIP3   OH262673   0.689   2.427  16.340  0.2278 -0.0700 -0.5247
13753TIP3    H162674   0.672   2.371  16.416  1.2203  0.5815  0.2005
13753TIP3    H262675   0.701   2.366  16.267 -4.0377 -0.6002 -0.8974
13754TIP3   OH262676   6.546   5.148  12.203  0.0822 -0.0815  0.9867
13754TIP3    H162677   6.623   5.100  12.233  1.4921  1.4675 -0.0372
13754TIP3    H262678   6.557   5.236  12.240 -0.8768  0.3253  0.3124
13755TIP3   OH262679   4.911   1.258   6.761 -0.8278 -0.2564  0.2663
13755TIP3    H162680   4.900   1.322   6.691  1.3097  0.2994  0.3904
13755TIP3    H262681   4.859   1.293   6.834 -1.3978  0.2283 -0.3765
13756TIP3   OH262682   3.549   2.797  14.476 -0.3125  0.0211 -0.5055
13756TIP3    H162683   3.546   2.714  14.427  1.9255 -0.9010  0.8536
13756TIP3    H262684   3.614   2.850  14.431  0.0664  0.0760  0.1088
13757TIP3   OH262685   4.882   3.035   1.983  0.6258 -0.2795 -0.4930
13757TIP3    H162686   4.970   2.998   1.990  1.3295  1.4341 -0.0979
13757TIP3    H262687   4.880   3.073   1.895  0.1881 -0.5300 -0.5924
13758TIP3   OH262688   6.334   0.976   3.436  0.5855  0.0843  0.5050
13758TIP3    H162689   6.378   0.948   3.516  1.3125 -0.4924 -0.0867
13758TIP3    H262690   6.347   1.071   3.433 -0.4359  0.2660  1.6538
13759TIP3   OH262691   4.383   2.954  16.416  0.0752  0.7818 -1.2499
13759TIP3    H162692   4.392   3.012  16.491 -1.2218  1.2447 -1.4438
13759TIP3    H262693   4.452   2.982  16.355  0.1265  1.4144 -0.8971
13760TIP3   OH262694   6.165   5.379   2.022  0.0100 -0.0957 -0.1112
13760TIP3    H162695   6.236   5.353   1.964  0.8344  1.5001  0.1501
13760TIP3    H262696   6.154   5.473   2.005 -1.1461 -0.0543  0.8073
13761TIP3   OH262697   5.735   5.350  15.474  0.4818 -0.0521 -0.5142
13761TIP3    H162698   5.649   5.354  15.514  0.0036  3.0824 -1.6891
13761TIP3    H262699   5.724   5.291  15.399 -0.9979  1.3151 -1.3988
13762TIP3   OH262700   3.803   6.106  12.273  0.0823  0.0858  0.1945
13762TIP3    H162701   3.731   6.143  12.221  0.1469  2.0181  1.4429
13762TIP3    H262702   3.797   6.151  12.358  0.6794 -2.2047  1.4752
13763TIP3   OH262703   4.990   6.579   1.621 -0.0974  0.6641 -0.2220
13763TIP3    H162704   4.942   6.584   1.538 -0.3753  0.5544 -0.0683
13763TIP3    H262705   4.950   6.505   1.667  0.2896  0.5062 -0.1382
13764TIP3   OH262706   2.052   5.012  16.021  0.8146 -0.8911  0.3956
13764TIP3    H162707   1.983   5.077  16.032  1.1329 -0.6837  1.2079
13764TIP3    H262708   2.083   5.025  15.932 -0.6873 -1.4745 -0.2353
13765TIP3   OH262709   1.369   2.884  13.750  0.4350 -0.3674  0.0384
13765TIP3    H162710   1.420   2.952  13.706  1.7142 -1.2924  0.0539
13765TIP3    H262711   1.414   2.802  13.727 -1.1479 -1.2108 -0.0671
13766TIP3   OH262712   0.514   3.986   3.433 -0.2788 -0.3416 -0.3223
13766TIP3    H162713   0.563   3.918   3.479 -0.2603  0.4345  0.8298
13766TIP3    H262714   0.571   4.062   3.435  0.4446 -0.7550 -3.1548
13767TIP3   OH262715   6.381   5.518  15.197  0.1781  0.1872 -0.0697
13767TIP3    H162716   6.311   5.478  15.247 -0.6128  2.3628  0.6460
13767TIP3    H262717   6.343   5.600  15.164  1.0526 -0.5905 -3.2450
13768TIP3   OH262718   5.341   3.197  14.448 -0.0674  0.0797 -0.3087
13768TIP3    H162719   5.389   3.273  14.482 -0.4743  0.4285 -0.5130
13768TIP3    H262720   5.402   3.158  14.385  1.0197 -1.0667  1.4316
13769TIP3   OH262721   2.677   3.134   5.043  0.1163  0.0899  0.7258
13769TIP3    H162722   2.596   3.163   5.085  0.3659  0.4786  0.9484
13769TIP3    H262723   2.689   3.196   4.971  0.1925  0.0075  0.6690
13770TIP3   OH262724   5.981   6.274  12.951 -0.4834  0.0366 -0.0676
13770TIP3    H162725   6.021   6.205  13.003 -0.3592 -0.2294 -0.5248
13770TIP3    H262726   6.035   6.351  12.969 -1.4010  0.3451  1.4826
13771TIP3   OH262727   4.574   4.818  11.411  0.3762 -0.0849 -0.2997
13771TIP3    H162728   4.609   4.850  11.494  0.9887  1.9871 -1.3209
13771TIP3    H262729   4.644   4.763  11.376  1.1700  1.0966 -0.6119
13772TIP3   OH262730   2.745   5.720  17.212 -0.5483  0.2423  0.4895
13772TIP3    H162731   2.761   5.803  17.256 -0.9443  0.6136 -0.0570
13772TIP3    H262732   2.649   5.713  17.209 -0.5238  0.2291 -0.3212
13773TIP3   OH262733   6.629   2.473  16.950  0.0587 -0.1876  0.7297
13773TIP3    H162734   6.549   2.506  16.909  1.1340  0.5244 -0.8731
13773TIP3    H262735   6.638   2.384  16.915 -0.9753 -0.9329  2.3176
13774TIP3   OH262736   4.526   2.891   4.302 -0.1335 -0.1465 -0.5662
13774TIP3    H162737   4.505   2.944   4.225 -1.2674  1.3699  0.7657
13774TIP3    H262738   4.446   2.842   4.320  0.0581 -0.3324 -0.2076
13775TIP3   OH262739   4.242   6.475   2.045 -0.3078  0.1085  0.6591
13775TIP3    H162740   4.165   6.506   1.996  0.1605  1.5171  0.8041
13775TIP3    H262741   4.205   6.441   2.126 -0.8841 -0.2222  0.2682
13776TIP3   OH262742   3.344   4.320   0.280 -0.0552  0.1814 -0.3327
13776TIP3    H162743   3.270   4.373   0.251 -1.0677 -0.8267  0.3782
13776TIP3    H262744   3.375   4.277   0.201 -2.8634 -2.6260  0.0240
13777TIP3   OH262745   5.652   6.107  11.728 -0.3645  0.2041  0.1337
13777TIP3    H162746   5.607   6.132  11.809 -0.4633  0.9235 -0.1370
13777TIP3    H262747   5.706   6.183  11.706 -0.5509  0.1253 -0.6252
13778TIP3   OH262748   0.235   1.109  16.030  0.2713  0.1144 -0.0603
13778TIP3    H162749   0.307   1.056  16.065 -0.6436 -0.4588  1.0177
13778TIP3    H262750   0.253   1.198  16.061  0.2975 -0.1094  0.5834
13779TIP3   OH262751   4.014   3.535   6.120 -0.0652 -0.4672  0.3706
13779TIP3    H162752   4.065   3.584   6.055  0.3994  0.0154  1.0945
13779TIP3    H262753   4.027   3.582   6.202 -1.5968 -0.4027  0.5949
13780TIP3   OH262754   3.451   5.595   5.775  0.3003 -0.4540 -0.5872
13780TIP3    H162755   3.373   5.623   5.728  0.8113 -0.9099 -1.7176
13780TIP3    H262756   3.449   5.500   5.771 -1.2538 -0.6703  2.9707
13781TIP3   OH262757   2.599   5.886   0.307 -0.6638 -0.1468  0.3258
13781TIP3    H162758   2.648   5.836   0.241 -1.0587  0.4294 -0.4033
13781TIP3    H262759   2.653   5.880   0.386  0.6385  0.5614 -0.4889
13782TIP3   OH262760   1.559   5.907  14.094 -0.6737  0.0367 -0.4053
13782TIP3    H162761   1.467   5.899  14.070 -1.2414 -2.4078  2.2849
13782TIP3    H262762   1.587   5.817  14.112  2.0269  0.8310 -0.4040
13783TIP3   OH262763   0.293   1.536  10.975  0.1575 -0.0762 -0.1624
13783TIP3    H162764   0.382   1.517  10.945  1.5922  3.0711  1.7821
13783TIP3    H262765   0.242   1.544  10.895  1.5686 -2.1028 -1.3112
13784TIP3   OH262766   3.474   3.286   2.769  0.2428 -0.3415 -0.4983
13784TIP3    H162767   3.458   3.208   2.821  0.7295 -0.0454  0.1052
13784TIP3    H262768   3.388   3.311   2.736 -0.2083 -0.0409  0.8699
13785TIP3   OH262769   2.679   0.181   0.326  0.2404 -0.2693  0.2043
13785TIP3    H162770   2.661   0.182   0.420 -2.0809 -2.8611 -0.1556
13785TIP3    H262771   2.599   0.218   0.286 -0.9147 -3.8612 -0.9785
13786TIP3   OH262772   2.090   5.036   5.720  0.2984  0.1254  0.2852
13786TIP3    H162773   2.177   5.066   5.744  0.0780 -0.0031  1.2759
13786TIP3    H262774   2.065   5.091   5.646  0.9740  0.5674  0.3818
13787TIP3   OH262775   2.834   4.345  15.218 -0.3327  0.6406  0.8320
13787TIP3    H162776   2.786   4.419  15.256 -1.4269  0.0403  0.6310
13787TIP3    H262777   2.839   4.281  15.289 -1.2884  0.0285  0.3634
13788TIP3   OH262778   4.037   6.639   1.902 -0.3808 -0.4867  0.5526
13788TIP3    H162779   4.028   6.573   1.833 -0.1811 -0.2971  0.3455
13788TIP3    H262780   3.986   6.713   1.872 -2.4008 -1.3388  1.7934
13789TIP3   OH262781   0.459   5.926   1.264 -0.0502  0.0315 -0.6114
13789TIP3    H162782   0.449   6.021   1.266  1.8938  0.2505 -0.0574
13789TIP3    H262783   0.482   5.901   1.353 -0.6416 -0.9811 -0.7249
13790TIP3   OH262784   4.782   4.967  15.945 -0.2910 -0.2925  0.3070
13790TIP3    H162785   4.848   4.942  15.881 -0.4803  0.2315 -0.1006
13790TIP3    H262786   4.831   5.009  16.016 -0.2416  0.6514 -0.2795
13791TIP3   OH262787   1.972   4.410  10.451  0.1397 -0.1503  0.0319
13791TIP3    H162788   2.020   4.464  10.515  1.9433 -2.5280  0.7642
13791TIP3    H262789   1.915   4.355  10.505  1.8955 -2.3891 -0.2953
13792TIP3   OH262790   1.039   0.670   0.034  0.5088 -1.0189 -0.2615
13792TIP3    H162791   0.985   0.658  -0.043  1.0508 -0.7590 -0.6854
13792TIP3    H262792   0.989   0.729   0.090  0.3489 -0.7910 -0.6425
13793TIP3   OH262793   3.536   3.000   0.485  0.6573  0.1016 -0.2360
13793TIP3    H162794   3.592   2.978   0.560 -0.3085  0.7937  0.6983
13793TIP3    H262795   3.572   3.083   0.452 -0.1816  0.8668  0.7469
13794TIP3   OH262796   4.912   4.811   4.325  0.1813 -0.1660 -0.5138
13794TIP3    H162797   4.898   4.784   4.234  0.3077 -0.1332 -0.5423
13794TIP3    H262798   4.867   4.744   4.377 -0.2341  0.0330 -0.6111
13795TIP3   OH262799   2.577   6.709   3.112 -0.2299 -0.2963 -0.0210
13795TIP3    H162800   2.560   6.616   3.094 -0.6294 -0.3910  0.8331
13795TIP3    H262801   2.528   6.756   3.045  1.5084 -0.7421 -1.6667
13796TIP3   OH262802   2.338   1.364   2.672 -0.4164  0.0784 -0.0994
13796TIP3    H162803   2.332   1.452   2.710  0.2397 -0.3613  1.0430
13796TIP3    H262804   2.354   1.307   2.747  0.9904 -0.7939 -1.0471
13797TIP3   OH262805   0.507   6.617   3.168 -0.1789 -0.2077  0.2438
13797TIP3    H162806   0.479   6.642   3.256  0.2358  0.7357  0.1147
13797TIP3    H262807   0.444   6.659   3.110 -0.3428 -0.6762  0.0846
13798TIP3   OH262808   6.633   1.971  14.722  0.1427  0.0698  0.4214
13798TIP3    H162809   6.656   1.888  14.680 -1.2839  0.3698 -1.0190
13798TIP3    H262810   6.556   1.952  14.775 -2.5318  1.2076 -2.8831
13799TIP3   OH262811   6.033   0.341   2.998  0.6938  0.1699  0.1007
13799TIP3    H162812   6.056   0.354   2.906  1.3594 -1.1197  0.0747
13799TIP3    H262813   6.065   0.421   3.042 -0.0002  0.9691 -0.8395
13800TIP3   OH262814   4.760   1.337   1.318 -0.3095  0.0695  0.7290
13800TIP3    H162815   4.717   1.410   1.274  1.0673  0.3554 -0.1795
13800TIP3    H262816   4.724   1.338   1.407  0.3442  2.4156  1.0021
13801TIP3   OH262817   6.049   1.146   0.259  0.2810  0.0152 -0.1136
13801TIP3    H162818   6.041   1.222   0.201  2.5874 -0.0222 -0.5462
13801TIP3    H262819   6.007   1.075   0.211  2.5161 -0.1033 -1.9676
13802TIP3   OH262820   6.218   1.655   5.202  0.2070 -0.5932  0.6334
13802TIP3    H162821   6.236   1.590   5.269  3.2926 -0.9664 -0.4656
13802TIP3    H262822   6.249   1.615   5.121  0.2262  1.4088 -0.3809
13803TIP3   OH262823   2.463   2.096  17.001  0.0673 -0.0975  0.2489
13803TIP3    H162824   2.411   2.156  17.055  1.4554 -0.8427  2.4769
13803TIP3    H262825   2.541   2.147  16.977 -0.9146  0.5081 -1.8116
13804TIP3   OH262826   2.689   1.369  14.865  0.0256 -0.2162  0.5864
13804TIP3    H162827   2.714   1.362  14.773 -0.7427 -1.1791  0.4461
13804TIP3    H262828   2.594   1.381  14.863  0.1647  1.1717  1.2103
13805TIP3   OH262829   0.408   2.228   2.413 -0.2786  0.3355 -0.1813
13805TIP3    H162830   0.344   2.217   2.484  0.4238  2.4464  0.8223
13805TIP3    H262831   0.442   2.316   2.425  0.9714  0.1706 -2.2611
13806TIP3   OH262832   3.983   4.374   1.860  0.5296  0.0003 -0.2624
13806TIP3    H162833   4.023   4.304   1.912 -0.6044 -0.9349 -0.6206
13806TIP3    H262834   4.043   4.447   1.868  1.1027 -0.6089  1.1722
13807TIP3   OH262835   1.766   1.924   4.097 -0.8384  0.0657  0.1543
13807TIP3    H162836   1.683   1.884   4.071 -1.3748  1.0709  0.2975
13807TIP3    H262837   1.740   2.000   4.149  0.1799  0.2437  0.3979
13808TIP3   OH262838   4.379   4.489  11.234  0.1057 -0.1798 -0.1736
13808TIP3    H162839   4.388   4.403  11.275  1.2986  0.4187  0.8374
13808TIP3    H262840   4.365   4.470  11.141 -0.5869 -1.4808  0.1769
13809TIP3   OH262841   1.440   3.084  16.485 -0.2061 -0.0413 -0.1108
13809TIP3    H162842   1.361   3.131  16.513 -0.5882 -0.0341 -1.1778
13809TIP3    H262843   1.507   3.110  16.548 -0.8365  0.6221  0.2984
13810TIP3   OH262844   3.765   5.447  11.098  0.1740 -0.2971 -0.4621
13810TIP3    H162845   3.720   5.505  11.160  0.0871  0.5096 -1.2671
13810TIP3    H262846   3.706   5.443  11.023  0.3729 -1.1171 -0.5815
13811TIP3   OH262847   4.178   2.870   5.040  0.5468 -0.6269 -0.0341
13811TIP3    H162848   4.180   2.835   5.129  3.2815  0.2751  0.2977
13811TIP3    H262849   4.251   2.827   4.996  0.9952  1.0880 -0.9987
13812TIP3   OH262850   2.966   5.685   2.652 -0.1339 -0.8598 -0.2471
13812TIP3    H162851   3.014   5.759   2.690  0.0695 -1.2604  0.2859
13812TIP3    H262852   2.932   5.719   2.570  0.3429 -0.3064 -0.2262
13813TIP3   OH262853   1.520   4.630  13.868 -0.3152  0.2207  0.4247
13813TIP3    H162854   1.533   4.657  13.959  0.2165  0.7885  0.1795
13813TIP3    H262855   1.556   4.701  13.816 -0.7446 -0.0373 -0.2380
13814TIP3   OH262856   1.209   1.677   5.639 -0.7228 -0.2298 -0.2770
13814TIP3    H162857   1.179   1.748   5.583  0.2656 -0.0951 -0.6386
13814TIP3    H262858   1.161   1.689   5.721  0.1622  1.4226  0.0089
13815TIP3   OH262859   3.738   3.804  12.995  0.1997  0.4187 -0.7491
13815TIP3    H162860   3.646   3.832  12.988  0.2970  0.2716 -2.7599
13815TIP3    H262861   3.733   3.719  13.040 -0.7465 -0.0973 -1.8042
13816TIP3   OH262862   1.038   5.794  12.063  0.6657  0.2446  0.0948
13816TIP3    H162863   0.954   5.757  12.087  0.1108  1.5496  0.2146
13816TIP3    H262864   1.063   5.847  12.139  1.8085 -0.4928  0.2451
13817TIP3   OH262865   3.882   6.194  12.772  0.1359 -0.2914  0.0797
13817TIP3    H162866   3.795   6.210  12.808  0.1441  1.1791 -0.5013
13817TIP3    H262867   3.880   6.236  12.686  0.8540 -1.7727 -0.6792
13818TIP3   OH262868   6.465   4.499  13.616 -0.5348 -0.1681 -0.4703
13818TIP3    H162869   6.467   4.566  13.684 -2.6466 -0.7793  0.2358
13818TIP3    H262870   6.397   4.528  13.555 -1.0038 -1.3049 -0.5070
13819TIP3   OH262871   4.914   3.355   4.723  0.8180  0.2946  0.3930
13819TIP3    H162872   4.823   3.371   4.697  0.7509  0.0028  0.4473
13819TIP3    H262873   4.934   3.268   4.689  1.3853  0.7468 -0.4456
13820TIP3   OH262874   4.482   1.950   2.015 -0.3490  0.1372  0.0348
13820TIP3    H162875   4.457   2.024   2.069  0.6161  0.8723 -0.5110
13820TIP3    H262876   4.403   1.929   1.965 -0.5665  0.9251  0.0438
13821TIP3   OH262877   2.069   6.564   1.565  0.2922 -0.6656 -0.2460
13821TIP3    H162878   2.150   6.604   1.533  0.7952 -1.2349  0.3038
13821TIP3    H262879   2.067   6.584   1.658 -1.2578  1.1280 -0.6201
13822TIP3   OH262880   1.536   1.617  14.885  0.2624  0.3945  0.0957
13822TIP3    H162881   1.529   1.559  14.809  0.5836  1.7082 -0.9549
13822TIP3    H262882   1.456   1.600  14.935 -0.5744  0.4043 -1.1894
13823TIP3   OH262883   4.011   5.759   5.178 -0.1804 -0.4671  0.3229
13823TIP3    H162884   3.955   5.834   5.196 -0.5620 -0.6194 -0.2018
13823TIP3    H262885   3.964   5.684   5.215  0.3204 -0.4119  1.0706
13824TIP3   OH262886   2.751   6.650  10.666  0.0383  0.1656  0.4849
13824TIP3    H162887   2.777   6.742  10.669  1.1122 -0.1631  1.9438
13824TIP3    H262888   2.675   6.644  10.723  0.9195 -0.1351  1.6366
13825TIP3   OH262889   2.075   3.546   4.374 -0.7076 -0.3841 -0.0264
13825TIP3    H162890   1.988   3.521   4.343 -1.2416 -0.6908  1.6464
13825TIP3    H262891   2.134   3.484   4.331 -1.6462 -2.1854  1.1826
13826TIP3   OH262892   5.752   4.498   0.320  0.3559 -0.1698  0.5764
13826TIP3    H162893   5.818   4.547   0.271  0.4232  0.1188  0.9528
13826TIP3    H262894   5.769   4.406   0.298  0.7884 -0.0858  0.5565
13827TIP3   OH262895   1.355   3.301  16.271 -0.0499 -0.1545 -0.1540
13827TIP3    H162896   1.308   3.262  16.197 -0.6680 -0.2048  0.2589
13827TIP3    H262897   1.436   3.250  16.278  0.1299  0.0291 -0.9642
13828TIP3   OH262898   6.377   2.407   0.034  0.2082  0.0822  0.5061
13828TIP3    H162899   6.320   2.449  -0.030  2.0453  2.6763  0.4884
13828TIP3    H262900   6.432   2.348  -0.017 -1.4918 -1.3905  0.3469
13829TIP3   OH262901   3.322   3.601  16.936 -0.2552 -0.2873 -0.3396
13829TIP3    H162902   3.267   3.596  17.014 -0.0767  0.7983 -0.1388
13829TIP3    H262903   3.388   3.532  16.949  0.9257  1.1005  1.3840
13830TIP3   OH262904   1.224   5.918  14.575  0.2256 -0.0934  0.0140
13830TIP3    H162905   1.301   5.876  14.536 -1.6340 -1.2128 -2.6093
13830TIP3    H262906   1.200   5.860  14.648  0.8949 -0.6591 -0.2108
13831TIP3   OH262907   5.528   4.856  14.276 -0.2546 -0.3944  0.1122
13831TIP3    H162908   5.493   4.782  14.226 -1.9613 -0.3894  1.2316
13831TIP3    H262909   5.475   4.931  14.249  0.7214  0.1824 -0.1953
13832TIP3   OH262910   3.975   1.108  11.502 -0.1303  0.7338 -0.2282
13832TIP3    H162911   3.944   1.089  11.590 -2.1957 -1.2944 -1.3601
13832TIP3    H262912   3.906   1.162  11.463  0.5868  1.2862 -0.7644
13833TIP3   OH262913   0.291   0.697   1.824 -0.0472 -0.3119  0.4346
13833TIP3    H162914   0.219   0.721   1.882 -0.5901  0.7893 -0.6716
13833TIP3    H262915   0.350   0.773   1.825 -0.0722 -0.2734 -0.4658
13834TIP3   OH262916   6.676   0.169  12.709  0.2804 -0.3278 -0.1265
13834TIP3    H162917   6.749   0.230  12.699 -0.5097  0.5974 -0.2285
13834TIP3    H262918   6.643   0.185  12.798  0.9052 -1.5327  0.3381
13835TIP3   OH262919   5.000   1.459   4.048  0.3340 -0.1303 -0.0405
13835TIP3    H162920   4.935   1.512   4.002 -0.6166  0.3652  1.8116
13835TIP3    H262921   5.084   1.499   4.024  0.0234 -1.0801 -2.8357
13836TIP3   OH262922   1.897   3.476  13.239 -0.2045 -0.5287  0.3508
13836TIP3    H162923   1.825   3.423  13.274 -0.4796 -0.0543  0.4993
13836TIP3    H262924   1.968   3.413  13.226 -0.5481 -0.9474  0.4773
13837TIP3   OH262925   6.315   4.066  16.318  0.4338 -0.4770 -0.0334
13837TIP3    H162926   6.334   4.133  16.384  1.2992 -0.0154 -0.7238
13837TIP3    H262927   6.350   4.103  16.237 -0.6627 -1.0074 -0.7609
13838TIP3   OH262928   5.260   4.063   5.063  0.3545 -0.0500 -0.6551
13838TIP3    H162929   5.354   4.081   5.053  0.3012  0.3604 -0.3923
13838TIP3    H262930   5.247   4.059   5.158  0.2330 -0.7540 -0.7005
13839TIP3   OH262931   4.408   6.462  13.347  0.1108  0.4846 -0.0503
13839TIP3    H162932   4.313   6.452  13.348  0.3080 -1.5734 -0.2642
13839TIP3    H262933   4.422   6.556  13.339 -1.9068  0.8385  0.3940
13840TIP3   OH262934   0.020   6.618   2.560 -0.5310 -0.8917 -0.1293
13840TIP3    H162935   0.049   6.529   2.576  0.3564 -0.2898  1.7719
13840TIP3    H262936  -0.049   6.633   2.624 -2.4544 -1.0391 -2.1136
13841TIP3   OH262937   4.806   2.496  15.343 -0.6266  0.1924 -0.1546
13841TIP3    H162938   4.866   2.522  15.413  0.4388 -0.4639 -0.7969
13841TIP3    H262939   4.810   2.568  15.280 -2.1646  1.1325  0.7939
13842TIP3   OH262940   4.897   5.940  10.394  0.0634  0.8909  0.1348
13842TIP3    H162941   4.842   5.868  10.362 -0.6017  0.5106  2.0554
13842TIP3    H262942   4.983   5.923  10.357 -0.3619 -0.2984 -0.3237
13843TIP3   OH262943   5.972   1.514  11.090  0.1330 -0.0608  0.0983
13843TIP3    H162944   6.034   1.446  11.117  0.4687  0.5491  0.8972
13843TIP3    H262945   6.026   1.588  11.064 -0.2536  0.6327  1.2179
13844TIP3   OH262946   5.728   5.258  16.879  0.5727 -0.4248  0.4284
13844TIP3    H162947   5.666   5.317  16.922 -1.4219 -0.6712 -1.9919
13844TIP3    H262948   5.758   5.306  16.802  1.3420 -1.3827  0.1118
13845TIP3   OH262949   4.458   0.739   0.674 -0.1426  0.0544  0.2471
13845TIP3    H162950   4.455   0.815   0.615 -2.9335 -0.1430  0.0331
13845TIP3    H262951   4.406   0.672   0.629  0.6145 -1.2897  1.3558
13846TIP3   OH262952   2.380   6.066   6.277 -0.5548 -0.2352  0.3441
13846TIP3    H162953   2.304   6.094   6.328  3.4602  2.9378  5.0178
13846TIP3    H262954   2.374   6.118   6.196 -2.1165  1.7628  1.6865
13847TIP3   OH262955   2.232   0.645  14.894 -0.5671 -0.4015  0.2026
13847TIP3    H162956   2.151   0.687  14.868 -1.0737  0.1109  2.5418
13847TIP3    H262957   2.290   0.716  14.921  0.5122 -0.8006 -0.9476
13848TIP3   OH262958   1.459   4.841   2.113 -0.5071 -0.7982  0.1190
13848TIP3    H162959   1.456   4.926   2.068 -2.0317  0.8533  3.1882
13848TIP3    H262960   1.412   4.782   2.055 -0.7122  0.8144 -1.4061
13849TIP3   OH262961   5.125   2.586  12.724 -0.3730  0.0440 -0.1014
13849TIP3    H162962   5.121   2.680  12.707 -0.4988  0.0817  0.1241
13849TIP3    H262963   5.143   2.546  12.639  0.6451  0.3478 -0.0353
13850TIP3   OH262964   0.790   5.305   6.677  0.2147 -0.2423  0.4608
13850TIP3    H162965   0.775   5.296   6.583  2.6639 -5.0125  0.3672
13850TIP3    H262966   0.705   5.289   6.717 -0.4265 -0.1776 -0.8742
13851TIP3   OH262967   0.707   2.817   4.786  0.2231 -0.0317  0.1225
13851TIP3    H162968   0.675   2.749   4.726 -0.0522  0.5811 -0.4386
13851TIP3    H262969   0.760   2.770   4.850  1.1425 -0.6183 -1.0398
13852TIP3   OH262970   4.552   5.281   1.276  0.0117  0.4309 -1.2663
13852TIP3    H162971   4.569   5.212   1.340  0.1489  0.0214 -1.7367
13852TIP3    H262972   4.456   5.286   1.271 -0.0086  1.5252  0.0918
13853TIP3   OH262973   1.860   1.465  13.944  0.2481 -0.1178 -0.1375
13853TIP3    H162974   1.830   1.515  14.020 -1.3267  0.6261 -1.2283
13853TIP3    H262975   1.934   1.515  13.909  0.2936  0.1041  0.2774
13854TIP3   OH262976   6.157   6.679  14.198 -0.0296 -0.2077 -0.1295
13854TIP3    H162977   6.179   6.671  14.290  0.0291 -1.5100 -0.2587
13854TIP3    H262978   6.091   6.612  14.182  0.3686 -0.3699 -1.1663
13855TIP3   OH262979   3.308   5.394  14.589  0.1694  0.2383 -0.3378
13855TIP3    H162980   3.335   5.401  14.680  0.3757  2.5858 -0.5662
13855TIP3    H262981   3.212   5.391  14.592  0.2102 -2.6899  0.1048
13856TIP3   OH262982   1.829   1.799   5.612  0.8717  0.1743  0.4965
13856TIP3    H162983   1.883   1.725   5.640  0.1843 -0.5344 -0.0233
13856TIP3    H262984   1.889   1.873   5.611  1.8222 -0.5888 -0.0103
13857TIP3   OH262985   0.407   2.643  12.171 -0.1469  0.4688  0.3679
13857TIP3    H162986   0.339   2.697  12.131  0.2483  1.8375  1.5167
13857TIP3    H262987   0.374   2.554  12.164 -1.1914  0.9339 -0.8038
13858TIP3   OH262988   5.749   4.988  14.591 -0.0470 -0.1200 -0.0542
13858TIP3    H162989   5.718   5.042  14.517  0.8771  0.6093  0.0830
13858TIP3    H262990   5.670   4.946  14.625 -0.8153  1.3009 -0.0542
13859TIP3   OH262991   6.229   3.493   2.134  0.0082 -0.4578  0.0990
13859TIP3    H162992   6.172   3.478   2.058  1.8995 -2.0123 -1.0625
13859TIP3    H262993   6.189   3.442   2.204 -1.4887  0.5886  0.0261
13860TIP3   OH262994   6.455   2.272   3.830 -0.2738  0.8077 -0.3662
13860TIP3    H162995   6.464   2.257   3.924 -0.4702 -0.5938 -0.5630
13860TIP3    H262996   6.436   2.365   3.822  2.1141  1.4503  0.8320
13861TIP3   OH262997   5.092   3.927  12.114 -0.3657  0.5003 -0.4261
13861TIP3    H162998   5.041   3.939  12.195 -0.1123 -0.9319 -0.0443
13861TIP3    H262999   5.126   3.838  12.120 -1.0194  0.0996 -2.5130
13862TIP3   OH263000   2.625   0.723  13.019 -0.3556  0.1810  0.1717
13862TIP3    H163001   2.534   0.724  13.051 -0.5518  0.2384 -0.3832
13862TIP3    H263002   2.620   0.676  12.936  0.1820 -0.1105  0.3049
13863TIP3   OH263003   0.707   0.262   0.882  1.1654 -0.6285 -0.1593
13863TIP3    H163004   0.740   0.187   0.833 -0.7457 -1.0309 -0.8743
13863TIP3    H263005   0.657   0.313   0.818  0.4312 -0.0170  0.8871
13864TIP3   OH263006   2.585   2.677  13.292 -0.7984  0.3469 -0.3033
13864TIP3    H163007   2.549   2.599  13.249  0.1296  0.4771 -1.3361
13864TIP3    H263008   2.514   2.742  13.285 -2.0933 -0.7953  1.7674
13865TIP3   OH263009   0.063   1.980   2.737 -0.7165 -0.4494  0.9763
13865TIP3    H163010   0.137   1.918   2.742 -0.4411 -0.1764  0.3094
13865TIP3    H263011  -0.014   1.926   2.754 -0.3358 -0.6776  2.0086
13866TIP3   OH263012   5.846   4.792  13.664 -0.4069 -0.4882  0.1043
13866TIP3    H163013   5.814   4.878  13.691 -1.8247 -1.0259  0.2013
13866TIP3    H263014   5.935   4.807  13.634 -0.9575  1.1824 -0.7358
13867TIP3   OH263015   5.620   2.281   3.530  0.5482  0.3047  0.1240
13867TIP3    H163016   5.701   2.231   3.533  0.3179 -0.0529  0.5384
13867TIP3    H263017   5.556   2.220   3.492  0.4003  0.4754  0.1004
13868TIP3   OH263018   0.421   5.632   0.469 -0.3627 -0.6374 -0.0094
13868TIP3    H163019   0.332   5.640   0.436 -0.8411 -1.3521  1.0743
13868TIP3    H263020   0.469   5.703   0.427 -1.9500  1.1210  1.0439
13869TIP3   OH263021   1.817   3.611   1.450 -0.4498 -0.2541  0.0254
13869TIP3    H163022   1.808   3.536   1.508  0.5391 -0.7181 -0.4053
13869TIP3    H263023   1.779   3.684   1.499 -2.8375 -1.3252 -0.1944
13870TIP3   OH263024   2.995   1.003   0.117 -0.3653 -0.1229 -0.0179
13870TIP3    H163025   3.026   0.919   0.083 -0.6352  0.2112 -1.1005
13870TIP3    H263026   2.998   1.062   0.042 -0.5227  0.7423  0.6529
13871TIP3   OH263027   3.243   4.541   5.951 -0.1486  0.1417  0.0217
13871TIP3    H163028   3.259   4.633   5.928 -0.9292 -0.1543 -1.8298
13871TIP3    H263029   3.150   4.537   5.971  0.0233 -0.1083  0.7651
13872TIP3   OH263030   6.312   3.791   3.299 -0.4375  0.0358 -0.7456
13872TIP3    H163031   6.272   3.875   3.278 -1.3224 -0.6231 -1.6884
13872TIP3    H263032   6.356   3.764   3.219 -1.9416 -1.4065 -1.1114
13873TIP3   OH263033   6.040   4.037   4.100 -0.9875  0.7347  0.1966
13873TIP3    H163034   6.129   4.049   4.067 -1.1135  1.2832  0.0433
13873TIP3    H263035   6.006   4.126   4.108 -1.4336  0.5358  0.4961
13874TIP3   OH263036   6.080   2.783  15.662 -0.1358  0.0231 -0.5125
13874TIP3    H163037   6.093   2.844  15.736  1.0951 -3.1353  2.0005
13874TIP3    H263038   6.169   2.760  15.635 -0.5753 -1.7914 -0.4301
13875TIP3   OH263039   0.022   3.139   6.341 -0.1664  0.3897 -0.0275
13875TIP3    H163040   0.002   3.058   6.388  0.5103  0.2291 -0.0048
13875TIP3    H263041  -0.004   3.209   6.400 -1.7402  0.1879 -0.4758
13876TIP3   OH263042   6.330   0.082  16.448  0.5561  0.0936 -0.1866
13876TIP3    H163043   6.315   0.176  16.439 -0.4328  0.0420  0.7357
13876TIP3    H263044   6.327   0.067  16.543  3.7439 -0.3984 -0.0862
13877TIP3   OH263045   6.661   2.256   2.192 -0.3095  0.4555  0.1166
13877TIP3    H163046   6.621   2.233   2.109  1.6402  0.6309 -0.8955
13877TIP3    H263047   6.697   2.343   2.177  0.3388  0.3500  1.0563
13878TIP3   OH263048   5.997   4.318  16.852  0.1097  0.0823 -0.3937
13878TIP3    H163049   6.035   4.304  16.765 -1.5319 -0.9032 -0.9896
13878TIP3    H263050   5.950   4.236  16.870 -0.3189  0.6335  1.0248
13879TIP3   OH263051   5.190   4.201   5.935 -0.0974 -0.5048 -0.1170
13879TIP3    H163052   5.234   4.172   6.015  0.1168 -1.5773 -0.6170
13879TIP3    H263053   5.097   4.185   5.952  0.1122 -2.6629 -0.8428
13880TIP3   OH263054   1.226   6.388   0.772  0.1529  0.0516  0.8045
13880TIP3    H163055   1.232   6.463   0.713 -1.6233  0.0601  0.5995
13880TIP3    H263056   1.195   6.425   0.855 -0.2693 -0.3948  0.8477
13881TIP3   OH263057   6.534   0.786  11.377  0.0529 -0.1338 -0.4050
13881TIP3    H163058   6.491   0.716  11.427  0.5007  0.0013  0.1810
13881TIP3    H263059   6.499   0.778  11.289 -2.2772  0.8636  0.3787
13882TIP3   OH263060   6.122   0.565  10.916  0.2911 -0.1339  0.3261
13882TIP3    H163061   6.214   0.542  10.900  0.2843 -0.4843  0.7752
13882TIP3    H263062   6.072   0.493  10.877  0.2393 -0.4301  0.9404
13883TIP3   OH263063   2.652   3.392   2.427  0.5494  0.3686  1.1113
13883TIP3    H163064   2.611   3.324   2.480 -0.2806 -0.1031 -0.1164
13883TIP3    H263065   2.736   3.356   2.402  0.2303 -0.0924  0.7046
13884TIP3   OH263066   4.238   4.813   6.243  0.1149  0.7680  0.1655
13884TIP3    H163067   4.289   4.752   6.189 -0.0304  0.6453  0.1679
13884TIP3    H263068   4.178   4.757   6.292 -0.8465  1.0178 -0.7231
13885TIP3   OH263069   0.078   0.709   5.344 -1.0014  0.5475  0.4491
13885TIP3    H163070   0.008   0.760   5.303  0.0249  2.9646  1.6084
13885TIP3    H263071   0.066   0.724   5.438 -1.5277 -2.5243  0.9288
13886TIP3   OH263072   3.397   4.424   1.816  0.2446  0.2631 -0.2620
13886TIP3    H163073   3.419   4.471   1.896  1.1970 -0.8392  0.1429
13886TIP3    H263074   3.463   4.453   1.752  1.3874 -1.1523  0.2398
13887TIP3   OH263075   1.137   0.121   5.431 -0.3100  0.4448  0.0822
13887TIP3    H163076   1.180   0.038   5.452 -2.1049  0.0900  2.5513
13887TIP3    H263077   1.189   0.187   5.477  0.3692  0.5730 -0.8482
13888TIP3   OH263078   0.579   6.364   3.084 -0.0770  0.1267  0.1333
13888TIP3    H163079   0.556   6.366   2.991 -2.4003 -0.2508  0.6528
13888TIP3    H263080   0.544   6.446   3.119  2.1225  0.9814  0.4168
13889TIP3   OH263081   0.283   4.516   3.695  0.0109 -0.3457 -0.0030
13889TIP3    H163082   0.286   4.465   3.776 -2.3225  1.2899  1.1473
13889TIP3    H263083   0.349   4.584   3.707  1.2330 -1.4348 -0.4257
13890TIP3   OH263084   1.802   1.660  16.661 -0.2525 -0.2563 -0.1668
13890TIP3    H163085   1.850   1.636  16.741 -0.4022 -0.0965 -0.0293
13890TIP3    H263086   1.754   1.580  16.638  0.2649 -0.4910 -0.4377
13891TIP3   OH263087   0.961   1.511  12.739  0.6626  0.0525  0.3555
13891TIP3    H163088   0.975   1.513  12.645  1.1200  0.0918  0.4202
13891TIP3    H263089   0.979   1.600  12.768 -1.5191  0.5686  0.2111
13892TIP3   OH263090   3.556   3.697  14.561 -0.6327 -0.6027  0.1668
13892TIP3    H163091   3.578   3.690  14.468 -0.7474  0.4293  0.0635
13892TIP3    H263092   3.635   3.731  14.603 -1.2120  0.8103  0.1463
13893TIP3   OH263093   0.794   6.360   4.455  0.1277  0.4097  0.0907
13893TIP3    H163094   0.811   6.278   4.501  2.6232  0.4784 -0.6059
13893TIP3    H263095   0.819   6.429   4.516 -1.5186  0.6663  0.5023
13894TIP3   OH263096   1.652   0.743   2.094  0.2463 -0.4819 -0.4101
13894TIP3    H163097   1.630   0.770   2.005 -2.6142 -2.1376 -0.2475
13894TIP3    H263098   1.658   0.825   2.143 -0.9595  0.2705 -1.5028
13895TIP3   OH263099   6.648   4.410  14.159 -0.3362 -0.0014 -0.1181
13895TIP3    H163100   6.737   4.434  14.184 -0.4219  0.5770 -0.3531
13895TIP3    H263101   6.613   4.489  14.117 -0.8008 -0.3764 -0.4410
13896TIP3   OH263102   5.110   2.595  15.241  0.3375  0.0126 -0.3734
13896TIP3    H163103   5.137   2.530  15.176  1.7245  1.1619 -0.9683
13896TIP3    H263104   5.125   2.680  15.198 -0.6499  0.7572  0.6993
13897TIP3   OH263105   5.746   1.344   2.538 -0.2554  0.0106  0.5909
13897TIP3    H163106   5.651   1.337   2.540 -0.3061  0.4276 -0.0265
13897TIP3    H263107   5.777   1.256   2.561 -0.7754  0.0543  1.4882
13898TIP3   OH263108   5.954   4.753   4.795  0.2150 -0.6942 -0.6941
13898TIP3    H163109   5.940   4.780   4.704  1.9673  0.3834 -0.6683
13898TIP3    H263110   5.993   4.830   4.837 -0.5368 -1.1895  0.9742
13899TIP3   OH263111   4.794   2.237  12.341 -0.2190 -0.0880 -0.2510
13899TIP3    H163112   4.853   2.235  12.417 -0.9052  1.5896  0.3419
13899TIP3    H263113   4.781   2.145  12.319 -0.1903 -0.6222  1.8134
13900TIP3   OH263114   3.313   0.427  14.343  0.0632 -0.2392  0.5228
13900TIP3    H163115   3.258   0.495  14.305 -0.1778 -0.4605  0.4764
13900TIP3    H263116   3.356   0.470  14.417  1.2562  0.4574 -0.5582
13901TIP3   OH263117   6.003   2.209   3.309  0.0684  0.8028 -0.4215
13901TIP3    H163118   5.975   2.222   3.219 -0.8471 -1.6769 -0.5319
13901TIP3    H263119   5.923   2.186   3.356  1.1041 -1.6068  0.2448
13902TIP3   OH263120   4.828   1.488  14.857 -0.4497 -0.0774 -0.4929
13902TIP3    H163121   4.841   1.566  14.910  0.1506 -0.3906 -0.1691
13902TIP3    H263122   4.916   1.452  14.846 -0.4590  0.5120 -2.5151
13903TIP3   OH263123   5.266   6.787  12.662  0.2243 -0.2550  0.0123
13903TIP3    H163124   5.228   6.867  12.698 -0.3352 -0.1709 -0.7540
13903TIP3    H263125   5.199   6.753  12.603  0.0388 -1.8550  1.1313
13904TIP3   OH263126   3.563   2.492  12.916  0.1845 -0.4828  0.1647
13904TIP3    H163127   3.579   2.421  12.854 -0.2238  0.6821 -1.3225
13904TIP3    H263128   3.471   2.514  12.904  0.4743  0.7638  0.0656
13905TIP3   OH263129   1.960   6.713  16.834 -0.2271  0.2613  0.1904
13905TIP3    H163130   2.031   6.723  16.770 -2.1526  1.2106 -1.8448
13905TIP3    H263131   1.904   6.645  16.798 -0.6987 -0.0653  1.4949
13906TIP3   OH263132   2.278   5.043  15.432  0.3855 -0.0009 -0.7118
13906TIP3    H163133   2.327   5.041  15.349 -0.0770 -0.3783 -0.9759
13906TIP3    H263134   2.318   4.973  15.485  0.3646 -0.0763 -0.7963
13907TIP3   OH263135   2.314   0.480  10.407 -0.2454 -0.0844 -0.1123
13907TIP3    H163136   2.389   0.520  10.449  0.4401  2.2358 -3.3472
13907TIP3    H263137   2.346   0.395  10.376  0.8515  0.6092 -0.8880
13908TIP3   OH263138   2.277   0.746  11.639 -0.1870  0.7380 -0.9338
13908TIP3    H163139   2.221   0.821  11.619 -0.7799  1.0549  1.7203
13908TIP3    H263140   2.219   0.682  11.680  0.8829 -0.0117 -0.5596
13909TIP3   OH263141   3.028   5.107  13.883 -0.0942 -0.5469  0.1756
13909TIP3    H163142   2.935   5.125  13.873 -0.2069 -1.0047  0.3833
13909TIP3    H263143   3.033   5.042  13.954  0.3975 -0.3528  0.3228
13910TIP3   OH263144   4.237   0.204  17.179 -0.3075 -0.9938 -0.8724
13910TIP3    H163145   4.189   0.127  17.151  0.0126 -1.0336 -1.3162
13910TIP3    H263146   4.238   0.261  17.102 -1.8599  0.1204 -0.0969
13911TIP3   OH263147   6.761   5.174  14.355  0.2777  0.1485  0.3625
13911TIP3    H163148   6.771   5.211  14.443 -1.1877  2.1131 -0.2492
13911TIP3    H263149   6.696   5.105  14.364 -0.6211  1.0286  0.6554
13912TIP3   OH263150   5.520   3.659   5.156  0.2765 -0.1178 -0.0238
13912TIP3    H163151   5.429   3.667   5.127  0.0467  0.2118  0.7886
13912TIP3    H263152   5.567   3.629   5.078 -0.5014 -0.1523 -0.4854
13913TIP3   OH263153   4.570   5.104   4.782 -0.1403  0.0374  0.2329
13913TIP3    H163154   4.476   5.116   4.770  0.0887  1.7049  0.0317
13913TIP3    H263155   4.577   5.026   4.837 -1.7016  0.7274  1.4602
13914TIP3   OH263156   4.330   4.117   2.413  0.1159  0.1925  0.6053
13914TIP3    H163157   4.421   4.121   2.445  0.4846 -1.3038 -0.1992
13914TIP3    H263158   4.279   4.095   2.491  0.5655  0.1096  0.8820
13915TIP3   OH263159   3.092   5.721   0.519  0.2813  0.0122 -0.8640
13915TIP3    H163160   3.111   5.653   0.455  0.4270  1.2491 -2.1606
13915TIP3    H263161   3.178   5.756   0.543  0.0832  1.1382 -1.7697
13916TIP3   OH263162   6.024   1.866   4.377  0.7506  0.4704  0.6391
13916TIP3    H163163   5.976   1.783   4.368  3.8277 -1.2766 -0.4406
13916TIP3    H263164   5.987   1.922   4.309 -0.5036 -0.4523  0.5366
13917TIP3   OH263165   6.118   0.661  16.460  0.0543  0.0384  0.5482
13917TIP3    H163166   6.121   0.711  16.379 -2.7890 -0.5684  0.0160
13917TIP3    H263167   6.167   0.714  16.523  1.8608  0.7596 -1.4015
13918TIP3   OH263168   3.795   3.873  16.313 -0.1265 -0.4827 -0.3267
13918TIP3    H163169   3.778   3.938  16.380  0.9409 -0.0859 -0.4344
13918TIP3    H263170   3.747   3.795  16.342 -0.8840  0.1468  0.1199
13919TIP3   OH263171   0.909   1.268  15.979 -0.3724  0.2870  0.4907
13919TIP3    H163172   0.909   1.205  15.907 -0.7782  1.0266 -0.1562
13919TIP3    H263173   0.864   1.345  15.945  1.4266  1.5014  0.7780
13920TIP3   OH263174   1.006   5.253  11.689 -0.4691  0.5265 -0.3602
13920TIP3    H163175   0.950   5.327  11.711 -1.0808 -0.2087  0.6044
13920TIP3    H263176   0.946   5.186  11.655 -0.1185 -0.0313  0.0939
13921TIP3   OH263177   3.789   0.941   3.583 -0.3477  0.3284  0.2832
13921TIP3    H163178   3.769   1.030   3.555  0.8858  0.8442  1.0212
13921TIP3    H263179   3.864   0.915   3.530 -1.0836 -0.5093 -0.3677
13922TIP3   OH263180   5.530   2.691   3.403  0.5728  0.0663  0.1713
13922TIP3    H163181   5.499   2.626   3.465  2.4331 -1.5684 -0.5729
13922TIP3    H263182   5.598   2.740   3.450 -1.0250  1.7088  0.8288
13923TIP3   OH263183   2.815   5.922   3.777  0.2487 -0.3547  0.2612
13923TIP3    H163184   2.864   6.003   3.760  1.5765 -0.8621  1.5977
13923TIP3    H263185   2.861   5.855   3.727  1.4027 -0.9731  2.1016
13924TIP3   OH263186   3.298   3.817   2.235 -0.0384 -0.1517  0.3290
13924TIP3    H163187   3.326   3.815   2.144 -1.3298  0.4611 -0.0955
13924TIP3    H263188   3.217   3.766   2.237  1.2473 -2.2246  1.6027
13925TIP3   OH263189   0.142   3.222   2.300  0.0312  0.0587  0.2397
13925TIP3    H163190   0.176   3.266   2.379  0.6882  1.6530 -0.9069
13925TIP3    H263191   0.210   3.236   2.234 -0.5102 -1.2814 -0.6146
13926TIP3   OH263192   5.409   2.877   1.067 -0.0488 -0.7125  0.1911
13926TIP3    H163193   5.469   2.945   1.035 -1.5455  1.2517  1.4848
13926TIP3    H263194   5.457   2.834   1.138  1.1843 -1.5304 -1.1057
13927TIP3   OH263195   6.161   2.651   0.802 -0.1297 -0.0008 -0.7673
13927TIP3    H163196   6.160   2.654   0.706  1.4999 -2.6866 -0.9301
13927TIP3    H263197   6.253   2.663   0.826 -0.3463 -0.5876  0.4107
13928TIP3   OH263198   5.451   2.286   2.594  0.0446 -0.3918  0.5909
13928TIP3    H163199   5.516   2.349   2.564  0.5381 -0.2902  1.8501
13928TIP3    H263200   5.415   2.323   2.674 -1.2822 -0.6467  0.1397
13929TIP3   OH263201   4.712   1.488  14.090  0.2618  0.1942 -0.2736
13929TIP3    H163202   4.718   1.499  13.995  1.3166 -0.6996 -0.3146
13929TIP3    H263203   4.630   1.442  14.104 -1.0797  2.4198 -0.5624
13930TIP3   OH263204   6.277   4.367   1.770  0.0942  0.0184  0.0565
13930TIP3    H163205   6.346   4.313   1.807 -0.0064 -1.0928 -1.3746
13930TIP3    H263206   6.256   4.429   1.840  1.0057 -1.0344  1.2873
13931TIP3   OH263207   4.244   4.359  12.361 -0.0574 -0.2417 -0.1639
13931TIP3    H163208   4.226   4.278  12.410 -1.2305 -0.9809 -1.7881
13931TIP3    H263209   4.332   4.348  12.326 -1.3852 -2.1717 -2.9827
13932TIP3   OH263210   5.082   2.479   0.922  0.0356 -0.7626  0.4936
13932TIP3    H163211   5.108   2.535   0.994  0.8587  0.3349 -0.6337
13932TIP3    H263212   5.100   2.531   0.843 -1.3066 -1.7411 -0.4825
13933TIP3   OH263213   6.740   2.461   2.928 -0.5846  0.2664  0.0297
13933TIP3    H163214   6.708   2.388   2.979 -0.8044  0.5857  0.3509
13933TIP3    H263215   6.828   2.478   2.962 -0.0878 -0.5743 -0.8147
13934TIP3   OH263216   3.149   6.313  16.585  0.1704 -0.2707  0.3639
13934TIP3    H163217   3.185   6.356  16.663 -0.5475 -0.7447  0.9696
13934TIP3    H263218   3.190   6.226  16.585  0.4048 -0.1628  0.0329
13935TIP3   OH263219   1.403   1.027  12.372 -0.4468 -0.1153  0.3684
13935TIP3    H163220   1.488   1.065  12.350 -0.7350  0.4297  0.1931
13935TIP3    H263221   1.372   1.079  12.447 -0.7718 -0.1072  0.2275
13936TIP3   OH263222   0.222   1.720  15.242 -0.3335 -0.1498  0.2991
13936TIP3    H163223   0.271   1.694  15.164 -3.1191 -2.5661 -0.7256
13936TIP3    H263224   0.231   1.646  15.302  0.2226  0.9121  1.5513
13937TIP3   OH263225   1.547   5.639   5.802 -0.0596 -0.2783  0.6962
13937TIP3    H163226   1.542   5.547   5.830 -1.3891  0.1069  1.7763
13937TIP3    H263227   1.563   5.687   5.883 -0.8612  0.5853  0.3421
13938TIP3   OH263228   2.520   0.640   6.221  0.0940 -0.3628  0.8173
13938TIP3    H163229   2.580   0.706   6.255  0.2008  0.2775 -0.5955
13938TIP3    H263230   2.447   0.640   6.283 -0.2821  1.6599  0.4187
13939TIP3   OH263231   5.140   2.221  16.786  0.3055  0.2902  0.6600
13939TIP3    H163232   5.175   2.139  16.822  1.0878  0.2271 -0.2195
13939TIP3    H263233   5.217   2.273  16.764 -0.1407  0.4497 -0.6146
13940TIP3   OH263234   6.746   3.189   2.063 -0.1129 -0.5110  0.2960
13940TIP3    H163235   6.790   3.252   2.120  1.0847 -1.0528 -0.0226
13940TIP3    H263236   6.816   3.137   2.025 -0.9454 -0.6783 -1.0666
13941TIP3   OH263237   6.728   2.442   4.364 -0.3180  0.5219  0.9899
13941TIP3    H163238   6.737   2.386   4.287 -1.6616 -1.8147  2.4773
13941TIP3    H263239   6.818   2.458   4.392  0.1389  0.5220 -0.4426
13942TIP3   OH263240   3.672   1.567  15.420 -0.5205 -0.5013  0.1379
13942TIP3    H163241   3.667   1.474  15.397  1.1362 -0.7119  0.5794
13942TIP3    H263242   3.717   1.607  15.346  2.0518 -0.6742  1.5464
13943TIP3   OH263243   1.219   2.426  16.555 -0.0048 -0.0552  0.4206
13943TIP3    H163244   1.200   2.366  16.627  0.6067 -2.1307 -1.0883
13943TIP3    H263245   1.261   2.501  16.596 -1.5645 -0.2564  2.4606
13944TIP3   OH263246   3.245   4.676   1.013  0.0708 -0.3173  0.1476
13944TIP3    H163247   3.254   4.733   1.089  2.4058 -1.0566  0.4585
13944TIP3    H263248   3.163   4.629   1.028 -0.4841  0.9693  1.2149
13945TIP3   OH263249   0.773   0.376  15.781 -0.1981 -0.2079  0.1500
13945TIP3    H163250   0.834   0.413  15.844 -2.2019 -0.4042  2.2868
13945TIP3    H263251   0.781   0.431  15.703 -0.0159  2.0680  1.7343
13946TIP3   OH263252   4.248   4.953   2.500  0.5414 -0.6867  0.6334
13946TIP3    H163253   4.203   4.875   2.467 -0.1890 -0.2434  0.5835
13946TIP3    H263254   4.180   5.020   2.505  0.6963 -0.6510  2.7754
13947TIP3   OH263255   0.400   4.293  14.716 -0.1614  0.0882  0.4364
13947TIP3    H163256   0.384   4.257  14.803 -1.7502  0.9811  0.5470
13947TIP3    H263257   0.432   4.219  14.664  0.1109 -0.6087  1.6007
13948TIP3   OH263258   3.411   2.808   1.879 -0.0016 -0.2461 -0.3264
13948TIP3    H163259   3.455   2.883   1.918 -0.8405 -0.4357  1.0132
13948TIP3    H263260   3.462   2.788   1.800 -0.6715  2.6742 -1.5404
13949TIP3   OH263261   2.113   4.822   3.061 -0.2719 -0.4518 -0.2609
13949TIP3    H163262   2.152   4.739   3.031 -0.1561 -0.2727 -0.5999
13949TIP3    H263263   2.023   4.799   3.084 -0.7452 -0.3405 -1.9139
13950TIP3   OH263264   5.131   5.933  13.722 -0.2346 -0.7011  0.0351
13950TIP3    H163265   5.175   5.913  13.639  1.4216  0.9470  0.4928
13950TIP3    H263266   5.157   5.862  13.780  1.0736 -0.2342  0.0261
13951TIP3   OH263267   4.938   1.882  11.049 -0.1063  0.1961 -0.5569
13951TIP3    H163268   4.852   1.867  11.010 -0.0082  2.9104 -1.9421
13951TIP3    H263269   5.000   1.850  10.984 -0.0368  0.0073 -0.3972
13952TIP3   OH263270   6.389   6.269   3.491  0.0475 -0.1448 -0.3732
13952TIP3    H163271   6.343   6.190   3.463  0.1076 -0.3628  0.1447
13952TIP3    H263272   6.480   6.255   3.465 -0.3573  0.7979 -2.5046
13953TIP3   OH263273   1.692   3.759   2.699 -0.0511  0.6227  0.0207
13953TIP3    H163274   1.658   3.670   2.691  1.2574  0.1578 -0.3864
13953TIP3    H263275   1.618   3.809   2.733 -0.6865 -0.6902  0.6166
13954TIP3   OH263276   2.103   1.701  15.307 -0.2382  0.2335 -0.0440
13954TIP3    H163277   2.185   1.666  15.272  1.1312  2.1578  1.1274
13954TIP3    H263278   2.128   1.743  15.389 -2.4926  0.4731  0.5518
13955TIP3   OH263279   0.132   5.378  15.293 -0.3526  0.6176  0.3968
13955TIP3    H163280   0.066   5.396  15.360 -0.5965 -0.0215  0.3316
13955TIP3    H263281   0.092   5.311  15.238  0.4483  0.0450  0.5028
13956TIP3   OH263282   3.390   1.435  16.818 -0.2179 -0.1162  0.3437
13956TIP3    H163283   3.388   1.357  16.874 -0.3788  0.9690  1.8557
13956TIP3    H263284   3.477   1.472  16.832 -0.7291  0.8802  0.8511
13957TIP3   OH263285   4.639   3.942   3.445 -0.1436 -0.4531 -0.4992
13957TIP3    H163286   4.599   4.029   3.445 -0.0997 -0.4048  1.1643
13957TIP3    H263287   4.697   3.943   3.521 -1.0164 -2.3236  0.2175
13958TIP3   OH263288   5.109   1.085   3.436  0.3466 -0.3302 -0.2247
13958TIP3    H163289   5.087   1.009   3.491  0.3347 -0.2403 -0.1044
13958TIP3    H263290   5.056   1.074   3.357  0.6874 -0.6881 -0.4040
13959TIP3   OH263291   4.349   5.351   3.700 -0.0888  0.3508 -0.6647
13959TIP3    H163292   4.401   5.288   3.651 -1.1817 -1.2555  0.2210
13959TIP3    H263293   4.393   5.359   3.784 -1.1000 -0.7947 -0.0197
13960TIP3   OH263294   6.492   2.055  12.184  0.0338 -0.0289 -0.3145
13960TIP3    H163295   6.586   2.039  12.171  0.2668  0.8587  0.2461
13960TIP3    H263296   6.458   2.069  12.096  0.8492  1.8694 -0.3551
13961TIP3   OH263297   0.925   0.265   4.850 -0.2562  0.0084  0.2295
13961TIP3    H163298   0.875   0.241   4.772 -1.4267  3.3898 -0.1584
13961TIP3    H263299   0.962   0.183   4.882 -1.9776 -1.8227 -2.3453
13962TIP3   OH263300   2.812   3.869  10.946 -0.0601  0.4779 -0.2626
13962TIP3    H163301   2.755   3.929  10.994 -2.1025 -0.3638 -1.5352
13962TIP3    H263302   2.777   3.870  10.857  2.1997  0.2322 -1.1900
13963TIP3   OH263303   6.673   4.363  11.840 -0.3583 -0.8758  0.2930
13963TIP3    H163304   6.681   4.332  11.750  0.0077  0.5354 -0.1813
13963TIP3    H263305   6.582   4.391  11.848 -0.4406 -1.1789  0.4240
13964TIP3   OH263306   0.256   5.124   2.234  0.6414 -0.2821 -0.5277
13964TIP3    H163307   0.243   5.174   2.154 -3.6068 -0.2466  0.0607
13964TIP3    H263308   0.227   5.036   2.212  0.6760 -0.5794  0.5921
13965TIP3   OH263309   3.465   2.851  14.724  0.1966  0.3888  0.0152
13965TIP3    H163310   3.533   2.849  14.656 -0.7339 -0.5992 -0.8944
13965TIP3    H263311   3.384   2.868  14.676 -0.7140 -1.9903  0.6554
13966TIP3   OH263312   5.918   4.675  12.933  0.3251 -0.2929  0.7013
13966TIP3    H163313   5.901   4.623  12.854  0.4892  0.4235  0.1863
13966TIP3    H263314   5.893   4.618  13.006 -1.6679 -0.2565  0.0748
13967TIP3   OH263315   4.586   4.236   3.480  0.1530 -0.0637 -0.6206
13967TIP3    H163316   4.511   4.208   3.428  0.4806 -0.7811 -0.7292
13967TIP3    H263317   4.549   4.287   3.551 -0.5300 -1.2027 -0.1403
13968TIP3   OH263318   3.685   3.215  15.100 -0.5461 -0.1586  0.0843
13968TIP3    H163319   3.623   3.146  15.123  0.3238 -0.6598  0.9693
13968TIP3    H263320   3.771   3.178  15.120  0.0028  0.7568 -0.5332
13969TIP3   OH263321   1.327   2.780  14.415  0.2420 -0.1448 -0.0104
13969TIP3    H163322   1.325   2.689  14.386 -0.3144 -0.1845  0.1552
13969TIP3    H263323   1.255   2.787  14.478 -0.8578  0.8632 -1.3589
13970TIP3   OH263324   2.396   5.620  11.740  0.0327  0.5185  0.2647
13970TIP3    H163325   2.390   5.618  11.835 -1.3817 -2.1663  0.1683
13970TIP3    H263326   2.361   5.706  11.716  0.1951  1.1269  2.1380
13971TIP3   OH263327   5.459   2.993   0.017 -0.0630 -1.0091 -0.1054
13971TIP3    H163328   5.473   3.062  -0.048 -0.0092  0.2079  1.1654
13971TIP3    H263329   5.505   3.025   0.095 -2.5408 -1.0920  1.4141
13972TIP3   OH263330   5.981   0.461  12.782  0.4298  0.2398 -0.0394
13972TIP3    H163331   5.907   0.448  12.723 -0.8256 -1.8136  1.9152
13972TIP3    H263332   6.043   0.514  12.732 -0.2334 -2.0867 -3.5027
13973TIP3   OH263333   1.049   2.015  14.147 -0.0719  0.2864 -0.2919
13973TIP3    H163334   1.025   2.101  14.182  1.3987  0.5866  0.0275
13973TIP3    H263335   1.129   1.992  14.194  0.5394 -0.4595 -1.6662
13974TIP3   OH263336   5.339   0.887  11.925  0.2697  0.2976  0.1402
13974TIP3    H163337   5.407   0.936  11.971 -0.7148  0.4516  1.4641
13974TIP3    H263338   5.257   0.929  11.950 -0.4058 -0.5899 -0.5315
13975TIP3   OH263339   5.887   6.197   0.710  0.0029  0.5070  0.1277
13975TIP3    H163340   5.964   6.151   0.743  1.4592  1.6357 -1.5848
13975TIP3    H263341   5.903   6.289   0.731 -1.0148  0.7178  0.0062
13976TIP3   OH263342   5.787   4.804  16.272  0.3134  0.1545  0.0850
13976TIP3    H163343   5.699   4.770  16.289  0.1859  0.6386  0.3749
13976TIP3    H263344   5.837   4.782  16.350  0.5801 -0.5529 -0.2790
13977TIP3   OH263345   2.873   4.256   0.115  0.3677 -0.1551  0.0840
13977TIP3    H163346   2.814   4.332   0.108  1.3327  0.3629 -3.0178
13977TIP3    H263347   2.815   4.180   0.104  0.2448  0.3523 -3.0301
13978TIP3   OH263348   1.192   1.220  15.465 -0.2657  0.1814 -0.2933
13978TIP3    H163349   1.270   1.274  15.456  1.4224 -1.5830  3.1471
13978TIP3    H263350   1.120   1.284  15.472  1.2759  1.8897  0.3296
13979TIP3   OH263351   6.128   4.327  13.989 -0.0506 -0.6931 -0.0833
13979TIP3    H163352   6.147   4.377  13.909 -1.1304 -0.5341 -0.2505
13979TIP3    H263353   6.212   4.285  14.012  0.6540  0.5186 -0.4093
13980TIP3   OH263354   3.438   4.022  15.909 -0.4139 -0.6464 -0.2425
13980TIP3    H163355   3.416   3.931  15.930  0.8491 -0.7553  0.5926
13980TIP3    H263356   3.439   4.067  15.993 -0.3314 -0.0082 -0.5824
13981TIP3   OH263357   6.592   5.436  17.182 -0.2026 -0.4951  0.4136
13981TIP3    H163358   6.683   5.440  17.154  0.3288 -0.7445  2.0809
13981TIP3    H263359   6.546   5.399  17.106  0.5971  2.1890 -1.4636
13982TIP3   OH263360   4.101   1.213   0.854 -0.2166 -0.0270 -0.1655
13982TIP3    H163361   4.174   1.187   0.797 -1.0953 -1.7839 -0.5215
13982TIP3    H263362   4.095   1.308   0.843  1.9291  0.1291 -0.2272
13983TIP3   OH263363   1.889   1.187  14.626  0.2220 -0.4783 -0.1426
13983TIP3    H163364   1.853   1.190  14.537  0.4709 -0.6300 -0.2479
13983TIP3    H263365   1.983   1.199  14.615  0.1608  0.3320  0.1751
13984TIP3   OH263366   4.679   5.438   4.390  0.1484  0.3027 -0.0597
13984TIP3    H163367   4.694   5.373   4.459 -0.9502  0.9056  0.7858
13984TIP3    H263368   4.615   5.498   4.429 -0.4329  0.6946 -1.5916
13985TIP3   OH263369   1.266   3.035   3.233 -0.2924  0.7280 -0.1776
13985TIP3    H163370   1.317   3.012   3.311  0.1935  3.2583  0.2799
13985TIP3    H263371   1.324   3.017   3.160  0.1117  0.5992  0.1709
13986TIP3   OH263372   5.006   5.595  12.979  0.2831 -0.2086  0.3510
13986TIP3    H163373   5.054   5.514  12.999  0.3472 -0.6401 -1.4467
13986TIP3    H263374   4.923   5.565  12.941 -0.9180  0.5545  2.2373
13987TIP3   OH263375   1.906   6.495   3.791  0.0979 -0.0178 -0.1713
13987TIP3    H163376   1.908   6.509   3.886  0.2710 -0.1256 -0.1587
13987TIP3    H263377   1.834   6.433   3.777 -1.8114  2.2007 -0.3976
13988TIP3   OH263378   1.761   3.061   6.383  0.1511 -0.1115 -0.2030
13988TIP3    H163379   1.707   2.999   6.432  0.6765 -0.3469  0.0803
13988TIP3    H263380   1.798   3.120   6.450  1.4605 -0.8865 -0.2160
13989TIP3   OH263381   0.150   6.727   3.539  0.5198  0.2219 -0.4977
13989TIP3    H163382   0.087   6.660   3.512 -0.3932  0.2550  1.4612
13989TIP3    H263383   0.112   6.810   3.509  0.6744  0.0411 -1.1861
13990TIP3   OH263384   2.801   6.061  12.012  0.0696  0.6698 -0.3097
13990TIP3    H163385   2.747   6.139  12.020  0.7034  0.9380  1.5449
13990TIP3    H263386   2.870   6.085  11.949  0.0125  1.4585 -0.0749
13991TIP3   OH263387   5.574   0.305   2.408  0.2092 -0.2251  0.8773
13991TIP3    H163388   5.487   0.302   2.447  0.4161  0.4069  1.3922
13991TIP3    H263389   5.627   0.354   2.471  1.1079 -1.2182  0.8956
13992TIP3   OH263390   5.424   0.875  16.232 -0.0972 -0.3599 -0.2823
13992TIP3    H163391   5.358   0.898  16.297 -0.6400 -0.7210 -0.6979
13992TIP3    H263392   5.432   0.953  16.178 -1.3102 -0.8145 -1.1631
13993TIP3   OH263393   0.555   2.623   0.103 -0.3210  0.2744 -0.1549
13993TIP3    H163394   0.460   2.637   0.107 -0.2301  1.2069 -1.0474
13993TIP3    H263395   0.589   2.670   0.179 -0.6233 -0.5614  0.5060
13994TIP3   OH263396   0.159   2.707   4.148 -0.2785  0.0690 -0.3727
13994TIP3    H163397   0.245   2.748   4.155 -0.1561 -0.2934  0.3872
13994TIP3    H263398   0.152   2.678   4.057  1.3517 -1.9443  0.1090
13995TIP3   OH263399   5.881   4.441   2.493  0.2937  0.4678  0.7895
13995TIP3    H163400   5.797   4.399   2.509  0.1754 -0.5642 -2.3461
13995TIP3    H263401   5.860   4.533   2.477 -0.6630 -0.3528 -3.1271
13996TIP3   OH263402   3.117   1.152  12.895 -0.3064  0.2954  0.0177
13996TIP3    H163403   3.038   1.205  12.896 -0.5615 -0.0731 -0.3574
13996TIP3    H263404   3.087   1.064  12.870  0.1116 -0.0157  0.5895
13997TIP3   OH263405   6.078   4.350   1.543 -0.4847  0.1624  0.0532
13997TIP3    H163406   6.120   4.286   1.486  0.0871  0.6338 -0.0589
13997TIP3    H263407   6.085   4.313   1.631  0.7894  0.5626  0.1262
13998TIP3   OH263408   3.995   1.554  16.294  0.2937  0.1769  0.4371
13998TIP3    H163409   4.062   1.578  16.358  0.0973  0.1346  0.6631
13998TIP3    H263410   3.995   1.458  16.294  1.1170  0.1781 -0.5167
13999TIP3   OH263411   4.468   4.902  11.014  0.0907  0.4638  0.0222
13999TIP3    H163412   4.555   4.942  11.002 -0.4226  1.2084 -1.2834
13999TIP3    H263413   4.483   4.808  11.006  1.2104  0.3951  2.4786
14000TIP3   OH263414   3.282   3.118   4.201 -0.6917 -0.5807  0.0922
14000TIP3    H163415   3.360   3.157   4.161 -1.0526 -0.0986 -0.1552
14000TIP3    H263416   3.257   3.179   4.270  0.1244 -1.5848  1.3028
14001TIP3   OH263417   3.821   4.649   1.846 -0.4826 -0.2042  0.4473
14001TIP3    H163418   3.884   4.580   1.827 -0.8600 -0.6161  0.6922
14001TIP3    H263419   3.782   4.671   1.762 -0.6166 -0.5346  0.4235
14002TIP3   OH263420   3.017   3.479  15.920  0.0703 -0.5300 -0.5694
14002TIP3    H163421   3.071   3.515  15.990 -0.5949  0.2730 -0.4646
14002TIP3    H263422   3.078   3.467  15.847  0.5591 -0.4296 -0.1796
14003TIP3   OH263423   6.761   1.179  16.388 -0.0617 -0.5503 -0.3673
14003TIP3    H163424   6.687   1.153  16.442  0.6934 -1.6202  0.1816
14003TIP3    H263425   6.789   1.263  16.425 -0.1456 -0.8140  0.3056
14004TIP3   OH263426   1.573   4.200   1.285  0.5921 -0.6371  0.1493
14004TIP3    H163427   1.540   4.181   1.197  1.0788 -0.9962  0.0426
14004TIP3    H263428   1.593   4.115   1.322 -0.9202 -0.5771  1.1310
14005TIP3   OH263429   6.191   0.786   1.834  0.0715  0.0957 -0.4124
14005TIP3    H163430   6.165   0.716   1.894  1.2880 -0.4131 -0.4747
14005TIP3    H263431   6.109   0.832   1.815 -0.5309 -0.5164  0.6343
14006TIP3   OH263432   5.966   2.584  14.365  0.7435 -0.1294  0.2330
14006TIP3    H163433   5.997   2.496  14.343  0.7548  0.4735 -2.3670
14006TIP3    H263434   5.929   2.617  14.283  0.3873  2.1483  1.2803
14007TIP3   OH263435   0.340   4.953   2.731  0.1311  0.0272 -0.0432
14007TIP3    H163436   0.337   5.021   2.799 -0.5712 -0.5137  0.4822
14007TIP3    H263437   0.381   4.996   2.656 -1.0373  1.2808 -0.0003
14008TIP3   OH263438   1.860   5.322   2.620 -0.0851 -0.1733 -0.1895
14008TIP3    H163439   1.800   5.392   2.645 -1.1868 -0.5852 -1.6614
14008TIP3    H263440   1.840   5.251   2.681  0.0275  0.2631  0.3604
14009TIP3   OH263441   0.953   3.476   4.823 -0.1673 -0.6771  0.1831
14009TIP3    H163442   1.047   3.456   4.824 -0.0845 -0.4389 -1.5789
14009TIP3    H263443   0.944   3.550   4.883  0.9954  0.2215 -0.7325
14010TIP3   OH263444   0.633   3.371   2.974 -0.3151 -0.4477 -0.3225
14010TIP3    H163445   0.700   3.376   3.042  0.4502  2.0650 -1.1854
14010TIP3    H263446   0.596   3.283   2.982  2.6337 -1.6530  0.5853
14011TIP3   OH263447   3.119   4.520   0.282 -0.1920 -0.2081  0.2970
14011TIP3    H163448   3.038   4.486   0.319  0.1255 -1.4555 -0.1184
14011TIP3    H263449   3.185   4.501   0.348 -0.2895  1.0831  0.7661
14012TIP3   OH263450   5.364   1.416  11.503  0.3169  0.7020  0.2914
14012TIP3    H163451   5.378   1.478  11.431 -0.7396  0.9342  0.2770
14012TIP3    H263452   5.339   1.470  11.577 -2.8455  0.1818 -0.3032
14013TIP3   OH263453   2.381   3.963  11.782 -0.1611  0.3142 -0.5983
14013TIP3    H163454   2.430   4.003  11.854 -1.4019  1.3644 -0.3254
14013TIP3    H263455   2.447   3.950  11.714  1.3827 -2.2358  1.2876
14014TIP3   OH263456   1.848   0.924   3.099  0.2331 -0.0500  0.1512
14014TIP3    H163457   1.761   0.932   3.138  0.1595 -0.1994  0.0170
14014TIP3    H263458   1.907   0.963   3.164 -0.0915  1.4237 -0.4362
14015TIP3   OH263459   4.627   2.450   6.039  0.2414 -0.4736 -0.5026
14015TIP3    H163460   4.613   2.433   6.132  0.6135 -0.2674 -0.4066
14015TIP3    H263461   4.540   2.446   6.000 -0.0555  0.5829  0.0431
14016TIP3   OH263462   6.017   2.300  14.348 -0.2996  0.1439  0.2154
14016TIP3    H163463   6.097   2.304  14.400  0.7483 -0.1387 -1.3678
14016TIP3    H263464   5.994   2.208  14.346  0.2858  0.0162 -0.7608
14017TIP3   OH263465   1.180   6.669   4.654  0.0449 -0.3486  0.3680
14017TIP3    H163466   1.166   6.744   4.596 -0.2264 -1.2138 -0.7070
14017TIP3    H263467   1.110   6.675   4.719  0.3096  0.5897  0.5615
14018TIP3   OH263468   4.284   4.468  13.362  0.7278  0.1120 -0.3465
14018TIP3    H163469   4.376   4.482  13.339  0.3833  1.1567 -1.1150
14018TIP3    H263470   4.240   4.549  13.337 -0.7387 -1.0984 -1.7605
14019TIP3   OH263471   1.547   2.211   6.455  0.0172  0.3131 -0.5668
14019TIP3    H163472   1.489   2.262   6.511 -0.5461 -1.1585  0.2237
14019TIP3    H263473   1.543   2.122   6.491 -0.2940 -0.6544 -2.9028
14020TIP3   OH263474   4.382   5.344   4.288 -0.0342  0.3936  0.0362
14020TIP3    H163475   4.466   5.369   4.327 -0.0835 -0.5762  0.7862
14020TIP3    H263476   4.375   5.250   4.304 -1.3133  0.4825  0.0732
14021TIP3   OH263477   2.566   1.299  14.534 -0.2067  0.1910 -0.2069
14021TIP3    H163478   2.651   1.256  14.525 -0.0537  0.4002  0.1874
14021TIP3    H263479   2.514   1.238  14.588  0.2177  0.7732  0.8835
14022TIP3   OH263480   5.985   0.600   5.438 -0.5365 -0.3090 -0.2227
14022TIP3    H163481   5.975   0.625   5.345 -1.1668  0.2569 -0.0083
14022TIP3    H263482   5.981   0.684   5.485  0.3264 -0.5426  0.2773
14023TIP3   OH263483   6.091   6.742   2.747  0.2990 -0.3476  0.3535
14023TIP3    H163484   6.046   6.700   2.674 -0.9397  0.1612  0.8086
14023TIP3    H263485   6.093   6.835   2.724 -0.3809 -0.1383  1.0882
14024TIP3   OH263486   5.524   5.800  15.155  0.2123  0.2291  0.2971
14024TIP3    H163487   5.561   5.723  15.198 -0.4625 -0.3409 -0.1190
14024TIP3    H263488   5.502   5.860  15.226 -1.5412 -0.9891  0.8180
14025TIP3   OH263489   5.432   1.607   1.789 -0.1140  0.1178 -0.5022
14025TIP3    H163490   5.338   1.611   1.808  0.0142  1.7174 -0.0738
14025TIP3    H263491   5.472   1.582   1.872  0.0876  2.8738  0.3114
14026TIP3   OH263492   3.605   6.585   2.576  0.2956  0.3483  0.3047
14026TIP3    H163493   3.691   6.601   2.537 -0.7059 -1.0839 -2.5762
14026TIP3    H263494   3.607   6.494   2.603 -0.4786  0.1874 -0.1717
14027TIP3   OH263495   6.786   0.162  11.968  0.0814 -0.1985 -0.3823
14027TIP3    H163496   6.721   0.232  11.956  0.4165  0.1718 -0.0451
14027TIP3    H263497   6.738   0.092  12.012 -0.7052 -0.8757 -2.2692
14028TIP3   OH263498   2.425   1.801   0.888  0.0164  0.0028 -0.2254
14028TIP3    H163499   2.474   1.776   0.967 -1.0221 -2.4374 -0.2883
14028TIP3    H263500   2.469   1.756   0.817 -0.7431 -0.1071 -0.6332
14029TIP3   OH263501   5.699   1.119  12.488 -0.1991 -0.0803 -0.2099
14029TIP3    H163502   5.671   1.027  12.484 -0.5222  0.0080 -0.0315
14029TIP3    H263503   5.711   1.135  12.582 -1.6495  0.5092 -0.1239
14030TIP3   OH263504   2.796   2.898   5.084  0.4780  0.4294  0.4802
14030TIP3    H163505   2.769   2.979   5.041  1.2054  0.3414 -0.1543
14030TIP3    H263506   2.730   2.884   5.152 -0.7495  0.5105 -0.6760
14031TIP3   OH263507   6.046   6.056   1.452  0.4313 -0.1884  0.3385
14031TIP3    H163508   5.970   6.050   1.510  1.2620 -1.0052  1.3728
14031TIP3    H263509   6.121   6.048   1.511  1.2892 -1.0414 -0.8453
14032TIP3   OH263510   5.419   2.269  12.663 -0.1760 -0.2227 -0.2064
14032TIP3    H163511   5.482   2.262  12.734  1.0046 -0.6124 -1.2854
14032TIP3    H263512   5.440   2.353  12.621 -1.7874  0.6915  0.7659
14033TIP3   OH263513   5.625   1.423  16.615 -0.5225 -0.1012 -0.3530
14033TIP3    H163514   5.612   1.419  16.710  0.3888 -1.7417 -0.2958
14033TIP3    H263515   5.537   1.412  16.579 -0.6230 -1.3655  0.2578
14034TIP3   OH263516   4.971   0.593  12.497  0.3614  0.5050  0.4067
14034TIP3    H163517   4.951   0.674  12.544 -1.2115 -0.2808  1.1578
14034TIP3    H263518   4.940   0.609  12.408 -0.0499  0.6930  0.5797
14035TIP3   OH263519   3.415   3.020   2.785  0.1778 -0.1254 -1.0173
14035TIP3    H163520   3.474   3.015   2.709  0.3614 -1.6818 -0.7800
14035TIP3    H263521   3.450   2.955   2.846 -1.4990 -0.6991 -0.6624
14036TIP3   OH263522   3.054   3.517   2.464 -0.4756  0.2642 -0.4327
14036TIP3    H163523   2.995   3.558   2.526  0.3824 -1.0581  1.3050
14036TIP3    H263524   3.030   3.424   2.465  0.0962  0.0853 -1.4628
14037TIP3   OH263525   6.378   2.944  10.533  0.0383 -0.1321  0.1221
14037TIP3    H163526   6.296   2.946  10.583 -0.9497  0.8984 -1.5085
14037TIP3    H263527   6.371   2.865  10.479  0.9141 -1.0055  1.2465
14038TIP3   OH263528   4.206   0.025   0.305 -0.3434  0.2719 -0.1961
14038TIP3    H163529   4.207   0.120   0.296  0.4083  0.3554  0.6657
14038TIP3    H263530   4.158  -0.006   0.229 -0.1046  1.3107 -0.7794
14039TIP3   OH263531   2.267   5.913   0.131  0.2213  0.0753 -0.2060
14039TIP3    H163532   2.260   6.006   0.153 -0.2956 -0.2035  0.8156
14039TIP3    H263533   2.318   5.876   0.203  0.4709 -0.4268 -0.6432
14040TIP3   OH263534   5.892   3.471  11.185 -0.3247 -0.6008 -0.3225
14040TIP3    H163535   5.887   3.474  11.281 -2.0027  0.5300 -0.4268
14040TIP3    H263536   5.805   3.443  11.157  0.0406 -0.5541 -1.5492
14041TIP3   OH263537   1.912   0.548   4.712 -0.7677 -0.0660 -0.0969
14041TIP3    H163538   1.881   0.637   4.695 -0.5428  0.1307  0.5196
14041TIP3    H263539   1.883   0.497   4.636 -1.2136  0.4552 -0.2733
14042TIP3   OH263540   2.885   3.727   5.052 -0.4053  0.6141 -0.3297
14042TIP3    H163541   2.847   3.695   4.971 -0.0441 -1.1343  0.1689
14042TIP3    H263542   2.831   3.688   5.121 -0.2158  1.4250  0.2835
14043TIP3   OH263543   0.675   4.705  10.467  1.2213 -0.1407  0.6444
14043TIP3    H163544   0.598   4.755  10.438  0.7128 -1.3300 -0.0817
14043TIP3    H263545   0.743   4.771  10.481 -0.3630  1.1237  2.7643
14044TIP3   OH263546   5.841   2.355  14.570  0.0784  0.1567  0.0415
14044TIP3    H163547   5.869   2.369  14.479 -0.7089  0.2259 -0.1924
14044TIP3    H263548   5.810   2.265  14.571 -0.7151  0.4281  0.0330
14045TIP3   OH263549   5.060   0.850   2.767  0.2358 -0.0250  0.5149
14045TIP3    H163550   5.066   0.851   2.671  0.4398 -1.5119  0.4976
14045TIP3    H263551   4.969   0.824   2.785  0.6449 -1.3879  0.7016
14046TIP3   OH263552   4.601   1.989   4.274  0.5164 -0.2085  0.3947
14046TIP3    H163553   4.605   1.897   4.248 -0.1375  0.1790 -1.1477
14046TIP3    H263554   4.567   2.034   4.196  0.3359  1.2579  1.3097
14047TIP3   OH263555   4.274   2.583   2.622 -0.3788  0.2554 -0.2626
14047TIP3    H163556   4.328   2.559   2.697 -0.5236  0.5342 -0.0677
14047TIP3    H263557   4.228   2.662   2.650 -0.8817  0.0207 -0.4299
14048TIP3   OH263558   3.611   3.215  13.949  0.1576  0.2221 -0.4189
14048TIP3    H163559   3.639   3.168  14.027 -1.7554 -2.8096 -1.4884
14048TIP3    H263560   3.594   3.304  13.980  3.1369  0.0967  1.7881
14049TIP3   OH263561   3.486   2.659   2.921  0.1014  0.1610 -0.1082
14049TIP3    H163562   3.461   2.642   2.830 -1.4566  0.2883  0.2786
14049TIP3    H263563   3.468   2.576   2.966 -1.8354  0.9529  0.6227
14050TIP3   OH263564   4.859   5.381  15.353  0.1481  0.1517  0.1619
14050TIP3    H163565   4.806   5.326  15.411  0.1699 -0.6687 -0.5872
14050TIP3    H263566   4.879   5.458  15.406  0.8726 -0.9572  1.5490
14051TIP3   OH263567   4.095   0.147   4.131  0.5587 -0.1883  0.2090
14051TIP3    H163568   4.112   0.222   4.188 -1.3840  0.3125  0.1631
14051TIP3    H263569   4.041   0.183   4.060  0.4570 -1.4197 -0.3422
14052TIP3   OH263570   3.552   1.190   3.602  0.0837 -1.0584 -0.1045
14052TIP3    H163571   3.503   1.261   3.643  2.0633  0.4842 -0.3254
14052TIP3    H263572   3.615   1.163   3.669 -0.1951 -2.1453 -0.2738
14053TIP3   OH263573   1.867   5.813   0.491 -0.7060 -0.7984  0.2849
14053TIP3    H163574   1.810   5.884   0.520 -0.1766 -0.5887  0.8230
14053TIP3    H263575   1.902   5.775   0.572  1.7408  0.5873 -0.0759
14054TIP3   OH263576   2.856   3.918   2.934 -0.2688 -0.5549 -0.0108
14054TIP3    H163577   2.799   3.963   2.997 -0.3246 -0.7889  0.1089
14054TIP3    H263578   2.878   3.985   2.869 -1.8261 -0.7950 -0.8336
14055TIP3   OH263579   2.584   6.417   3.190 -0.3225 -0.0137 -0.4550
14055TIP3    H163580   2.589   6.323   3.205  0.3253 -0.1718 -1.5904
14055TIP3    H263581   2.662   6.437   3.138  0.3122  1.3953  0.9847
14056TIP3   OH263582   0.050   4.258   5.764 -0.5029 -0.2161 -0.3288
14056TIP3    H163583   0.146   4.253   5.773 -0.6770 -1.9027  0.8344
14056TIP3    H263584   0.036   4.311   5.687  1.4193 -0.9104 -1.1849
14057TIP3   OH263585   3.058   6.507   3.503  0.0386  0.2929 -0.0549
14057TIP3    H163586   2.975   6.476   3.466  0.5113 -1.1912  0.0654
14057TIP3    H263587   3.032   6.567   3.573 -0.9583 -0.6613  0.4185
14058TIP3   OH263588   2.145   3.973   1.330  0.5584  0.1431 -0.1436
14058TIP3    H163589   2.194   3.962   1.248 -0.7754  2.3121 -1.2568
14058TIP3    H263590   2.211   4.003   1.393  0.7626  2.6612 -1.5354
14059TIP3   OH263591   6.123   5.897  12.234  0.3252 -0.3064 -0.4942
14059TIP3    H163592   6.165   5.939  12.159  1.2658 -1.6502 -0.7154
14059TIP3    H263593   6.119   5.804  12.212  0.6860 -0.7327  1.1434
14060TIP3   OH263594   0.566   1.423   0.644 -0.4815 -0.4281 -0.2371
14060TIP3    H163595   0.586   1.517   0.653 -0.3558 -0.3684 -1.1053
14060TIP3    H263596   0.506   1.404   0.716  1.0965 -0.1317  1.1907
14061TIP3   OH263597   5.154   5.360  17.002  0.5121  0.4658  0.0201
14061TIP3    H163598   5.177   5.335  16.912 -0.7752  1.0614 -0.4928
14061TIP3    H263599   5.190   5.448  17.013 -0.9878  1.1882 -0.6093
14062TIP3   OH263600   1.760   0.564  10.935  0.4278  0.4334  0.5991
14062TIP3    H163601   1.707   0.601  11.005 -0.7502 -0.9702  0.4706
14062TIP3    H263602   1.725   0.604  10.855 -0.7331 -0.8076  0.4749
14063TIP3   OH263603   5.162   4.877   3.530 -0.7360 -0.8168  0.3587
14063TIP3    H163604   5.195   4.802   3.480 -0.9276 -0.8425  0.2703
14063TIP3    H263605   5.199   4.953   3.486 -1.3181 -0.8164 -0.1358
14064TIP3   OH263606   6.159   5.161   5.072 -0.1611  0.1772  0.2364
14064TIP3    H163607   6.079   5.190   5.115  0.3983 -1.1924  2.3136
14064TIP3    H263608   6.131   5.089   5.015 -0.5147  0.1608  0.4295
14065TIP3   OH263609   2.000   2.732  17.099 -0.5833  0.5030  0.1682
14065TIP3    H163610   1.999   2.641  17.069  1.1651 -0.0619  1.6835
14065TIP3    H263611   1.930   2.737  17.163  1.3832 -0.7166  2.5203
14066TIP3   OH263612   0.788   3.065  11.802  0.6532  0.5129  0.2564
14066TIP3    H163613   0.771   3.039  11.711 -0.8979  0.3870  0.5717
14066TIP3    H263614   0.873   3.024  11.823  1.2224  0.8841 -1.2577
14067TIP3   OH263615   3.789   5.277  13.535 -0.0905 -0.0115 -0.7998
14067TIP3    H163616   3.752   5.295  13.449  0.6314 -0.4951 -1.2111
14067TIP3    H263617   3.716   5.238  13.584  0.1456 -1.8883 -1.9189
14068TIP3   OH263618   1.748   4.809  15.589  0.1520  0.0209  0.2169
14068TIP3    H163619   1.709   4.722  15.598 -1.8019  0.9240  0.5818
14068TIP3    H263620   1.780   4.812  15.498 -1.5148 -0.3742 -0.3964
14069TIP3   OH263621   2.315   5.239  12.262 -0.3274  0.1147  0.3296
14069TIP3    H163622   2.404   5.274  12.257 -0.7732  1.4967  1.6175
14069TIP3    H263623   2.327   5.149  12.292  0.5551  0.8385  2.2340
14070TIP3   OH263624   6.657   1.832   0.302  0.2776 -0.2361 -0.1929
14070TIP3    H163625   6.731   1.800   0.250 -0.8832 -1.1324 -1.3338
14070TIP3    H263626   6.691   1.838   0.391  1.4781 -1.4800 -0.5395
14071TIP3   OH263627   0.043   5.217   5.626  0.2475 -0.2134  0.3773
14071TIP3    H163628   0.038   5.312   5.619  1.6921 -0.1575 -0.0711
14071TIP3    H263629   0.053   5.200   5.720  2.1667  0.2160  0.2747
14072TIP3   OH263630   6.708   4.015   0.733  0.1526  0.1861 -0.2360
14072TIP3    H163631   6.705   4.062   0.817  1.0776 -5.0725  2.9832
14072TIP3    H263632   6.792   4.041   0.695  1.7561 -0.5995  2.6103
14073TIP3   OH263633   1.589   6.114   3.343  0.4968 -0.3730 -0.6977
14073TIP3    H163634   1.534   6.067   3.280  0.0846  0.6304 -1.0867
14073TIP3    H263635   1.635   6.179   3.291 -0.7269  1.2518  0.2007
14074TIP3   OH263636   2.472   5.865   4.141  0.1451  0.1681 -0.4351
14074TIP3    H163637   2.542   5.917   4.101  0.7367 -0.2051  0.1012
14074TIP3    H263638   2.486   5.874   4.235 -1.2261  1.0131 -0.3100
14075TIP3   OH263639   3.735   3.490   2.553  0.4615 -0.3542 -0.0427
14075TIP3    H163640   3.773   3.513   2.468  0.8831  0.4724  0.3630
14075TIP3    H263641   3.707   3.574   2.590 -0.2170 -0.7685  0.4018
14076TIP3   OH263642   3.790   2.801  16.234 -0.3552 -0.2202  0.3281
14076TIP3    H163643   3.774   2.870  16.170 -1.4253  0.5637  1.4025
14076TIP3    H263644   3.829   2.729  16.184  2.3414  1.7691 -0.5014
14077TIP3   OH263645   4.761   5.564   2.356  0.1162  0.8074 -0.1525
14077TIP3    H163646   4.780   5.646   2.401  0.6182  0.0806  1.0100
14077TIP3    H263647   4.822   5.562   2.282 -1.3105  2.4164 -1.3853
14078TIP3   OH263648   4.579   4.362   3.928  0.4860  0.4789 -0.4327
14078TIP3    H163649   4.561   4.424   3.998  0.2135  1.6606 -1.5124
14078TIP3    H263650   4.541   4.404   3.850  0.6720 -0.8565 -1.2505
14079TIP3   OH263651   5.441   6.437   1.918  0.2303 -0.5884 -0.6807
14079TIP3    H163652   5.494   6.445   1.997  0.9970  0.1325 -1.2614
14079TIP3    H263653   5.394   6.520   1.911 -0.3549 -0.9048 -0.6280
14080TIP3   OH263654   4.043   5.927  13.890 -0.1372 -0.2615 -0.2867
14080TIP3    H163655   4.027   5.948  13.982 -1.9722  0.3604 -0.7347
14080TIP3    H263656   4.062   6.012  13.849  0.4449 -0.5071 -0.5270
14081TIP3   OH263657   2.623   0.896  15.094 -0.0666 -0.0841 -0.1207
14081TIP3    H163658   2.697   0.844  15.126  0.0556  1.1863  1.7798
14081TIP3    H263659   2.657   0.986  15.090 -1.4737  0.4980  0.6901
14082TIP3   OH263660   5.170   3.487  16.039  0.0713  0.0428 -0.0956
14082TIP3    H163661   5.184   3.570  16.084 -2.3720  1.3222 -1.5835
14082TIP3    H263662   5.082   3.459  16.066  2.1081 -3.8238  3.0401
14083TIP3   OH263663   4.570   2.530   1.394 -0.2646 -0.2737  0.4250
14083TIP3    H163664   4.488   2.514   1.348  0.1636  2.9177 -1.5670
14083TIP3    H263665   4.558   2.614   1.437  1.8222  0.0154  0.4858
14084TIP3   OH263666   4.751   2.044  11.187 -0.0591 -0.1568 -0.0935
14084TIP3    H163667   4.784   1.980  11.125  0.8162 -0.8724  1.0859
14084TIP3    H263668   4.818   2.113  11.190 -0.1470 -0.0737 -0.0103
14085TIP3   OH263669   2.946   1.114   2.272  0.6309 -0.1806  0.2140
14085TIP3    H163670   2.976   1.203   2.252 -1.1576  0.1564 -1.1187
14085TIP3    H263671   3.009   1.058   2.227  0.5270  0.4641 -0.7667
14086TIP3   OH263672   1.246   4.080   0.081  0.0885  0.4881 -0.5889
14086TIP3    H163673   1.239   4.024   0.003  0.8098 -1.1567  0.5083
14086TIP3    H263674   1.320   4.045   0.129 -0.4412  1.4217  0.9312
14087TIP3   OH263675   0.185   6.350  16.483 -0.0551  0.2587 -0.3648
14087TIP3    H163676   0.091   6.343  16.464 -0.1363 -1.8096  0.6384
14087TIP3    H263677   0.198   6.296  16.561  2.0357  0.1924 -0.7264
14088TIP3   OH263678   6.385   6.004   3.403  0.5588 -0.0653 -0.6014
14088TIP3    H163679   6.330   5.957   3.466 -0.4817  3.4281  1.2419
14088TIP3    H263680   6.474   5.980   3.427  0.0432 -1.4729 -0.0364
14089TIP3   OH263681   6.652   2.587  13.055 -0.4890 -0.5124  0.5622
14089TIP3    H163682   6.683   2.506  13.096  0.7224  0.0198  0.7305
14089TIP3    H263683   6.710   2.655  13.090 -3.0594  0.8275  2.3764
14090TIP3   OH263684   6.594   2.992   2.429 -0.0028  0.2556 -0.0400
14090TIP3    H163685   6.581   3.015   2.338 -1.7677 -0.6683 -0.0516
14090TIP3    H263686   6.570   3.071   2.478  0.5379  0.6158 -0.3596
14091TIP3   OH263687   0.103   6.618  16.709  0.1057  0.3878 -0.7852
14091TIP3    H163688   0.047   6.684  16.667  0.5848  0.9487 -0.5488
14091TIP3    H263689   0.170   6.598  16.644  0.4062  0.6997 -0.5738
14092TIP3   OH263690   5.615   2.676  11.484 -0.0827 -0.4751  0.8540
14092TIP3    H163691   5.594   2.739  11.415  0.6201 -0.3516  0.7580
14092TIP3    H263692   5.539   2.678  11.542 -0.0932  0.3894  0.8037
14093TIP3   OH263693   4.768   5.927  15.613  0.1138 -0.2173  0.0490
14093TIP3    H163694   4.805   5.995  15.555 -0.2950 -0.4283 -0.4625
14093TIP3    H263695   4.703   5.973  15.665 -0.2351 -0.2307 -0.3686
14094TIP3   OH263696   0.806   3.807   1.869 -0.1409 -0.1127  0.2592
14094TIP3    H163697   0.710   3.803   1.869 -0.1697  0.4597  0.3145
14094TIP3    H263698   0.831   3.780   1.957 -0.1715 -1.7616 -0.2207
14095TIP3   OH263699   3.067   4.494  10.187  0.7783 -0.2692  0.2212
14095TIP3    H163700   3.125   4.419  10.205 -0.0963 -0.8222  0.7970
14095TIP3    H263701   3.058   4.495  10.092  0.7973 -0.9013  0.2110
14096TIP3   OH263702   4.625   3.819  11.503 -0.3378 -0.1444 -0.0442
14096TIP3    H163703   4.686   3.838  11.574  1.0909 -1.0775 -1.0047
14096TIP3    H263704   4.583   3.736  11.529  0.8768 -0.9897 -0.7090
14097TIP3   OH263705   2.674   4.736  17.073 -0.5033  0.1741 -0.0641
14097TIP3    H163706   2.742   4.773  17.130 -0.2394 -0.0473 -0.2320
14097TIP3    H263707   2.605   4.803  17.071 -0.4699  0.2251  0.4347
14098TIP3   OH263708   6.566   0.014   2.818  0.2905  0.3171 -0.4603
14098TIP3    H163709   6.639   0.008   2.757 -0.1090  0.2247 -0.9344
14098TIP3    H263710   6.488   0.002   2.764  0.0771 -4.0843  0.6607
14099TIP3   OH263711   5.494   5.864   0.972 -0.8686  0.8753 -0.1810
14099TIP3    H163712   5.501   5.831   0.882 -0.8957  0.5343 -0.0585
14099TIP3    H263713   5.567   5.822   1.018  0.2488  2.4421 -0.4650
14100TIP3   OH263714   5.983   1.739  11.520  0.2545 -0.3699 -0.6627
14100TIP3    H163715   5.922   1.670  11.494 -0.3886  0.2484 -0.7853
14100TIP3    H263716   6.050   1.739  11.452 -0.5025  0.0786 -1.4153
14101TIP3   OH263717   1.948   3.321   1.176  0.4711  0.5270  0.0004
14101TIP3    H163718   1.973   3.251   1.116  1.4945  1.3662 -0.5574
14101TIP3    H263719   1.904   3.276   1.249  0.0334 -0.5732 -0.9395
14102TIP3   OH263720   4.705   3.354   1.908  0.4271 -0.0018  0.8089
14102TIP3    H163721   4.671   3.297   1.977 -0.8855 -1.0761 -0.6981
14102TIP3    H263722   4.647   3.339   1.834  3.2390 -0.6686 -1.3178
14103TIP3   OH263723   3.147   2.859  12.732 -0.1622 -0.0958  0.5186
14103TIP3    H163724   3.118   2.805  12.658 -0.2573  0.2677  0.2907
14103TIP3    H263725   3.150   2.798  12.805  0.5158 -0.5958  0.0859
14104TIP3   OH263726   3.733   5.612  13.776  0.7611 -0.0038  0.8957
14104TIP3    H163727   3.764   5.693  13.735  1.1559 -1.5346 -1.9499
14104TIP3    H263728   3.799   5.547  13.753 -1.2367 -1.8704  0.3112
14105TIP3   OH263729   2.274   4.391  15.161  0.4174 -0.0278 -0.3429
14105TIP3    H163730   2.309   4.322  15.218 -0.5313 -0.9611 -0.8770
14105TIP3    H263731   2.337   4.398  15.090  1.0500  0.3858  0.2549
14106TIP3   OH263732   3.845   5.220  12.887 -0.4883 -0.1247 -0.3149
14106TIP3    H163733   3.922   5.187  12.841  0.2420 -0.0204  0.8182
14106TIP3    H263734   3.807   5.283  12.826  1.7481  1.7169  0.1162
14107TIP3   OH263735   4.497   3.486   5.397 -0.3348 -0.3214 -0.1942
14107TIP3    H163736   4.586   3.502   5.366  0.3113  0.1640  1.8353
14107TIP3    H263737   4.448   3.463   5.318  1.1958  1.0713 -1.5939
14108TIP3   OH263738   0.515   1.873  15.163 -0.2252  0.4533 -0.5994
14108TIP3    H163739   0.537   1.888  15.255  1.9421 -1.6008 -0.7233
14108TIP3    H263740   0.429   1.831  15.166  0.0518 -0.0522  0.5313
14109TIP3   OH263741   4.626   4.436  11.803 -0.3769 -0.1580 -0.2431
14109TIP3    H163742   4.562   4.439  11.731 -1.2065  0.3700  0.5024
14109TIP3    H263743   4.696   4.380  11.770 -0.5119  0.4886 -1.6553
14110TIP3   OH263744   3.631   4.021   6.436  0.0344 -0.4279  0.1180
14110TIP3    H163745   3.546   4.043   6.398  0.5943  0.5692 -0.5885
14110TIP3    H263746   3.621   3.932   6.470 -1.6933  0.1627  1.2153
14111TIP3   OH263747   3.278   2.982  16.759  0.3428  0.1655 -0.2919
14111TIP3    H163748   3.331   2.961  16.835 -0.1999 -0.2138 -0.0160
14111TIP3    H263749   3.297   3.074  16.741  0.7572  0.1509  0.0654
14112TIP3   OH263750   3.688   5.677  11.864  0.1145  0.4436  0.1409
14112TIP3    H163751   3.759   5.721  11.909  1.1415  1.2600 -2.1902
14112TIP3    H263752   3.638   5.747  11.822  0.6451 -0.4169 -2.0222
14113TIP3   OH263753   1.606   2.120  13.809  0.9300  0.2445 -0.5175
14113TIP3    H163754   1.532   2.178  13.830  0.4942 -0.4902 -0.0127
14113TIP3    H263755   1.631   2.144  13.720 -0.2561  0.1376 -0.8864
14114TIP3   OH263756   3.446   5.767  16.491  0.5150  0.2221  0.4680
14114TIP3    H163757   3.525   5.785  16.543 -0.1486  3.2884  0.5251
14114TIP3    H263758   3.480   5.732  16.408  2.0162  2.1122  0.2418
14115TIP3   OH263759   1.469   5.105  10.540  0.0594 -0.0377 -0.2614
14115TIP3    H163760   1.495   5.040  10.475 -1.5014 -0.9557  0.0184
14115TIP3    H263761   1.441   5.054  10.616 -0.9332  0.9553  0.0566
14116TIP3   OH263762   4.431   2.118  16.000  0.1401  0.6780  0.4228
14116TIP3    H163763   4.438   2.157  16.087 -0.1980 -0.5954  1.0408
14116TIP3    H263764   4.459   2.187  15.940  0.3827  1.5653  1.5425
14117TIP3   OH263765   6.154   1.046  15.607  0.0475 -0.1493 -0.1382
14117TIP3    H163766   6.080   1.102  15.583 -0.6108  0.6769  3.5297
14117TIP3    H263767   6.231   1.103  15.601  0.0342 -0.2269 -1.1545
14118TIP3   OH263768   2.417   6.003   6.534 -0.1327  0.4865  0.2805
14118TIP3    H163769   2.382   5.915   6.547  1.1667  0.0887  1.2072
14118TIP3    H263770   2.454   6.002   6.446  0.2342 -0.0228  0.4390
14119TIP3   OH263771   0.218   6.718  15.949 -0.1107  0.4448 -0.4503
14119TIP3    H163772   0.194   6.715  16.042  0.2979  1.3414 -0.3087
14119TIP3    H263773   0.165   6.649  15.908 -2.6931  2.1690 -0.1084
14120TIP3   OH263774   6.491   0.033  13.897  0.2513 -0.2303 -0.2949
14120TIP3    H163775   6.497   0.032  13.801  1.6216 -2.2564 -0.2254
14120TIP3    H263776   6.581   0.046  13.926 -0.1115  0.0364  0.7208
14121TIP3   OH263777   0.702   5.303   1.788  0.0852 -0.4796 -0.0561
14121TIP3    H163778   0.744   5.237   1.732 -1.8948 -1.8014 -0.0489
14121TIP3    H263779   0.630   5.336   1.734 -0.1869  0.1991  0.7268
14122TIP3   OH263780   0.956   5.987  11.860 -0.2389 -0.2992 -0.4582
14122TIP3    H163781   0.933   6.038  11.937  0.0566 -0.0540 -0.5325
14122TIP3    H263782   0.954   5.896  11.890  1.7304 -0.1055  0.3404
14123TIP3   OH263783   0.358   0.505  14.850 -0.8466  0.7676 -0.3704
14123TIP3    H163784   0.380   0.434  14.911  1.1500  0.9700 -0.8255
14123TIP3    H263785   0.313   0.569  14.905  0.4302  0.6983  0.7924
14124TIP3   OH263786   0.596   2.623  13.410  0.1087  0.8697 -0.6940
14124TIP3    H163787   0.630   2.619  13.499 -1.4187  0.7941 -0.1067
14124TIP3    H263788   0.643   2.696  13.370  0.0744  1.5595  0.4900
14125TIP3   OH263789   4.892   2.145   4.959  0.2930  0.1121 -0.0530
14125TIP3    H163790   4.927   2.221   5.005  1.6593 -1.1487  1.0564
14125TIP3    H263791   4.815   2.178   4.912  0.8289  2.1424  0.4576
14126TIP3   OH263792   4.551   5.951  10.929 -0.2917 -0.2934 -0.4066
14126TIP3    H163793   4.547   5.925  10.837 -1.4462  0.8815 -0.7126
14126TIP3    H263794   4.539   6.046  10.928 -1.0749 -0.3521  1.0053
14127TIP3   OH263795   2.142   0.717   3.672 -0.2062  0.0563  0.4751
14127TIP3    H163796   2.135   0.687   3.581  0.7025 -1.4941  0.9143
14127TIP3    H263797   2.051   0.719   3.703 -0.4141 -0.6672 -0.0594
14128TIP3   OH263798   6.348   1.461   3.701  0.5356  0.0736  0.0368
14128TIP3    H163799   6.313   1.537   3.656  0.3234  0.3970  0.7356
14128TIP3    H263800   6.390   1.409   3.632 -1.3921 -0.3728 -0.8428
14129TIP3   OH263801   4.698   2.438   3.649 -0.3289 -0.9729  0.1094
14129TIP3    H163802   4.736   2.428   3.561 -0.7064  0.6474 -0.2478
14129TIP3    H263803   4.774   2.453   3.705 -0.3759  2.4740 -0.6365
14130TIP3   OH263804   5.513   2.107  13.182 -0.8228  0.8162 -0.1483
14130TIP3    H163805   5.593   2.079  13.139 -1.2544 -0.4939 -0.1321
14130TIP3    H263806   5.444   2.091  13.117 -1.4127 -0.6940  0.8024
14131TIP3   OH263807   4.045   0.269   3.217 -0.7159  0.3556  0.1083
14131TIP3    H163808   4.030   0.324   3.140 -0.4670 -0.1740 -0.3245
14131TIP3    H263809   3.957   0.245   3.247 -0.8995  2.5308  1.4408
14132TIP3   OH263810   3.962   3.665  16.188 -0.1132 -0.7440 -0.3151
14132TIP3    H163811   3.894   3.641  16.251 -0.1739 -1.3828 -0.6125
14132TIP3    H263812   4.027   3.595  16.196  0.5974 -0.0370  0.0983
14133TIP3   OH263813   3.171   6.124  15.511  0.1238  0.2165  0.3585
14133TIP3    H163814   3.088   6.161  15.541 -2.0637 -1.8410 -2.7244
14133TIP3    H263815   3.190   6.054  15.573 -2.5044 -1.7385 -0.9199
14134TIP3   OH263816   0.999   6.521  11.712  0.2302  0.5027 -0.0018
14134TIP3    H163817   0.942   6.572  11.655  0.2079 -0.2023 -0.6317
14134TIP3    H263818   1.072   6.495  11.655  1.0647  1.2048  0.7332
14135TIP3   OH263819   5.134   2.455  15.021 -0.4132 -0.6359  0.1359
14135TIP3    H163820   5.201   2.456  14.952 -0.3681 -1.9313  0.1528
14135TIP3    H263821   5.052   2.472  14.975 -0.0547  1.2344  0.1483
14136TIP3   OH263822   1.495   0.705   3.836 -0.0256  0.2351 -0.3807
14136TIP3    H163823   1.534   0.792   3.843  0.5955 -0.1470  0.9771
14136TIP3    H263824   1.551   0.659   3.773  0.4761  0.3583 -0.0260
14137TIP3   OH263825   5.784   5.500  12.412 -0.0571  0.2225  0.3704
14137TIP3    H163826   5.791   5.567  12.479  1.1589 -0.8649  1.3370
14137TIP3    H263827   5.737   5.428  12.454  2.0563 -1.0800  0.5598
14138TIP3   OH263828   3.672   3.047  16.525  0.6303 -0.1044 -0.6674
14138TIP3    H163829   3.624   3.127  16.549  1.0734 -0.2515  0.7392
14138TIP3    H263830   3.667   2.992  16.603  2.1740 -0.5674 -0.8897
14139TIP3   OH263831   5.908   0.066   5.356  0.6040  0.1808 -0.3644
14139TIP3    H163832   5.990   0.036   5.316 -0.2382  0.2040 -2.1503
14139TIP3    H263833   5.869   0.122   5.289 -1.3367 -0.5936  0.1075
14140TIP3   OH263834   1.066   4.665   2.364  0.2008 -0.1526 -0.1935
14140TIP3    H163835   1.124   4.611   2.418 -3.0399 -1.6662  1.9429
14140TIP3    H263836   0.988   4.611   2.352 -2.3356  3.2892  0.3069
14141TIP3   OH263837   4.487   2.775   1.499 -0.2395 -0.2760  0.1634
14141TIP3    H163838   4.423   2.844   1.517 -0.1736 -0.7781  2.5333
14141TIP3    H263839   4.548   2.815   1.437 -1.0087  1.3193  0.4018
14142TIP3   OH263840   4.033   2.546  13.022 -0.0837  0.1686 -0.0995
14142TIP3    H163841   3.963   2.588  12.973  0.7895 -0.5010 -2.0042
14142TIP3    H263842   4.088   2.618  13.054  0.4704  0.5702 -1.8926
14143TIP3   OH263843   2.217   0.200  13.279 -0.1957 -0.5131  0.2090
14143TIP3    H163844   2.233   0.113  13.244 -0.6935 -0.3523 -0.4173
14143TIP3    H263845   2.219   0.189  13.374 -2.3377 -1.5915  0.1481
14144TIP3   OH263846   2.396   1.883  15.387 -0.0449  0.0232  0.3009
14144TIP3    H163847   2.472   1.828  15.408 -0.7896 -1.9687 -1.9204
14144TIP3    H263848   2.335   1.868  15.459  0.8302  0.0156  1.0493
14145TIP3   OH263849   3.419   5.742  11.427  0.5333 -0.5273 -0.0617
14145TIP3    H163850   3.378   5.705  11.505  1.1434  1.7711  1.4181
14145TIP3    H263851   3.347   5.770  11.372  0.1036 -0.2350  0.6479
14146TIP3   OH263852   0.975   2.808  13.919 -0.0253 -0.0847 -0.1273
14146TIP3    H163853   0.936   2.863  13.852 -0.7923 -0.7889 -0.2666
14146TIP3    H263854   0.903   2.755  13.952  0.7998 -1.4178 -0.4041
14147TIP3   OH263855   1.095   5.822  15.475 -0.1409 -0.2000 -0.6778
14147TIP3    H163856   1.118   5.739  15.432 -0.0811 -1.2606  1.3261
14147TIP3    H263857   1.174   5.876  15.468  0.0694 -0.5980 -1.3514
14148TIP3   OH263858   3.641   0.801  13.774  0.0591  0.0363  0.1161
14148TIP3    H163859   3.700   0.799  13.850  0.7053 -1.6954 -0.4202
14148TIP3    H263860   3.632   0.710  13.748 -0.8666  0.5384 -1.3735
14149TIP3   OH263861   6.699   5.862  12.975  0.0052  0.1403 -0.1167
14149TIP3    H163862   6.743   5.839  12.893 -0.0229  0.2763 -0.1707
14149TIP3    H263863   6.606   5.868  12.952  0.0111  0.2973 -0.1021
14150TIP3   OH263864   4.254   0.241  11.182  0.4209 -0.3656 -0.2977
14150TIP3    H163865   4.198   0.303  11.136 -0.5195 -1.4142 -0.5830
14150TIP3    H263866   4.305   0.200  11.112 -0.6765 -1.6260 -0.3737
14151TIP3   OH263867   4.728   0.590  14.587  0.1425  0.1582  0.4891
14151TIP3    H163868   4.634   0.605  14.593  0.3183  1.3356  0.3444
14151TIP3    H263869   4.760   0.604  14.677  0.0009 -1.6047  0.8387
14152TIP3   OH263870   4.155   5.913  13.237  0.3162 -0.6332  0.6516
14152TIP3    H163871   4.213   5.920  13.161  1.3394  0.5912  1.5414
14152TIP3    H263872   4.185   5.834  13.283  0.4155 -0.7430  0.3986
14153TIP3   OH263873   5.236   4.513  16.355  0.1310  0.1920 -0.5982
14153TIP3    H163874   5.262   4.477  16.270  0.4727  0.9789 -0.8311
14153TIP3    H263875   5.312   4.562  16.385  0.0169 -0.0964  0.1793
14154TIP3   OH263876   2.568   4.464  14.158  0.1989 -0.1425  0.0221
14154TIP3    H163877   2.549   4.510  14.076 -1.8931  1.5882  1.4366
14154TIP3    H263878   2.561   4.371  14.135 -0.6383  0.3215 -1.6983
14155TIP3   OH263879   4.076   6.766  13.529  0.2570 -0.2449 -0.0157
14155TIP3    H163880   4.056   6.673  13.516  1.4355 -0.4925 -0.1462
14155TIP3    H263881   4.162   6.766  13.571  0.2631  0.7879 -0.0208
14156TIP3   OH263882   3.521   4.001  15.401  0.4873  0.4089  0.1680
14156TIP3    H163883   3.487   4.051  15.475  0.1982  0.9971 -0.3631
14156TIP3    H263884   3.450   3.943  15.376 -0.1044  1.5544 -0.8641
14157TIP3   OH263885   5.526   0.349   3.137 -0.5503  0.0068  0.7181
14157TIP3    H163886   5.549   0.413   3.204  2.4238  0.5040 -0.7022
14157TIP3    H263887   5.605   0.340   3.084 -1.6001 -3.2626 -0.4117
14158TIP3   OH263888   4.881   5.568  11.843 -0.5102  0.3875 -0.1128
14158TIP3    H163889   4.898   5.474  11.840 -0.6322  0.3884 -0.8371
14158TIP3    H263890   4.821   5.584  11.770  0.7435  1.2829 -0.9563
14159TIP3   OH263891   6.739   4.762   5.764 -0.2287 -0.5982 -0.1989
14159TIP3    H163892   6.673   4.807   5.817  0.7859  2.2403 -1.2201
14159TIP3    H263893   6.690   4.728   5.688 -0.6064  1.2673 -0.8278
14160TIP3   OH263894   0.265   1.677   0.046  0.2194  0.1695 -0.6740
14160TIP3    H163895   0.335   1.693  -0.017  0.5138 -1.6535 -0.8308
14160TIP3    H263896   0.294   1.600   0.095 -0.2010  1.3072  1.4141
14161TIP3   OH263897   0.514   0.053   4.051  0.2742 -0.1778  0.3115
14161TIP3    H163898   0.594   0.090   4.013 -0.2573 -0.4989 -1.1690
14161TIP3    H263899   0.474   0.125   4.099  0.5788  0.4700 -0.3904
14162TIP3   OH263900   3.168   2.446   2.452 -0.4022 -0.2705 -0.0101
14162TIP3    H163901   3.149   2.539   2.436  1.4107 -0.6759 -5.4724
14162TIP3    H263902   3.089   2.401   2.422  1.1434 -0.7552 -3.6230
14163TIP3   OH263903   0.406   1.882   0.324 -0.3658 -0.0538  0.1661
14163TIP3    H163904   0.364   1.936   0.391 -0.0313  2.0396 -1.2689
14163TIP3    H263905   0.461   1.821   0.374 -1.2237  0.5216  1.8492
14164TIP3   OH263906   4.309   4.177  14.040 -0.1202  0.5078  0.2583
14164TIP3    H163907   4.340   4.243  14.102  1.1422  0.6860 -0.5411
14164TIP3    H263908   4.219   4.203  14.020 -0.0812  1.2185  0.9711
14165TIP3   OH263909   0.157   4.786  16.071 -0.1690  0.0365 -0.3754
14165TIP3    H163910   0.222   4.823  16.131 -1.2824  0.1784  0.7432
14165TIP3    H263911   0.128   4.705  16.113 -0.7500 -0.0099 -0.8550
14166TIP3   OH263912   3.416   6.676   2.188 -0.3501 -0.3947 -0.4047
14166TIP3    H163913   3.334   6.715   2.158  1.3786  2.3929 -1.8417
14166TIP3    H263914   3.461   6.651   2.107  1.7337  1.4769  0.1125
14167TIP3   OH263915   0.417   5.412  14.926 -0.0652 -0.4699 -0.0648
14167TIP3    H163916   0.337   5.378  14.886 -1.1174  2.4210 -0.5191
14167TIP3    H263917   0.404   5.400  15.020 -0.8326 -0.4808 -0.1697
14168TIP3   OH263918   4.914   6.692   5.752 -0.4072 -0.0258 -0.1074
14168TIP3    H163919   4.818   6.688   5.753 -0.3880 -1.1329 -1.3904
14168TIP3    H263920   4.943   6.612   5.796 -0.0737 -0.3260 -0.8650
14169TIP3   OH263921   5.753   2.628  16.333 -0.1375 -0.6918  0.1157
14169TIP3    H163922   5.660   2.651  16.332  0.1949  1.1010  3.0510
14169TIP3    H263923   5.758   2.553  16.393  0.4071 -0.2397  0.6362
14170TIP3   OH263924   3.373   0.129   6.196 -0.0034  0.7939  0.6111
14170TIP3    H163925   3.462   0.159   6.215  0.3910  1.1889 -1.7871
14170TIP3    H263926   3.322   0.209   6.186 -0.0163  0.6050 -0.8555
14171TIP3   OH263927   1.405   3.257   3.477 -0.1070  1.0558  0.0728
14171TIP3    H163928   1.424   3.226   3.565  0.1717  2.1067  0.3852
14171TIP3    H263929   1.432   3.349   3.477  0.2482  0.9644 -1.2157
14172TIP3   OH263930   6.367   4.086  13.783  0.2303 -0.3726 -0.3012
14172TIP3    H163931   6.295   4.112  13.726  1.0963  0.2718 -1.1210
14172TIP3    H263932   6.327   4.030  13.849 -1.4686  2.1588  0.8485
14173TIP3   OH263933   5.701   2.002  16.395  0.2976  0.2208  0.1777
14173TIP3    H163934   5.630   2.031  16.452  1.0202  2.4465 -0.0182
14173TIP3    H263935   5.780   2.010  16.449  1.0103  2.4683 -1.1548
14174TIP3   OH263936   0.028   1.912  15.313 -0.7666 -0.1311  0.0267
14174TIP3    H163937   0.096   1.844  15.311  0.4587  1.0646  0.1451
14174TIP3    H263938   0.008   1.922  15.407 -1.0922 -0.4656 -0.0064
14175TIP3   OH263939   5.022   2.960  12.452 -0.1146  0.7929 -0.2432
14175TIP3    H163940   4.962   3.034  12.462 -0.3882  0.4533  0.6930
14175TIP3    H263941   4.970   2.883  12.477  0.7810  0.5220  0.8381
14176TIP3   OH263942   5.633   4.023   1.051  0.1533 -0.1343 -0.1516
14176TIP3    H163943   5.709   4.029   0.994  0.0505 -0.6603 -0.3542
14176TIP3    H263944   5.558   4.036   0.992  0.0635 -0.2980 -0.0751
14177TIP3   OH263945   4.785   5.527  12.846 -0.1385 -0.3863  0.5921
14177TIP3    H163946   4.787   5.458  12.780  1.0812 -0.2857  0.5069
14177TIP3    H263947   4.697   5.523  12.882 -0.7844 -0.5095 -0.9587
14178TIP3   OH263948   1.554   0.485   5.008  0.4320 -0.2864  0.2050
14178TIP3    H163949   1.475   0.534   4.986  0.5625 -0.8449 -1.5874
14178TIP3    H263950   1.626   0.546   4.991  0.4412 -0.1293  0.8088
14179TIP3   OH263951   4.139   4.062   0.504 -0.3696  0.1672 -0.1828
14179TIP3    H163952   4.216   4.117   0.520  0.3844 -1.4136  1.8834
14179TIP3    H263953   4.174   3.984   0.461 -0.5690 -1.2158  2.1103
14180TIP3   OH263954   6.746   5.034   5.029 -0.5487  0.2971  0.2625
14180TIP3    H163955   6.815   4.968   5.039 -2.6664 -1.7198  2.1067
14180TIP3    H263956   6.693   5.002   4.956 -0.5440  0.9188 -0.0179
14181TIP3   OH263957   5.429   6.736  15.908  0.2236 -0.0215  0.0834
14181TIP3    H163958   5.508   6.720  15.959  0.4358  1.7598  0.3498
14181TIP3    H263959   5.390   6.814  15.948 -1.4745 -0.6524 -0.2736
14182TIP3   OH263960   5.230   0.955  11.588  0.4283  1.1239  0.7794
14182TIP3    H163961   5.236   1.001  11.505 -1.6593  0.3466  0.1667
14182TIP3    H263962   5.320   0.929  11.608  0.9218  1.1393 -1.3389
14183TIP3   OH263963   0.084   4.539   6.091 -0.1730  0.1252  0.1885
14183TIP3    H163964   0.018   4.542   6.022  0.9469  0.2918 -0.8975
14183TIP3    H263965   0.050   4.596   6.159 -0.4852  1.3756 -0.9862
14184TIP3   OH263966   2.634   3.379   5.388  1.1418  0.0509 -0.5255
14184TIP3    H163967   2.645   3.286   5.410 -0.5595 -0.6869 -2.5872
14184TIP3    H263968   2.569   3.411   5.451 -0.0934 -0.8039 -1.3471
14185TIP3   OH263969   3.796   3.705  13.964  0.0464  0.2826 -0.0324
14185TIP3    H163970   3.781   3.745  14.050 -0.1573 -1.2655  0.6741
14185TIP3    H263971   3.716   3.723  13.915 -0.0303  0.7740  0.2672
14186TIP3   OH263972   4.270   5.566  14.203 -0.3414  0.8292 -0.3921
14186TIP3    H163973   4.343   5.566  14.265  0.6761  4.1327 -1.5035
14186TIP3    H263974   4.192   5.572  14.258  0.3457 -0.0907  0.7044
14187TIP3   OH263975   3.497   0.083   1.404  0.6652 -0.1291  0.5150
14187TIP3    H163976   3.545   0.051   1.480  1.5955  1.2176  0.5203
14187TIP3    H263977   3.420   0.026   1.398  0.2803  0.0773  2.7950
14188TIP3   OH263978   3.534   6.217   1.327  0.1827  0.9052  0.2783
14188TIP3    H163979   3.470   6.204   1.257  1.9779  0.5687 -1.3389
14188TIP3    H263980   3.588   6.289   1.297  1.3139  0.3966  1.0787
14189TIP3   OH263981   3.167   3.212  13.237  0.3981 -0.4860  0.1735
14189TIP3    H163982   3.240   3.266  13.267  1.1195 -0.4743 -1.5297
14189TIP3    H263983   3.117   3.270  13.179  0.4139 -1.2245 -0.5883
14190TIP3   OH263984   1.017   6.252   5.463 -0.3692 -0.3569 -0.4830
14190TIP3    H163985   1.112   6.251   5.448 -0.3840  0.5521 -0.6335
14190TIP3    H263986   0.994   6.345   5.466 -1.1301 -0.5663  0.3442
14191TIP3   OH263987   4.550   0.409  11.014  0.4389  0.2374 -0.3408
14191TIP3    H163988   4.509   0.327  10.989 -2.4736  0.5568  3.0637
14191TIP3    H263989   4.633   0.383  11.054 -0.2822 -1.0381  0.3566
14192TIP3   OH263990   3.387   6.031   4.923 -0.8877  0.0361 -0.4247
14192TIP3    H163991   3.420   6.010   5.011 -0.1869 -0.0798 -0.7188
14192TIP3    H263992   3.388   6.127   4.919 -2.4254  0.0948  0.2721
14193TIP3   OH263993   1.999   3.350   3.207 -0.2505  0.0840 -0.4597
14193TIP3    H163994   1.922   3.293   3.211 -0.4917  0.4865  1.4022
14193TIP3    H263995   2.046   3.323   3.129 -1.1566 -1.6521 -0.4204
14194TIP3   OH263996   2.836   2.154   3.431 -0.3711 -0.0893 -0.4217
14194TIP3    H163997   2.836   2.236   3.382 -2.3008  1.1425  1.5608
14194TIP3    H263998   2.750   2.116   3.416  0.0726 -1.1694 -0.3288
14195TIP3   OH263999   5.604   4.173   5.676  0.6082  0.1465  0.2237
14195TIP3    H164000   5.656   4.095   5.655 -0.9777 -0.3554 -2.0332
14195TIP3    H264001   5.530   4.140   5.727  0.2134  0.2312 -0.2875
14196TIP3   OH264002   3.687   5.188  12.597  0.0570 -0.2546  0.1708
14196TIP3    H164003   3.713   5.257  12.658  0.1963  0.8690 -1.1409
14196TIP3    H264004   3.762   5.178  12.538  0.6148 -2.5528  1.2173
14197TIP3   OH264005   5.063   0.832  12.293  0.3557  0.3285 -0.1041
14197TIP3    H164006   5.138   0.842  12.353  0.5018 -0.2880 -0.1843
14197TIP3    H264007   5.090   0.877  12.213  0.0924  1.3094  0.3433
14198TIP3   OH264008   4.438   1.715  14.815 -0.0146  0.1611 -0.2599
14198TIP3    H164009   4.505   1.670  14.763 -0.6689 -2.7073  1.2611
14198TIP3    H264010   4.368   1.734  14.753  0.3309 -0.8346 -0.9755
14199TIP3   OH264011   4.387   0.484  16.795 -0.1797  0.2171 -0.0940
14199TIP3    H164012   4.331   0.477  16.872 -0.3682 -0.5343 -0.3044
14199TIP3    H264013   4.330   0.519  16.726  0.4446  2.7432  0.6024
14200TIP3   OH264014   1.976   3.706   0.862  0.3477  0.5473 -0.1854
14200TIP3    H164015   1.921   3.709   0.783 -0.9167 -1.5329  0.5631
14200TIP3    H264016   1.997   3.613   0.872  0.6840  0.8262  1.7894
14201TIP3   OH264017   1.153   0.654   4.499 -0.5436  0.0333 -0.1935
14201TIP3    H164018   1.149   0.590   4.569 -0.1347 -0.6973 -0.8343
14201TIP3    H264019   1.238   0.697   4.510 -1.1949  1.1101  0.7843
14202TIP3   OH264020   1.403   1.928  17.063  0.1241  0.4935 -0.4946
14202TIP3    H164021   1.354   1.930  16.981  0.4140  0.6934 -0.6661
14202TIP3    H264022   1.348   1.879  17.123  0.1906 -0.1923 -0.9917
14203TIP3   OH264023   3.668   4.972  13.522  0.4110 -0.0666  0.5704
14203TIP3    H164024   3.698   4.886  13.493  0.6700 -0.3229  1.5650
14203TIP3    H264025   3.706   4.982  13.610  0.6247  1.1846  0.3443
14204TIP3   OH264026   1.170   3.170   5.737 -0.7331 -0.0835 -0.3747
14204TIP3    H164027   1.112   3.162   5.812 -0.8364 -1.3520 -0.5743
14204TIP3    H264028   1.164   3.085   5.693  3.0929 -1.1556  0.9382
14205TIP3   OH264029   1.148   1.287   4.406  0.5932 -0.1120  0.0404
14205TIP3    H164030   1.154   1.240   4.490  0.0337 -0.0233  0.1312
14205TIP3    H264031   1.100   1.228   4.349  3.7013 -1.5420 -1.2017
14206TIP3   OH264032   0.196   4.629  15.547 -0.8222 -1.0302  0.0873
14206TIP3    H164033   0.122   4.621  15.607 -0.9843 -0.7045 -0.0667
14206TIP3    H264034   0.156   4.656  15.464 -0.4454 -0.0988  0.2058
14207TIP3   OH264035   2.201   6.062   0.695 -0.0952 -0.7872  0.3446
14207TIP3    H164036   2.262   6.104   0.756 -1.1205  2.0921 -0.5099
14207TIP3    H264037   2.117   6.061   0.742  0.4836 -4.7108  1.5087
14208TIP3   OH264038   2.945   5.258  16.949 -0.4640 -0.1752  0.5328
14208TIP3    H164039   2.923   5.226  16.862  1.7581 -0.9710  0.2363
14208TIP3    H264040   3.013   5.324  16.934 -1.5901  1.2463  1.5110
14209TIP3   OH264041   4.092   2.391   4.421 -0.1916  0.1820  0.4308
14209TIP3    H164042   4.020   2.328   4.427  0.5676 -0.7879 -0.5239
14209TIP3    H264043   4.053   2.474   4.448 -1.4411 -0.5134  0.7970
14210TIP3   OH264044   5.890   2.944   3.157  0.9166 -0.2745 -0.4746
14210TIP3    H164045   5.893   2.978   3.068 -2.2668 -0.3505 -0.6457
14210TIP3    H264046   5.856   2.855   3.147 -1.9914  0.6279  1.0203
14211TIP3   OH264047   4.088   2.321  15.035  0.2704  0.3735 -0.2665
14211TIP3    H164048   4.184   2.315  15.036  0.2494 -0.3146  2.7682
14211TIP3    H264049   4.068   2.385  15.104 -1.4367  0.9821 -1.3140
14212TIP3   OH264050   0.990   1.215  11.205  0.4666  0.0054 -0.1910
14212TIP3    H164051   1.037   1.202  11.123 -0.4795 -2.1429 -0.4260
14212TIP3    H264052   0.937   1.293  11.191  0.7909  0.0072 -1.4051
14213TIP3   OH264053   2.266   5.327  14.573  0.2800  0.0036  0.4759
14213TIP3    H164054   2.326   5.363  14.507  0.7943  1.2439  1.6112
14213TIP3    H264055   2.231   5.248  14.532  1.4488  0.1488 -0.8459
14214TIP3   OH264056   4.608   0.786  12.148 -0.7394 -0.7234  0.5635
14214TIP3    H164057   4.585   0.815  12.059  0.7510 -2.0266 -0.2790
14214TIP3    H264058   4.525   0.776  12.193 -1.4392  1.7279 -0.1063
14215TIP3   OH264059   1.701   3.817   3.136 -0.0305 -0.4006  0.1409
14215TIP3    H164060   1.772   3.815   3.200  0.3228 -2.1949 -0.2497
14215TIP3    H264061   1.713   3.736   3.086 -1.4949 -0.0071 -0.8790
14216TIP3   OH264062   0.891   2.083   1.397 -0.3199 -0.3680  0.2180
14216TIP3    H164063   0.980   2.115   1.413 -0.1546  0.3953 -2.0910
14216TIP3    H264064   0.901   2.017   1.328 -1.7444  1.0512 -1.3898
14217TIP3   OH264065   1.978   2.491   0.166 -0.4623 -0.3415 -0.1479
14217TIP3    H164066   1.975   2.559   0.232  1.0248 -0.5220  0.1377
14217TIP3    H264067   1.888   2.482   0.135 -0.5162  2.4252 -0.8882
14218TIP3   OH264068   2.403   6.676  14.182  0.4485 -0.4626  0.4988
14218TIP3    H164069   2.341   6.744  14.208  0.2021 -0.5389  0.1155
14218TIP3    H264070   2.403   6.679  14.086  2.2567  0.6395  0.5038
14219TIP3   OH264071   0.810   4.253   4.316  0.0057  0.2082  0.6526
14219TIP3    H164072   0.721   4.228   4.337  0.4354 -0.3622  1.8494
14219TIP3    H264073   0.801   4.319   4.247 -1.4723  2.2072  2.6945
14220TIP3   OH264074   3.896   4.048   1.249 -0.9006  0.3016 -0.2314
14220TIP3    H164075   3.918   4.137   1.274 -0.2074 -0.2074  1.0630
14220TIP3    H264076   3.840   4.016   1.321 -1.9182  0.0073 -1.1422
14221TIP3   OH264077   3.347   6.754  11.107 -0.4271  0.2299 -0.0710
14221TIP3    H164078   3.320   6.664  11.092 -1.7830  0.6097  0.0734
14221TIP3    H264079   3.278   6.792  11.161 -0.3440  1.6283 -0.9159
14222TIP3   OH264080   1.894   5.849  13.379  0.0210  0.5029 -0.7686
14222TIP3    H164081   1.824   5.787  13.360  1.1224 -0.9256 -0.3090
14222TIP3    H264082   1.968   5.794  13.406  1.4018  1.9498 -1.4814
14223TIP3   OH264083   4.957   3.810   6.386 -0.2009  0.5195  0.0834
14223TIP3    H164084   5.026   3.870   6.414 -1.3520  0.5071  3.1065
14223TIP3    H264085   4.889   3.866   6.350 -0.3552  0.8724  0.9139
14224TIP3   OH264086   6.505   0.848  15.680 -0.7839  0.5907  0.1576
14224TIP3    H164087   6.508   0.888  15.593  0.2208  1.2799  0.5018
14224TIP3    H264088   6.596   0.827  15.700 -0.8326  1.7537  1.6439
14225TIP3   OH264089   4.523   1.970   2.685 -0.3151  0.4289  0.3661
14225TIP3    H164090   4.548   2.025   2.610 -0.7449  1.0527  0.6815
14225TIP3    H264091   4.597   1.978   2.746 -0.0022 -0.0142  0.0554
14226TIP3   OH264092   4.032   6.273   3.195  0.2593  0.4644  0.3250
14226TIP3    H164093   4.119   6.255   3.159  0.2125  0.9490 -0.0456
14226TIP3    H264094   3.995   6.338   3.135 -0.5227 -0.0534  0.2532
14227TIP3   OH264095   2.898   4.386   4.240  0.4305  0.1583 -0.0680
14227TIP3    H164096   2.879   4.307   4.290 -1.5498  0.7673  0.1910
14227TIP3    H264097   2.812   4.426   4.225  1.3016  1.6859 -1.1375
14228TIP3   OH264098   0.508   0.473   3.015  0.1536 -1.1842 -0.3397
14228TIP3    H164099   0.489   0.440   3.102 -1.0234  1.7047  0.5623
14228TIP3    H264100   0.597   0.508   3.022  0.8167 -2.7295 -0.8712
14229TIP3   OH264101   5.164   2.134  15.767  0.1449 -0.2886  0.5629
14229TIP3    H164102   5.146   2.092  15.683  2.1653 -1.1089  0.4874
14229TIP3    H264103   5.113   2.083  15.830 -1.0576  0.0691 -0.1187
14230TIP3   OH264104   0.528   0.285   4.634 -0.1689  0.2923 -0.1211
14230TIP3    H164105   0.530   0.367   4.684 -0.3993  0.3406 -0.1917
14230TIP3    H264106   0.498   0.219   4.696  0.3257  0.1978  0.0246
14231TIP3   OH264107   1.073   2.583  15.051 -0.2625 -0.0288 -0.1116
14231TIP3    H164108   1.107   2.497  15.028  3.7440  1.5901 -0.8363
14231TIP3    H264109   1.067   2.630  14.968  0.1004  1.1750  0.5156
14232TIP3   OH264110   5.292   0.057   3.735  0.0394 -0.0112 -0.3452
14232TIP3    H164111   5.261  -0.000   3.666  0.1257  0.0942 -0.4707
14232TIP3    H264112   5.321   0.137   3.690  1.1012 -0.3590 -0.3023
14233TIP3   OH264113   4.738   4.868  13.122  0.8328  0.3829 -0.5155
14233TIP3    H164114   4.755   4.775  13.136  0.9972  0.7068  1.5933
14233TIP3    H264115   4.690   4.896  13.200 -2.3021  1.2975 -2.6507
14234TIP3   OH264116   1.492   6.403  10.396 -0.3562  0.0408  0.4162
14234TIP3    H164117   1.398   6.391  10.409 -0.4186  1.0010  0.9040
14234TIP3    H264118   1.498   6.466  10.325 -0.0872  0.0278  0.4277
14235TIP3   OH264119   2.105   4.987   5.420 -0.2836 -0.3882  0.5357
14235TIP3    H164120   2.193   4.997   5.456  0.0486  0.3876 -0.4623
14235TIP3    H264121   2.113   4.915   5.357 -0.0130  0.6095 -0.5975
14236TIP3   OH264122   5.781   2.264   1.114 -0.2116 -0.0199 -0.4743
14236TIP3    H164123   5.831   2.305   1.185 -0.4658  0.4285 -0.5509
14236TIP3    H264124   5.824   2.180   1.100  1.2224  0.8093 -1.2577
14237TIP3   OH264125   6.259   5.896  12.485 -0.6394  0.3709 -0.1344
14237TIP3    H164126   6.202   5.870  12.413 -1.7944  1.5265  0.3490
14237TIP3    H264127   6.341   5.922  12.443 -0.9401  0.0294 -0.9410
14238TIP3   OH264128   1.103   2.271   4.204  0.1125  0.4991  0.0852
14238TIP3    H164129   1.069   2.221   4.130 -0.9148  1.1363  0.1163
14238TIP3    H264130   1.118   2.359   4.169 -2.2239  1.3259  1.1003
14239TIP3   OH264131   4.852   3.546  11.825  0.0778 -0.4687  0.0933
14239TIP3    H164132   4.946   3.566  11.825 -0.3008  1.5053  1.4873
14239TIP3    H264133   4.816   3.604  11.892 -2.1802 -1.0563 -0.5869
14240TIP3   OH264134   2.195   1.873  11.950  0.3576 -0.1954 -0.1405
14240TIP3    H164135   2.290   1.865  11.964  0.0823 -0.0463  1.8916
14240TIP3    H264136   2.158   1.792  11.986 -0.5632  1.1267  1.9607
14241TIP3   OH264137   1.209   3.157  11.798  0.0473  0.2534  0.0551
14241TIP3    H164138   1.164   3.230  11.756  0.3795  1.5459  1.9142
14241TIP3    H264139   1.150   3.129  11.868  1.6216  1.2192  1.7781
14242TIP3   OH264140   4.087   3.914  16.702 -0.7576 -0.1865 -0.0805
14242TIP3    H164141   4.140   3.845  16.742 -0.3698  0.7420  1.0470
14242TIP3    H264142   3.997   3.892  16.724 -0.5237  0.5567  1.7499
14243TIP3   OH264143   1.895   0.306  11.582 -0.1349  0.5551 -0.2821
14243TIP3    H164144   1.821   0.354  11.619 -0.3273 -1.2877  1.8273
14243TIP3    H264145   1.860   0.219  11.562  1.4155 -0.3341  0.7131
14244TIP3   OH264146   5.324   6.493   3.055  0.7224 -0.4956  0.2084
14244TIP3    H164147   5.322   6.544   3.136 -0.4384  2.5688 -1.6926
14244TIP3    H264148   5.416   6.493   3.030  0.6808  1.1112 -0.0142
14245TIP3   OH264149   3.528   1.948   5.023  0.7781 -0.2336  0.3504
14245TIP3    H164150   3.511   1.871   5.077  0.0117  0.0094  0.4507
14245TIP3    H264151   3.557   2.016   5.085  2.1374 -0.6350  0.1857
14246TIP3   OH264152   0.159   6.386   2.603 -0.4109 -0.4901  0.2837
14246TIP3    H164153   0.088   6.324   2.622  1.5680 -2.8819  0.1044
14246TIP3    H264154   0.196   6.356   2.520  1.4383  0.1346  0.8533
14247TIP3   OH264155   5.272   5.179  16.328 -0.5671  0.0296  0.1256
14247TIP3    H164156   5.186   5.215  16.307 -0.4049  0.8401  0.8166
14247TIP3    H264157   5.253   5.099  16.376 -0.9330 -0.1415 -0.2953
14248TIP3   OH264158   3.253   5.781   3.187 -0.7012  0.3515  0.2103
14248TIP3    H164159   3.157   5.789   3.187 -0.6705  0.7157  0.6295
14248TIP3    H264160   3.282   5.841   3.119 -0.7590  0.3670  0.1986
14249TIP3   OH264161   3.776   5.426  12.720 -0.4752  0.5133 -0.2541
14249TIP3    H164162   3.738   5.478  12.791 -1.7297  0.8662 -1.1555
14249TIP3    H264163   3.869   5.445  12.723 -0.5769  0.8220  1.0557
14250TIP3   OH264164   2.251   3.680   4.934 -1.2021  0.6726  0.5683
14250TIP3    H164165   2.267   3.751   4.872  0.5079 -1.1925 -1.2206
14250TIP3    H264166   2.276   3.601   4.886 -1.9263 -1.0301  2.9189
14251TIP3   OH264167   4.154   4.569  12.148 -0.0424 -0.4205  0.3634
14251TIP3    H164168   4.114   4.518  12.218  2.1044 -1.5091  0.8617
14251TIP3    H264169   4.209   4.633  12.192 -0.6930  0.6065 -0.3009
14252TIP3   OH264170   4.844   5.925   0.540  0.4162 -0.0480  0.0820
14252TIP3    H164171   4.755   5.913   0.573  1.4474 -2.4597  2.2026
14252TIP3    H264172   4.843   5.883   0.454 -0.6392  0.4778 -0.1698
14253TIP3   OH264173   0.952   5.441  16.938  0.1623  0.7205  0.1040
14253TIP3    H164174   0.881   5.505  16.943 -1.3319 -0.8794 -0.5250
14253TIP3    H264175   0.931   5.386  16.863  1.0759 -0.9357  1.0317
14254TIP3   OH264176   4.701   0.637  15.284 -0.5257 -0.5352 -0.1899
14254TIP3    H164177   4.622   0.596  15.248  0.1636 -0.2321 -2.0955
14254TIP3    H264178   4.750   0.666  15.207  0.8051  0.4831  1.0219
14255TIP3   OH264179   5.623   5.780   3.185 -0.3503  0.5122  0.6164
14255TIP3    H164180   5.599   5.774   3.278  1.1305 -0.8707  0.9142
14255TIP3    H264181   5.678   5.858   3.180 -0.4740  0.6205  0.8941
14256TIP3   OH264182   3.910   5.340  11.331  0.7410 -0.7260 -0.0661
14256TIP3    H164183   3.889   5.331  11.238  3.2777 -0.9950 -0.6493
14256TIP3    H264184   3.825   5.336  11.375 -0.4433 -1.3002 -2.3110
14257TIP3   OH264185   4.604   1.312  13.584 -0.1368 -0.3475  0.0025
14257TIP3    H164186   4.603   1.217  13.574  0.9516 -0.6963  2.7665
14257TIP3    H264187   4.538   1.331  13.650 -1.2000  0.9763 -1.3862
14258TIP3   OH264188   6.538   4.705   4.310 -0.1375 -0.0942 -0.0589
14258TIP3    H164189   6.534   4.703   4.405 -2.8753  1.4268 -0.0758
14258TIP3    H264190   6.518   4.615   4.283 -0.4626 -0.2740  0.7820
14259TIP3   OH264191   4.396   3.518   3.187 -0.3201  0.1168 -0.0134
14259TIP3    H164192   4.474   3.565   3.215 -0.6904  0.4095  0.5248
14259TIP3    H264193   4.353   3.491   3.268  0.3788 -1.9822 -0.2897
14260TIP3   OH264194   2.990   5.457  16.554  0.2350 -0.7266 -0.5486
14260TIP3    H164195   3.055   5.527  16.564  0.5167 -0.8134 -1.6869
14260TIP3    H264196   2.922   5.478  16.619  1.8283 -1.1546  1.2774
14261TIP3   OH264197   0.337   0.265  13.218 -0.2349 -0.4877  0.5024
14261TIP3    H164198   0.425   0.233  13.199 -0.0800 -1.2654  2.4412
14261TIP3    H264199   0.327   0.342  13.162  1.2255 -1.0761 -0.5997
14262TIP3   OH264200   3.890   2.173   3.632 -0.4150 -0.5010 -0.5428
14262TIP3    H164201   3.922   2.110   3.567  0.8739 -0.2251 -0.1915
14262TIP3    H264202   3.970   2.211   3.670 -1.1688  1.5331 -0.9318
14263TIP3   OH264203   1.171   1.731   3.924 -0.1903  0.2835 -0.0889
14263TIP3    H164204   1.078   1.709   3.921  0.0660 -0.6304 -1.5251
14263TIP3    H264205   1.210   1.660   3.974 -0.1843  0.4251  0.1099
14264TIP3   OH264206   2.320   3.792  16.699 -0.1415 -0.4159  0.0680
14264TIP3    H164207   2.276   3.709  16.683 -2.3899  0.7336  0.1059
14264TIP3    H264208   2.319   3.803  16.794  1.9422 -1.2670  0.2110
14265TIP3   OH264209   4.400   5.538  15.068 -0.1721 -0.1445  0.6207
14265TIP3    H164210   4.323   5.488  15.094  0.4390 -1.4400 -0.0088
14265TIP3    H264211   4.464   5.472  15.042  0.7081  0.9583 -0.0760
14266TIP3   OH264212   2.744   3.910  13.948  0.4145 -0.2881  0.3392
14266TIP3    H164213   2.829   3.893  13.987  0.9504  1.6890  0.0817
14266TIP3    H264214   2.747   3.866  13.863  0.8650 -0.9362  0.6978
14267TIP3   OH264215   4.438   2.531  13.379 -0.9798 -0.8050  0.3287
14267TIP3    H164216   4.491   2.551  13.302  0.2532  0.4081  1.4662
14267TIP3    H264217   4.472   2.448  13.411  1.4190  0.7324  1.9891
14268TIP3   OH264218   4.501   0.617   5.133 -0.5083 -0.2571  0.4352
14268TIP3    H164219   4.407   0.632   5.146 -1.4391  1.3355 -6.5801
14268TIP3    H264220   4.540   0.704   5.140 -0.0479 -0.4153 -0.2055
14269TIP3   OH264221   3.760   1.311  10.754  0.1974 -0.5227 -0.6227
14269TIP3    H164222   3.824   1.266  10.810 -1.2386  0.1361  1.6026
14269TIP3    H264223   3.702   1.241  10.723 -0.6142 -0.5678  0.9234
14270TIP3   OH264224   5.736   2.214  14.319 -0.3172 -0.2544  0.0127
14270TIP3    H164225   5.687   2.200  14.400 -1.2147 -0.2183 -0.5244
14270TIP3    H264226   5.742   2.128  14.278  1.6093 -0.5952  0.9289
14271TIP3   OH264227   5.623   2.451   2.457  0.9597  0.0710 -0.2787
14271TIP3    H164228   5.704   2.406   2.483  1.0870  0.9694  0.9466
14271TIP3    H264229   5.651   2.514   2.391  1.2103  0.0997 -0.1496
14272TIP3   OH264230   3.394   1.324   1.597 -0.4120 -0.1768 -0.4023
14272TIP3    H164231   3.329   1.317   1.666 -0.2897 -1.7895 -0.4208
14272TIP3    H264232   3.445   1.243   1.604 -0.6143 -0.5371 -2.5752
14273TIP3   OH264233   3.520   3.274  12.061 -0.3299  0.0512  0.2972
14273TIP3    H164234   3.575   3.350  12.084 -0.8852  0.6830 -0.4105
14273TIP3    H264235   3.537   3.210  12.129  2.2909 -0.2618 -0.5893
14274TIP3   OH264236   6.313   5.888   3.637  0.7862  0.3705  0.3842
14274TIP3    H164237   6.387   5.847   3.681  1.5553  0.6853 -0.6064
14274TIP3    H264238   6.244   5.821   3.639  0.6930  0.5073  2.3463
14275TIP3   OH264239   6.128   5.619  12.190  0.5898  0.3448 -0.0715
14275TIP3    H164240   6.088   5.640  12.106  0.9506  0.5757 -0.1877
14275TIP3    H264241   6.112   5.525  12.202 -1.0075  0.6765  0.4361
14276TIP3   OH264242   6.772   2.816   0.972 -0.2338  0.2200 -0.1312
14276TIP3    H164243   6.753   2.800   0.879 -1.5482 -0.7846  0.2919
14276TIP3    H264244   6.692   2.789   1.018 -0.9270  3.9967  1.0317
14277TIP3   OH264245   6.053   2.084  12.829 -0.0637  0.0848 -0.1461
14277TIP3    H164246   6.072   1.997  12.794 -0.9037 -0.3299  0.4208
14277TIP3    H264247   6.139   2.120  12.853  0.4201 -0.0520 -1.6182
14278TIP3   OH264248   3.416   3.660   4.592  0.3672 -0.2373  0.2975
14278TIP3    H164249   3.504   3.654   4.553 -0.7369 -1.3173 -2.1760
14278TIP3    H264250   3.383   3.745   4.562  0.3989 -0.0287  0.8578
14279TIP3   OH264251   0.566   6.360   2.272  0.3617  0.6421  0.2268
14279TIP3    H164252   0.655   6.387   2.253 -0.2298  2.2869 -0.3034
14279TIP3    H264253   0.549   6.288   2.212  0.8609  1.2403 -0.6365
14280TIP3   OH264254   1.219   3.674   3.391 -0.0197 -0.0065  0.3956
14280TIP3    H164255   1.210   3.692   3.485 -1.3289 -0.6408  0.4031
14280TIP3    H264256   1.134   3.698   3.354  0.1898 -0.6081 -0.4886
14281TIP3   OH264257   5.776   5.884  12.714 -0.3637  0.2786  0.4046
14281TIP3    H164258   5.767   5.979  12.707  1.4189  0.4685  0.3165
14281TIP3    H264259   5.825   5.859  12.635 -1.3431 -0.7945  0.1338
14282TIP3   OH264260   2.894   0.014   5.535  0.0813  0.2467  0.5430
14282TIP3    H164261   2.918   0.080   5.600  0.0194  1.7085 -0.8736
14282TIP3    H264262   2.802   0.031   5.516  0.2195  0.1279 -0.2534
14283TIP3   OH264263   0.463   6.126  15.149  0.1346 -0.1336  0.2100
14283TIP3    H164264   0.512   6.061  15.200 -0.0373 -0.8417 -0.5215
14283TIP3    H264265   0.480   6.209  15.194  0.2295 -0.7020  1.2413
14284TIP3   OH264266   2.588   6.417  11.784  0.2622  0.3073 -0.1790
14284TIP3    H164267   2.665   6.413  11.727  1.9872  1.2144  2.0077
14284TIP3    H264268   2.553   6.328  11.782  1.0201  0.0206 -1.6473
14285TIP3   OH264269   6.653   2.905  15.273 -0.1580 -0.0920 -0.1768
14285TIP3    H164270   6.582   2.966  15.291  0.2009  0.1455  0.4358
14285TIP3    H264271   6.721   2.927  15.337  1.7748  1.8104 -2.6946
14286TIP3   OH264272   5.262   2.012   5.229  0.0774 -0.1497  0.4924
14286TIP3    H164273   5.303   2.069   5.163  0.9410  0.1359  1.2672
14286TIP3    H264274   5.181   2.056   5.252  0.5664  0.5825  0.8244
14287TIP3   OH264275   2.511   6.167  11.790 -0.0343 -0.2069  0.2961
14287TIP3    H164276   2.590   6.115  11.775 -0.4858 -0.5215 -1.0663
14287TIP3    H264277   2.439   6.106  11.775 -0.5586  0.2552  0.8625
14288TIP3   OH264278   4.189   4.079   5.511  0.0716  0.6777 -0.3078
14288TIP3    H164279   4.235   4.118   5.436 -1.9481  0.2008 -1.8495
14288TIP3    H264280   4.127   4.146   5.539 -1.0970 -0.1499 -0.8547
14289TIP3   OH264281   5.255   2.293   1.768  0.1937  0.0471  0.1742
14289TIP3    H164282   5.290   2.247   1.844 -1.5870 -1.5655  0.0567
14289TIP3    H264283   5.187   2.350   1.803 -0.6907 -0.7628 -0.1890
14290TIP3   OH264284   6.495   5.218   4.838  0.0545 -0.2216 -0.0055
14290TIP3    H164285   6.554   5.243   4.908  0.6169 -0.0342 -0.5365
14290TIP3    H264286   6.508   5.124   4.827 -0.6192 -0.3957  0.6752
14291TIP3   OH264287   5.560   5.645  13.046 -0.2536  0.3357  0.2720
14291TIP3    H164288   5.632   5.705  13.029 -0.5123  0.2199 -1.3238
14291TIP3    H264289   5.582   5.604  13.130  0.9420  1.1632  0.3708
14292TIP3   OH264290   5.359   1.867  10.685 -0.6596  0.2063  0.0821
14292TIP3    H164291   5.337   1.792  10.630  0.4027  1.1080 -1.6538
14292TIP3    H264292   5.454   1.862  10.695 -0.4614  1.7599 -0.7643
14293TIP3   OH264293   5.807   3.024   0.558  0.3723 -0.3134  0.0186
14293TIP3    H164294   5.726   3.041   0.606  1.0447  0.8229  0.7557
14293TIP3    H264295   5.786   3.045   0.467  0.0677  0.7097  0.3273
14294TIP3   OH264296   0.073   6.078  16.866  0.2650  0.5046  0.5499
14294TIP3    H164297   0.010   6.020  16.908 -1.3780  1.9622  0.1669
14294TIP3    H264298   0.123   6.021  16.808 -0.9103 -0.6298  0.6183
14295TIP3   OH264299   0.630   0.068   4.769 -0.1700  0.4191  0.5863
14295TIP3    H164300   0.559   0.011   4.739  1.0004 -1.1262  0.7108
14295TIP3    H264301   0.684   0.082   4.691  0.6576 -0.3045  1.0265
14296TIP3   OH264302   3.452   1.805   0.461  0.2005  0.6799 -0.2765
14296TIP3    H164303   3.497   1.786   0.543  2.2638 -0.0528 -1.5536
14296TIP3    H264304   3.483   1.892   0.436 -0.0125  0.6812 -0.5378
14297TIP3   OH264305   0.053   2.259   4.183  0.6914 -0.6602  0.5779
14297TIP3    H164306  -0.002   2.201   4.236  0.1641 -0.2201  0.5060
14297TIP3    H264307   0.023   2.245   4.093 -0.2236  0.5840  0.6804
14298TIP3   OH264308   4.838   4.641   4.532  0.0910 -0.3021 -0.1573
14298TIP3    H164309   4.893   4.563   4.529  0.1849 -0.3042  1.2928
14298TIP3    H264310   4.749   4.607   4.546  0.0277 -0.1856 -0.2706
14299TIP3   OH264311   6.616   6.736  11.240  0.1340  0.1718  0.1811
14299TIP3    H164312   6.652   6.820  11.211 -0.8465  1.0890  1.5084
14299TIP3    H264313   6.521   6.747  11.231  0.0265 -1.0014 -0.1444
14300TIP3   OH264314   2.337   4.074  11.496  0.1025  0.4815 -0.6441
14300TIP3    H164315   2.265   4.020  11.528  0.0580  1.8541  1.7870
14300TIP3    H264316   2.337   4.150  11.555  2.4318  1.3493 -1.6935
14301TIP3   OH264317   6.095   1.451  14.658  0.2486  0.5222  0.1775
14301TIP3    H164318   6.129   1.501  14.732 -0.9827  1.7696 -0.0707
14301TIP3    H264319   6.045   1.380  14.698  1.7267 -0.3258  0.5367
14302TIP3   OH264320   2.180   3.552  15.381 -0.2044 -0.2413 -0.6402
14302TIP3    H164321   2.106   3.507  15.340 -0.8813 -0.1896  0.4878
14302TIP3    H264322   2.148   3.641  15.396 -0.0661 -0.3433  0.2660
14303TIP3   OH264323   5.135   4.358   4.083 -0.7669 -0.2804 -0.4560
14303TIP3    H164324   5.107   4.267   4.084  0.2072 -0.5856 -0.3150
14303TIP3    H264325   5.093   4.397   4.159 -1.9863 -0.3580 -1.0782
14304TIP3   OH264326   5.934   5.620   2.546  0.4863 -0.3931  0.0082
14304TIP3    H164327   5.974   5.567   2.477 -0.2831 -0.7035 -0.1985
14304TIP3    H264328   5.971   5.584   2.627 -0.1828 -1.3748 -0.1172
14305TIP3   OH264329   3.159   4.159  10.007 -0.5039 -0.3939  0.0903
14305TIP3    H164330   3.167   4.068  10.034 -0.4688 -0.2134  0.6934
14305TIP3    H264331   3.110   4.156   9.925 -1.4119 -0.8861  0.6330
14306TIP3   OH264332   4.877   6.313  12.228  0.3862 -0.0681  0.4386
14306TIP3    H164333   4.920   6.388  12.188  0.2551 -0.4124 -0.3529
14306TIP3    H264334   4.843   6.262  12.155 -1.5529  0.3010  1.0417
14307TIP3   OH264335   4.961   6.162   1.240 -0.4883 -0.4129 -0.4773
14307TIP3    H164336   4.866   6.168   1.231 -0.4203 -0.4024 -1.1879
14307TIP3    H264337   4.975   6.143   1.333 -1.0875  1.8754  0.1139
14308TIP3   OH264338   2.796   4.541   0.704  0.0246  0.4243  0.9152
14308TIP3    H164339   2.720   4.528   0.761 -1.2764 -1.0469 -1.0564
14308TIP3    H264340   2.793   4.467   0.643  2.3467  1.0171  0.0239
14309TIP3   OH264341   0.508   6.466  13.951  0.1717 -0.3594  0.1230
14309TIP3    H164342   0.487   6.418  14.031 -0.4132 -0.6796 -0.2239
14309TIP3    H264343   0.520   6.399  13.884 -1.5959  0.0089 -0.5847
14310TIP3   OH264344   3.378   5.334  15.939 -0.0567  0.2592 -0.2194
14310TIP3    H164345   3.440   5.401  15.909  0.6186 -0.6297 -0.8340
14310TIP3    H264346   3.428   5.252  15.936 -1.1773 -0.4196 -0.4350
14311TIP3   OH264347   5.282   0.465   5.360 -0.3232 -0.3708 -0.2948
14311TIP3    H164348   5.247   0.530   5.421  0.6936  0.0206 -0.1274
14311TIP3    H264349   5.278   0.383   5.408  0.8657  0.0009  0.4560
14312TIP3   OH264350   5.300   5.025  15.766 -0.7147  0.2820 -0.5607
14312TIP3    H164351   5.264   5.105  15.727 -1.2646 -0.0401 -0.7115
14312TIP3    H264352   5.349   5.056  15.842 -0.8741  0.7686 -0.6531
14313TIP3   OH264353   3.862   3.447   3.667 -0.1344 -0.0684 -0.1138
14313TIP3    H164354   3.794   3.445   3.599  0.3982 -0.4150 -0.6418
14313TIP3    H264355   3.914   3.369   3.650 -0.8457 -0.9378  1.5780
14314TIP3   OH264356   5.038   6.051   4.748 -0.3184  0.1820  0.4076
14314TIP3    H164357   5.049   5.958   4.767  1.9104 -0.0639 -1.7321
14314TIP3    H264358   5.111   6.094   4.794  1.3411  0.2960 -2.2264
14315TIP3   OH264359   3.310   3.683  16.649  0.4150  0.5204  0.4466
14315TIP3    H164360   3.292   3.775  16.664 -1.3352  0.1635  0.6565
14315TIP3    H264361   3.270   3.638  16.723 -0.6339 -0.5697 -0.7547
14316TIP3   OH264362   4.046   2.137  13.105 -0.0202 -0.0533 -0.2636
14316TIP3    H164363   4.049   2.042  13.097  1.6648  0.1023 -1.9713
14316TIP3    H264364   4.138   2.164  13.104 -0.4865  1.5968  0.0171
14317TIP3   OH264365   2.427   5.238   2.256  0.1351 -0.8348  0.6100
14317TIP3    H164366   2.346   5.279   2.284  0.3263 -1.2451  1.7849
14317TIP3    H264367   2.409   5.144   2.257 -0.0127 -0.8504 -1.1569
14318TIP3   OH264368   2.356   6.142  14.273 -0.0528  0.4721 -0.1554
14318TIP3    H164369   2.376   6.101  14.189  0.0709 -1.0857  0.6149
14318TIP3    H264370   2.325   6.230  14.250  1.2653  0.5407 -1.7406
14319TIP3   OH264371   4.707   6.554  14.235 -0.4567  0.5281 -0.3085
14319TIP3    H164372   4.793   6.537  14.275  0.2507  1.1326 -1.5316
14319TIP3    H264373   4.650   6.486  14.271  0.9386 -0.8963 -0.7151
14320TIP3   OH264374   1.055   6.628  10.609 -0.3302 -0.2986 -0.3540
14320TIP3    H164375   0.971   6.585  10.630 -0.1414 -0.9038 -0.8098
14320TIP3    H264376   1.031   6.719  10.593 -0.6921 -0.1496  0.9591
14321TIP3   OH264377   6.728   3.072   6.011 -0.4420 -0.7331  0.0099
14321TIP3    H164378   6.789   3.010   5.969 -0.2869 -0.0631 -0.7587
14321TIP3    H264379   6.664   3.016   6.055  0.2708 -1.4462  0.1553
14322TIP3   OH264380   0.463   5.506  13.604  0.1103 -0.1983 -0.1242
14322TIP3    H164381   0.432   5.438  13.544  0.1805 -0.0461 -0.3342
14322TIP3    H264382   0.452   5.468  13.691 -0.1228 -0.3684 -0.2270
14323TIP3   OH264383   4.441   6.044  12.313 -0.3456  0.6726  0.1357
14323TIP3    H164384   4.523   6.093  12.321 -0.7752  1.1826  1.4930
14323TIP3    H264385   4.428   6.003  12.398 -2.5126  2.2275  0.5982
14324TIP3   OH264386   6.106   0.226   2.733  0.1732 -0.7786  0.1800
14324TIP3    H164387   6.125   0.295   2.670 -0.3592  0.2354  1.1211
14324TIP3    H264388   6.180   0.227   2.793 -0.4021 -0.1830  0.9065
14325TIP3   OH264389   1.733   4.907   0.682  0.0659  0.2110 -0.0774
14325TIP3    H164390   1.703   4.821   0.712  1.3597 -0.1673  0.1282
14325TIP3    H264391   1.735   4.899   0.586 -1.2475  0.4991 -0.1426
14326TIP3   OH264392   5.225   6.713   5.892  0.4072  0.0362 -0.2065
14326TIP3    H164393   5.302   6.678   5.937 -0.0762  0.0449  0.6315
14326TIP3    H264394   5.164   6.639   5.888  0.7917 -0.2307 -1.6736
14327TIP3   OH264395   5.875   4.531  11.949  0.2574 -0.5815  0.7370
14327TIP3    H164396   5.810   4.465  11.974 -1.5340  0.7444 -0.3370
14327TIP3    H264397   5.834   4.614  11.971  1.9149  0.2581  0.7261
14328TIP3   OH264398   4.080   4.242   3.466 -0.3319  0.4984  0.6943
14328TIP3    H164399   3.992   4.273   3.487 -0.5930 -0.4154  0.9758
14328TIP3    H264400   4.066   4.173   3.401  0.2733  1.3256 -0.3292
14329TIP3   OH264401   5.330   1.627  10.514  0.0269 -0.5957  0.4998
14329TIP3    H164402   5.416   1.585  10.507 -0.0079 -0.5921  0.0577
14329TIP3    H264403   5.303   1.611  10.605  1.5158  1.3837  1.3195
14330TIP3   OH264404   3.229   6.116  12.720  0.1019  0.8579 -0.3887
14330TIP3    H164405   3.265   6.133  12.633  2.4682  0.5872  0.5121
14330TIP3    H264406   3.198   6.201  12.751 -1.3150  0.8499 -1.7181
14331TIP3   OH264407   2.170   4.276  12.041 -0.4368  0.3550 -0.4506
14331TIP3    H164408   2.253   4.260  11.997 -1.4017  1.2848 -2.7437
14331TIP3    H264409   2.177   4.366  12.074 -1.2563  1.2397 -2.5380
14332TIP3   OH264410   1.646   6.165  10.624 -0.0525  0.0819 -0.3143
14332TIP3    H164411   1.736   6.198  10.629 -0.4012  0.9234  0.5542
14332TIP3    H264412   1.651   6.077  10.660  0.6169 -0.2955 -1.2892
14333TIP3   OH264413   3.640   0.640  15.594 -0.5310  0.0409  0.1873
14333TIP3    H164414   3.624   0.691  15.673 -0.4191  0.4277 -0.0345
14333TIP3    H264415   3.673   0.704  15.531  1.2728 -0.6336  0.4268
14334TIP3   OH264416   2.281   0.556   2.772  0.0597  0.1954  0.2862
14334TIP3    H164417   2.217   0.619   2.741 -1.5995 -1.1534  0.8978
14334TIP3    H264418   2.310   0.510   2.693 -0.1805  0.3860  0.0863
14335TIP3   OH264419   4.219   0.712  16.331 -0.3140  0.7032  0.1574
14335TIP3    H164420   4.274   0.674  16.263 -2.2620  0.0374 -1.0774
14335TIP3    H264421   4.262   0.795  16.352  2.5305 -0.9546  1.0311
14336TIP3   OH264422   0.116   3.270  12.806  0.1218  0.3315 -0.1884
14336TIP3    H164423   0.125   3.358  12.768 -1.0788  0.2573 -0.6616
14336TIP3    H264424   0.083   3.286  12.894 -0.5271  0.3373 -0.4304
14337TIP3   OH264425   6.114   2.202  11.129  0.6389  0.2229  0.2449
14337TIP3    H164426   6.138   2.109  11.128 -1.6643 -0.4073 -0.4890
14337TIP3    H264427   6.145   2.236  11.046  0.2746 -0.2311 -0.0785
14338TIP3   OH264428   5.010   5.421   1.986 -0.2094  0.0105  0.0318
14338TIP3    H164429   4.939   5.364   2.016 -1.0063  1.6511  1.3729
14338TIP3    H264430   4.971   5.474   1.917  0.0276  0.1332 -0.0083
14339TIP3   OH264431   4.965   6.611   2.742 -0.6534  0.2107 -0.6279
14339TIP3    H164432   5.029   6.541   2.738  0.7844  1.5189 -1.0098
14339TIP3    H264433   4.914   6.593   2.821  1.3333  0.1432  0.6620
14340TIP3   OH264434   5.420   0.964   0.371 -0.1733 -0.3642  0.1103
14340TIP3    H164435   5.379   0.895   0.423 -2.1988  0.9488  0.3480
14340TIP3    H264436   5.365   0.971   0.293 -1.0230  2.0784  0.8667
14341TIP3   OH264437   3.587   4.333  16.376 -0.0315  0.1526 -0.0065
14341TIP3    H164438   3.658   4.397  16.380  0.1817 -0.1568  1.1288
14341TIP3    H264439   3.617   4.259  16.429 -0.9079 -0.2675 -0.0892
14342TIP3   OH264440   4.392   1.452   3.552  0.3924 -0.1089  0.0859
14342TIP3    H164441   4.385   1.389   3.624 -0.4160 -0.1405 -0.0196
14342TIP3    H264442   4.306   1.493   3.547  0.4953  0.0129 -0.7557
14343TIP3   OH264443   4.292   2.251  13.870  0.3542  0.2177  0.4275
14343TIP3    H164444   4.285   2.326  13.811 -1.2482  1.3246  1.9862
14343TIP3    H264445   4.215   2.258  13.927 -0.1030 -2.8767  0.2921
14344TIP3   OH264446   1.641   4.801   5.727  0.0027 -0.6645 -0.1578
14344TIP3    H164447   1.570   4.814   5.789 -1.5623  1.2740 -2.2629
14344TIP3    H264448   1.697   4.878   5.738  1.2480 -1.7054  0.8148
14345TIP3   OH264449   3.364   3.643  14.726  0.0913 -0.6192 -0.2352
14345TIP3    H164450   3.354   3.548  14.721  0.9085 -0.7011 -0.4361
14345TIP3    H264451   3.442   3.662  14.673  0.6213  0.0315  0.7599
14346TIP3   OH264452   0.034   6.469   0.300 -0.1851  0.0707  0.0269
14346TIP3    H164453  -0.039   6.410   0.288  0.5151 -0.7009 -0.4622
14346TIP3    H264454   0.097   6.446   0.232  0.3617  0.9639  0.2049
14347TIP3   OH264455   3.210   0.127   4.269 -0.0960 -0.4489  0.2065
14347TIP3    H164456   3.210   0.222   4.276 -2.5211 -0.4221  0.4917
14347TIP3    H264457   3.269   0.097   4.338  0.2451  0.8318  0.4717
14348TIP3   OH264458   4.334   0.583  11.017 -0.1335 -0.4927  0.4650
14348TIP3    H164459   4.410   0.533  10.986 -0.1982 -0.7249  0.6793
14348TIP3    H264460   4.263   0.519  11.020 -0.9199  0.2066 -1.9197
14349TIP3   OH264461   5.759   2.426  15.177  0.0681 -0.4844  0.7722
14349TIP3    H164462   5.813   2.501  15.151  0.3195 -0.6415  0.8379
14349TIP3    H264463   5.818   2.372  15.230 -0.7432  0.3992  2.6401
14350TIP3   OH264464   0.799   2.684   0.227  0.1886  0.2780 -0.1086
14350TIP3    H164465   0.826   2.615   0.166 -1.5767 -0.6807  0.1620
14350TIP3    H264466   0.801   2.643   0.313  1.8486  1.3832  0.3986
14351TIP3   OH264467   3.933   0.384   5.731 -0.6876  0.1289 -0.4116
14351TIP3    H164468   3.935   0.313   5.667 -1.3623  0.2861 -0.6127
14351TIP3    H264469   3.854   0.368   5.782 -0.4770  0.3519 -0.0122
14352TIP3   OH264470   0.195   5.603  16.484 -0.3480  0.0768  0.6512
14352TIP3    H164471   0.279   5.640  16.458 -1.3667  0.2048 -2.5837
14352TIP3    H264472   0.149   5.677  16.524  0.7430  0.2010  1.7159
14353TIP3   OH264473   2.452   6.725  12.069  0.6227  0.8398  0.2290
14353TIP3    H164474   2.493   6.756  12.150  0.4586  1.8896 -0.0839
14353TIP3    H264475   2.524   6.722  12.006  0.8738 -0.5782  0.5693
14354TIP3   OH264476   4.962   4.521  13.540 -0.2539 -0.1406 -0.0711
14354TIP3    H164477   4.931   4.595  13.487 -0.6032 -0.1092  0.1715
14354TIP3    H264478   4.890   4.458  13.537  0.5759 -1.0625 -1.4040
14355TIP3   OH264479   3.482   2.198  14.435 -0.0122 -0.1227 -0.3807
14355TIP3    H164480   3.533   2.123  14.464 -0.6541 -0.0457  1.0249
14355TIP3    H264481   3.547   2.265  14.414  0.5186 -0.6076 -0.2787
14356TIP3   OH264482   3.991   1.152  15.033  0.0269  0.3349  0.1588
14356TIP3    H164483   3.952   1.065  15.026  2.0392 -0.4600 -1.5967
14356TIP3    H264484   3.982   1.190  14.945  0.9424  1.1092  0.3820
14357TIP3   OH264485   3.921   3.755  11.630  0.1980 -0.3853  0.7457
14357TIP3    H164486   3.864   3.814  11.581 -0.3773 -1.7779 -0.2992
14357TIP3    H264487   3.878   3.748  11.716  1.6324  2.6688  1.7826
14358TIP3   OH264488   1.821   3.750  11.446  0.4195  0.3988 -0.0915
14358TIP3    H164489   1.726   3.755  11.429  0.2387 -0.1008  0.7354
14358TIP3    H264490   1.837   3.818  11.510  0.7788  1.0586 -0.8765
14359TIP3   OH264491   0.717   0.463  14.883 -0.3100  0.1401 -0.0060
14359TIP3    H164492   0.643   0.428  14.933 -0.3094  0.8264  0.4824
14359TIP3    H264493   0.725   0.554  14.913  0.8245  0.0246  0.0600
14360TIP3   OH264494   4.437   1.525  16.149 -0.1228 -0.4239  0.4506
14360TIP3    H164495   4.485   1.502  16.070  1.3816 -1.8384  1.7375
14360TIP3    H264496   4.453   1.619  16.161  1.0115 -0.5487 -0.0239
14361TIP3   OH264497   1.209   2.055   4.357  0.0117 -0.0847  0.3950
14361TIP3    H164498   1.164   2.120   4.303  0.9954 -0.6177 -1.1044
14361TIP3    H264499   1.183   2.076   4.447  0.0527  2.1815 -0.0922
14362TIP3   OH264500   6.116   6.782  16.639  0.3739 -0.5044 -0.3723
14362TIP3    H164501   6.053   6.712  16.657  1.0135 -1.0579 -0.2825
14362TIP3    H264502   6.062   6.856  16.612 -0.3543 -0.8183  0.2015
14363TIP3   OH264503   4.236   2.767  16.249 -0.6175  0.2129  0.5161
14363TIP3    H164504   4.297   2.796  16.317  0.4555 -0.1357 -0.2716
14363TIP3    H264505   4.224   2.673  16.267  0.5437 -0.1304 -0.4120
14364TIP3   OH264506   5.738   2.834  15.252  0.0726 -0.1626  0.6112
14364TIP3    H164507   5.825   2.848  15.289  0.0263 -0.0959  0.6961
14364TIP3    H264508   5.699   2.766  15.307 -0.7199  1.2862  1.8930
14365TIP3   OH264509   3.072   5.761  15.309  0.2416 -0.6946 -0.0787
14365TIP3    H164510   3.048   5.841  15.357 -0.9367 -0.8018 -0.4838
14365TIP3    H264511   3.161   5.742  15.339 -1.1211 -1.8097  3.5284
14366TIP3   OH264512   3.509   5.875  13.697 -0.2813  0.3681 -0.5355
14366TIP3    H164513   3.435   5.827  13.732  0.8361  0.8914  2.6588
14366TIP3    H264514   3.524   5.836  13.610 -3.1564 -0.8795 -0.5046
14367TIP3   OH264515   2.641   4.804   6.012  0.0437  0.1093 -0.1331
14367TIP3    H164516   2.583   4.728   5.998 -0.4443  0.5597 -0.5750
14367TIP3    H264517   2.597   4.855   6.080 -0.8456  1.2196 -1.5225
14368TIP3   OH264518   1.115   5.335   4.073 -0.1723  0.3994 -0.0485
14368TIP3    H164519   1.089   5.347   3.982  1.5264 -1.8799 -0.8974
14368TIP3    H264520   1.092   5.244   4.092  2.2900 -0.0843  0.8000
14369TIP3   OH264521   1.145   3.517  16.460  0.0718 -0.8982  0.1863
14369TIP3    H164522   1.159   3.514  16.365  0.4759 -0.5261  0.2324
14369TIP3    H264523   1.102   3.601  16.475  1.3890 -0.2752  0.5131
14370TIP3   OH264524   1.586   4.585  14.818  0.1038 -1.0260 -0.1771
14370TIP3    H164525   1.601   4.657  14.879  2.5457 -1.1869 -0.5616
14370TIP3    H264526   1.501   4.605  14.778  0.3314  1.1606  0.3697
14371TIP3   OH264527   2.543   2.762  12.646  0.5265  0.0262 -0.1073
14371TIP3    H164528   2.637   2.748  12.657  0.9685  0.8264 -2.6733
14371TIP3    H264529   2.522   2.721  12.562 -0.0854  5.4750 -2.8613
14372TIP3   OH264530   1.136   4.259  14.979 -0.6365 -0.1118  0.2602
14372TIP3    H164531   1.083   4.334  14.951  1.2110  1.3496  0.5536
14372TIP3    H264532   1.172   4.285  15.064 -0.6794 -1.6931  0.7815
14373TIP3   OH264533   4.829   2.792   0.980  0.1663 -0.0021 -0.0940
14373TIP3    H164534   4.762   2.814   0.916 -0.9537  3.8754  2.2598
14373TIP3    H264535   4.781   2.748   1.051  0.7615 -0.6473 -0.0780
14374TIP3   OH264536   3.619   2.795  11.494 -0.0421  0.0050  0.0013
14374TIP3    H164537   3.705   2.836  11.506 -0.2501  0.5179 -0.2524
14374TIP3    H264538   3.559   2.850  11.544 -0.4372  0.4274 -0.9362
14375TIP3   OH264539   0.386   4.724  14.300 -0.2842 -0.1809 -0.5512
14375TIP3    H164540   0.290   4.726  14.301 -0.3084 -0.3391 -1.5587
14375TIP3    H264541   0.412   4.815  14.286 -0.2543  0.0284  0.8037
14376TIP3   OH264542   3.447   0.450  16.949 -0.0979 -0.0993 -0.5795
14376TIP3    H164543   3.424   0.360  16.972 -1.6729  0.2127 -0.8856
14376TIP3    H264544   3.430   0.456  16.855  0.4445  0.3867 -0.6473
14377TIP3   OH264545   5.920   6.360  14.656 -0.0703 -0.1517  0.2458
14377TIP3    H164546   5.947   6.450  14.678 -0.8478  0.0546  0.3860
14377TIP3    H264547   5.993   6.305  14.684 -0.3211  0.2799  1.7665
14378TIP3   OH264548   3.797   2.619   5.498 -0.4331  0.2728 -0.0360
14378TIP3    H164549   3.804   2.594   5.590 -1.1488 -1.3427 -0.4170
14378TIP3    H264550   3.704   2.612   5.478 -0.3413  1.0669 -0.7672
14379TIP3   OH264551   6.571   2.065   1.630 -0.5368 -0.4145  0.2022
14379TIP3    H164552   6.563   2.155   1.598 -0.7657 -0.0624  1.2232
14379TIP3    H264553   6.482   2.031   1.628 -0.4244 -0.6787 -0.3492
14380TIP3   OH264554   3.555   3.679  10.850  0.5699  0.3151 -0.5752
14380TIP3    H164555   3.619   3.750  10.844 -0.8549  1.7927  1.1779
14380TIP3    H264556   3.503   3.687  10.770  1.1895  0.4698 -0.9658
14381TIP3   OH264557   6.049   1.758   5.506 -0.3579 -0.1344 -0.0338
14381TIP3    H164558   5.998   1.836   5.523  0.2874  0.8314 -2.2833
14381TIP3    H264559   5.986   1.695   5.470 -1.1550 -1.2007  3.0547
14382TIP3   OH264560   4.437   1.462   2.338  0.1682 -0.5622 -0.2917
14382TIP3    H164561   4.528   1.432   2.338  0.5219  0.4546  1.0597
14382TIP3    H264562   4.441   1.551   2.374 -1.2266 -0.0482 -1.3536
14383TIP3   OH264563   4.628   5.230   0.095 -0.3472 -0.0342 -0.1289
14383TIP3    H164564   4.597   5.306   0.046  1.0585 -0.6672 -2.0376
14383TIP3    H264565   4.580   5.234   0.178  0.3115  3.3714  0.1401
14384TIP3   OH264566   1.168   5.628  12.626 -0.0916 -0.1900  0.1931
14384TIP3    H164567   1.179   5.722  12.611  1.9529 -0.2786  1.0426
14384TIP3    H264568   1.240   5.587  12.579 -1.3365 -1.4187 -0.7074
14385TIP3   OH264569   6.112   1.305  11.391  0.0653  0.1240  0.0814
14385TIP3    H164570   6.116   1.299  11.295 -0.4434 -0.3288  0.0843
14385TIP3    H264571   6.184   1.250  11.421  1.1887  1.4856 -0.0612
14386TIP3   OH264572   5.439   4.617   3.692 -0.4813 -0.3580  0.3639
14386TIP3    H164573   5.407   4.527   3.706  2.2655 -1.6127 -1.1074
14386TIP3    H264574   5.438   4.628   3.597 -1.3518  1.4102  0.5662
14387TIP3   OH264575   1.858   5.343   4.597  0.0193 -0.2954  0.1758
14387TIP3    H164576   1.765   5.346   4.574 -0.0083 -1.9808  0.0293
14387TIP3    H264577   1.864   5.277   4.666  1.3795 -1.7083 -1.2556
14388TIP3   OH264578   4.091   2.946   3.860 -0.1686 -0.3694 -0.2730
14388TIP3    H164579   4.147   2.873   3.889  0.2354  0.1039  0.1660
14388TIP3    H264580   4.145   3.024   3.876 -0.3483 -0.0208 -1.3441
14389TIP3   OH264581   3.961   5.077  14.814 -0.1260  0.0574  0.4794
14389TIP3    H164582   3.872   5.075  14.778  0.1080 -1.1558 -0.0646
14389TIP3    H264583   4.007   5.006  14.768  1.0138  0.4302  1.0298
14390TIP3   OH264584   6.613   6.528   2.116  0.0219  0.1303 -0.1859
14390TIP3    H164585   6.704   6.501   2.105  0.6962  2.6322 -1.2226
14390TIP3    H264586   6.607   6.553   2.209  0.3335 -0.2213 -0.0685
14391TIP3   OH264587   0.121   4.802   3.202 -0.3058 -0.0364  0.2649
14391TIP3    H164588   0.051   4.856   3.166 -2.6525 -3.4610 -0.5716
14391TIP3    H264589   0.088   4.772   3.286 -0.0241 -1.8866 -0.2475
14392TIP3   OH264590   4.203   2.503   4.192  0.0066  0.2141  0.3135
14392TIP3    H164591   4.198   2.453   4.274 -1.8564 -1.3397 -0.7080
14392TIP3    H264592   4.119   2.549   4.187 -0.2049 -0.2940 -1.0621
14393TIP3   OH264593   4.742   4.331  12.503  0.1701  0.4284  0.2510
14393TIP3    H164594   4.683   4.392  12.546  1.2161 -0.4118  2.9559
14393TIP3    H264595   4.687   4.254  12.485  0.0382  0.2805  1.2684
14394TIP3   OH264596   1.267   6.402   4.671  0.2071 -0.0704 -0.5791
14394TIP3    H164597   1.236   6.357   4.592 -0.0094  1.1435 -1.1986
14394TIP3    H264598   1.209   6.477   4.680 -0.7609 -1.0362  1.6361
14395TIP3   OH264599   2.656   3.423  13.541 -0.3742 -0.3473 -1.1426
14395TIP3    H164600   2.666   3.492  13.476  2.9310  0.1497 -0.2275
14395TIP3    H264601   2.744   3.387  13.551 -0.8479 -0.7041  2.6637
14396TIP3   OH264602   6.771   1.246   0.854 -0.4534  0.2432 -0.0194
14396TIP3    H164603   6.745   1.204   0.772  0.1508  1.6152 -0.9247
14396TIP3    H264604   6.785   1.337   0.831  0.9282  0.4040  1.3581
14397TIP3   OH264605   6.179   6.763   5.227  0.2222  0.3763 -0.0792
14397TIP3    H164606   6.246   6.830   5.215  1.5432 -0.5878  1.6227
14397TIP3    H264607   6.226   6.688   5.262 -1.8017 -0.1674  1.6272
14398TIP3   OH264608   4.455   1.865   5.804  0.5200  0.4664 -0.1250
14398TIP3    H164609   4.457   1.812   5.884  0.5740  1.7412  0.7331
14398TIP3    H264610   4.545   1.867   5.774  0.5564  0.2670 -0.0325
14399TIP3   OH264611   6.373   1.294   0.751 -0.1382 -0.1125  0.0537
14399TIP3    H164612   6.421   1.283   0.669 -1.6609 -0.1181 -0.8371
14399TIP3    H264613   6.382   1.210   0.796  1.4163  0.1659  0.2951
14400TIP3   OH264614   4.664   3.094  14.627 -0.3594 -0.4231 -0.0796
14400TIP3    H164615   4.642   3.185  14.645  0.8658  0.2682 -1.9594
14400TIP3    H264616   4.758   3.088  14.646 -0.2188 -1.0346 -0.9676
14401TIP3   OH264617   5.413   4.905   2.093 -0.1988  0.2532 -0.2409
14401TIP3    H164618   5.350   4.969   2.128 -0.0317  1.5150 -2.1724
14401TIP3    H264619   5.457   4.952   2.022 -0.3668 -2.1463 -1.9910
14402TIP3   OH264620   5.536   4.041   0.732 -0.4083  0.1570 -0.1143
14402TIP3    H164621   5.626   4.008   0.730 -0.6154 -0.4377  0.3916
14402TIP3    H264622   5.516   4.062   0.640 -0.3459 -1.3004 -0.4734
14403TIP3   OH264623   0.017   4.429  15.158  0.1929 -0.0591  0.1274
14403TIP3    H164624  -0.036   4.381  15.095 -1.1869  1.2773  0.2476
14403TIP3    H264625   0.102   4.439  15.114 -0.2778 -0.4555 -0.8984
14404TIP3   OH264626   1.889   5.221  12.398  0.5845 -0.4487 -1.3314
14404TIP3    H164627   1.914   5.220  12.305 -1.6460 -1.0087 -1.9496
14404TIP3    H264628   1.794   5.216  12.397  0.4645  0.7924  0.9849
14405TIP3   OH264629   5.197   5.539  15.343 -0.4600  0.1150  0.3679
14405TIP3    H164630   5.290   5.559  15.333 -0.6880  2.0213  1.8886
14405TIP3    H264631   5.196   5.446  15.369  0.8928 -0.4131 -1.3368
14406TIP3   OH264632   0.578   6.117   4.576  0.4406  0.5126 -0.0639
14406TIP3    H164633   0.665   6.105   4.538  1.1476  0.6147  1.4998
14406TIP3    H264634   0.556   6.031   4.613 -0.2319  0.4270 -0.6430
14407TIP3   OH264635   3.116   1.227   5.330 -0.0017  0.1845  0.0395
14407TIP3    H164636   3.101   1.240   5.424 -0.7551 -1.6654  0.1876
14407TIP3    H264637   3.048   1.278   5.287 -0.9280 -0.6235  0.5428
14408TIP3   OH264638   6.555   3.329  12.184  0.0028 -0.3429 -0.1106
14408TIP3    H164639   6.562   3.326  12.088  1.7671  0.3540 -0.0215
14408TIP3    H264640   6.530   3.239  12.208 -0.3171 -0.5636 -1.1980
14409TIP3   OH264641   3.859   3.098   5.573 -0.2275 -0.1542 -0.0622
14409TIP3    H164642   3.882   3.188   5.553 -0.0284  0.0359  0.9821
14409TIP3    H264643   3.798   3.104   5.647  1.5887 -0.9760  1.5352
14410TIP3   OH264644   3.517   0.454  12.942 -0.5649  0.7870 -0.1535
14410TIP3    H164645   3.470   0.490  12.867  1.1083 -0.9488 -2.1172
14410TIP3    H264646   3.554   0.530  12.987 -1.5622  1.8512 -1.1021
14411TIP3   OH264647   5.718   1.234   5.023 -0.4061 -0.5811 -0.0976
14411TIP3    H164648   5.724   1.157   5.080 -0.1133 -0.1658  0.4391
14411TIP3    H264649   5.656   1.209   4.955  0.7001 -1.7846 -0.6863
14412TIP3   OH264650   2.790   3.340  11.777  0.8214 -0.7262 -0.6515
14412TIP3    H164651   2.744   3.349  11.694 -1.1135 -0.5512  0.4143
14412TIP3    H264652   2.787   3.428  11.816  2.7656 -0.5220 -0.9144
14413TIP3   OH264653   3.021   3.618   3.520  0.3097  0.1453 -0.3014
14413TIP3    H164654   3.064   3.620   3.434  0.5231 -1.3710 -0.2380
14413TIP3    H264655   2.936   3.660   3.505  0.5829  0.4391 -1.1035
14414TIP3   OH264656   5.201   6.532   0.830 -0.1016  0.0812 -0.5431
14414TIP3    H164657   5.288   6.557   0.859  1.0979 -2.0404 -2.1898
14414TIP3    H264658   5.153   6.615   0.824  1.3269  1.1265  1.7546
14415TIP3   OH264659   5.060   6.515  12.782  0.3830  0.3993  0.0160
14415TIP3    H164660   5.083   6.588  12.839  1.5018  1.4242 -1.7079
14415TIP3    H264661   4.967   6.526  12.764  0.4565  1.1635  0.0869
14416TIP3   OH264662   1.223   0.104  12.331 -0.8271 -0.3474 -0.0747
14416TIP3    H164663   1.283   0.118  12.403  1.6894 -0.3379 -2.1021
14416TIP3    H264664   1.208   0.009  12.330 -1.6184 -0.2336  1.0335
14417TIP3   OH264665   3.712   0.513   0.365 -0.4809 -0.0366  0.4188
14417TIP3    H164666   3.648   0.575   0.330  1.9810  1.2543 -2.0424
14417TIP3    H264667   3.788   0.567   0.386 -0.0308 -1.5769  2.8859
14418TIP3   OH264668   0.673   3.905  15.677 -0.0577  0.2782 -0.2725
14418TIP3    H164669   0.624   3.826  15.653 -2.3212  0.7384  2.5310
14418TIP3    H264670   0.717   3.932  15.597 -3.0757 -1.1452 -2.4738
14419TIP3   OH264671   4.622   3.665  10.587  0.4179 -0.4854  0.0753
14419TIP3    H164672   4.527   3.652  10.579  0.0686 -0.9155  3.8311
14419TIP3    H264673   4.657   3.576  10.593  0.8514 -0.2967  0.3480
14420TIP3   OH264674   4.634   6.193   4.419  0.0681 -0.2284 -0.1425
14420TIP3    H164675   4.709   6.247   4.444 -0.7123  0.0965  1.5837
14420TIP3    H264676   4.635   6.194   4.323  2.2255 -0.1961 -0.1564
14421TIP3   OH264677   2.931   6.148   3.658 -0.4002 -0.3901 -0.4590
14421TIP3    H164678   2.873   6.211   3.616  1.6162  0.6901 -1.7057
14421TIP3    H264679   2.977   6.106   3.585  0.4333 -1.1802  0.5064
14422TIP3   OH264680   3.785   2.308  14.656 -0.2462 -0.6596  0.7327
14422TIP3    H164681   3.753   2.360  14.582  1.6805 -0.1443  0.2449
14422TIP3    H264682   3.786   2.218  14.623  1.6049 -0.3019 -0.2340
14423TIP3   OH264683   6.775   5.411   6.679 -0.7647  0.0696 -0.2192
14423TIP3    H164684   6.681   5.425   6.668 -1.0641  0.5720  2.6171
14423TIP3    H264685   6.781   5.333   6.734  0.3879  1.5244  1.7717
14424TIP3   OH264686   6.695   4.381   0.283  0.1479 -0.3257 -0.0549
14424TIP3    H164687   6.743   4.460   0.307 -0.9514  0.4498 -0.3385
14424TIP3    H264688   6.616   4.413   0.240 -0.3379 -1.5841 -0.1395
14425TIP3   OH264689   2.422   0.725  11.407  0.0155  0.8267 -0.3810
14425TIP3    H164690   2.465   0.640  11.401 -0.2263  0.7439 -0.9251
14425TIP3    H264691   2.382   0.725  11.494 -0.3585  0.2019 -0.5489
14426TIP3   OH264692   2.070   4.091   3.574  0.2233  0.2576  0.0550
14426TIP3    H164693   2.143   4.143   3.609 -2.4274  2.7265  2.1633
14426TIP3    H264694   2.045   4.135   3.493  0.3003  0.1359 -0.0345
14427TIP3   OH264695   1.429   6.467  12.379  0.2314  0.4491 -0.5483
14427TIP3    H164696   1.341   6.448  12.411  1.4304  0.9805  3.2269
14427TIP3    H264697   1.472   6.381  12.376  1.0324  0.7327  2.1897
14428TIP3   OH264698   2.300   5.303  15.651  0.4010 -0.0694 -0.7050
14428TIP3    H164699   2.320   5.374  15.590 -1.5191  0.1139 -1.1339
14428TIP3    H264700   2.270   5.231  15.595 -1.6912  0.2105  0.0195
14429TIP3   OH264701   5.004   1.972  14.873  0.4030  0.0989  0.2568
14429TIP3    H164702   5.079   2.019  14.837 -0.0578  1.5404  1.1566
14429TIP3    H264703   4.931   2.034  14.869 -0.8871 -1.4626 -1.0815
14430TIP3   OH264704   1.119   3.726  16.722  0.1314 -0.3952  0.4936
14430TIP3    H164705   1.131   3.787  16.794 -2.1120  0.0317  0.5414
14430TIP3    H264706   1.029   3.695  16.731 -0.0441 -0.6753 -1.8558
14431TIP3   OH264707   2.185   0.094   0.658  0.5136 -0.0325 -0.1970
14431TIP3    H164708   2.103   0.104   0.611 -0.9230 -1.4230  1.9182
14431TIP3    H264709   2.193   0.000   0.674  1.1882  0.3242  1.8295
14432TIP3   OH264710   4.393   3.397   5.163  0.2431 -0.9439  0.3465
14432TIP3    H164711   4.478   3.418   5.123  0.5148 -2.4390  0.1200
14432TIP3    H264712   4.335   3.382   5.088 -0.5366  1.2618  0.4887
14433TIP3   OH264713   0.346   4.817  15.851 -0.5323  0.0703  0.4025
14433TIP3    H164714   0.391   4.897  15.879 -1.6767  0.4234  1.2719
14433TIP3    H264715   0.258   4.825  15.887 -1.9293  0.2902 -2.9488
14434TIP3   OH264716   4.832   6.006  13.507  0.9706 -0.3345 -0.9886
14434TIP3    H164717   4.753   5.956  13.526  0.1902  0.9866 -0.7466
14434TIP3    H264718   4.868   5.965  13.428  0.5776 -1.5450 -0.5485
14435TIP3   OH264719   3.603   0.006  17.014  0.1033  0.0807  0.0191
14435TIP3    H164720   3.620   0.091  17.055 -0.3513  0.3267 -0.3062
14435TIP3    H264721   3.515   0.014  16.977 -0.8530 -1.2838  1.9298
14436TIP3   OH264722   5.026   6.163  13.240 -0.1458  0.0424 -0.7266
14436TIP3    H164723   5.120   6.162  13.218 -0.0944  0.1976 -0.5172
14436TIP3    H264724   4.982   6.153  13.156  0.0611 -0.1027 -0.8197
14437TIP3   OH264725   0.493   1.489   5.101  0.6366 -0.0294  0.6337
14437TIP3    H164726   0.487   1.464   5.009 -0.0190  1.3606  0.2748
14437TIP3    H264727   0.402   1.484   5.133  1.1378 -2.4478  1.7518
14438TIP3   OH264728   2.721   2.659   2.390  0.1869  0.0404 -0.3753
14438TIP3    H164729   2.689   2.570   2.383 -2.3786  0.7294  1.8288
14438TIP3    H264730   2.683   2.705   2.316 -0.1526 -0.2250 -0.3657
14439TIP3   OH264731   1.602   4.390   3.852  0.4322 -0.2343  0.2754
14439TIP3    H164732   1.567   4.366   3.766  0.9298 -0.3148  0.0936
14439TIP3    H264733   1.538   4.453   3.887 -0.6648 -1.4795  0.5775
14440TIP3   OH264734   0.981   5.461   5.111 -0.7029 -0.3575  0.3671
14440TIP3    H164735   0.980   5.389   5.174 -0.5753 -1.2374 -0.6425
14440TIP3    H264736   1.074   5.477   5.094 -0.6681  1.0521  1.7194
14441TIP3   OH264737   5.091   4.636   4.808  0.5224  0.3512 -0.0800
14441TIP3    H164738   5.092   4.667   4.718  1.0556  1.3752  0.2699
14441TIP3    H264739   5.001   4.611   4.824  0.0133  2.0081 -0.2791
14442TIP3   OH264740   4.058   0.819   4.359  0.1398  0.1854  0.7682
14442TIP3    H164741   4.038   0.733   4.394 -2.1425 -0.2483 -1.4457
14442TIP3    H264742   4.045   0.879   4.433 -2.1855 -0.9508  1.3129
14443TIP3   OH264743   5.145   1.314   3.723  0.0273 -0.0554  0.0981
14443TIP3    H164744   5.193   1.331   3.642  0.3194  0.1014  0.3058
14443TIP3    H264745   5.166   1.388   3.780 -1.3345  0.6037 -0.2145
14444TIP3   OH264746   0.604   1.499  14.950 -0.7893  0.3109 -0.4858
14444TIP3    H164747   0.610   1.424  14.891  0.2062 -1.3827  1.7176
14444TIP3    H264748   0.570   1.463  15.031  1.8788  1.7956  1.3611
14445TIP3   OH264749   2.599   3.993  15.204  0.5667 -0.2799  0.2422
14445TIP3    H164750   2.576   3.928  15.270 -0.3699 -0.4933 -0.2963
14445TIP3    H264751   2.635   4.066  15.255  2.5392 -1.5902  0.7730
14446TIP3   OH264752   2.920   6.237  12.419 -0.3872 -0.0906 -0.2941
14446TIP3    H164753   2.830   6.254  12.392  0.2019  0.8639 -1.6965
14446TIP3    H264754   2.922   6.260  12.512 -1.3485  0.7869 -0.4859
14447TIP3   OH264755   0.007   6.113  13.009  0.1320 -0.0622 -0.0275
14447TIP3    H164756   0.095   6.095  12.975  0.1567 -0.2358  0.1258
14447TIP3    H264757  -0.040   6.030  12.998  0.1653 -0.1450  0.4366
14448TIP3   OH264758   1.703   0.835   0.089  0.5098  0.1835 -0.0249
14448TIP3    H164759   1.677   0.767   0.027  1.9755  0.0345 -0.5090
14448TIP3    H264760   1.770   0.793   0.143 -0.5165  0.4186  1.4530
14449TIP3   OH264761   0.202   2.065  14.933 -0.5675  0.6359  0.6693
14449TIP3    H164762   0.277   2.107  14.890  1.8794 -1.1892  2.9539
14449TIP3    H264763   0.184   1.987  14.881  1.1972 -0.5842  1.8236
14450TIP3   OH264764   2.184   6.232  13.043 -0.3390  0.0742  0.2292
14450TIP3    H164765   2.131   6.257  13.118  1.0218  2.2703  0.4987
14450TIP3    H264766   2.250   6.173  13.078 -0.4937  0.0675  0.5094
14451TIP3   OH264767   6.044   6.520  13.696  0.1763 -0.2086 -0.0930
14451TIP3    H164768   5.990   6.503  13.773 -0.2276  1.6158  0.0551
14451TIP3    H264769   6.022   6.449  13.635  0.7706 -1.8718  1.5868
14452TIP3   OH264770   5.476   5.667  14.705  0.0019  0.1225 -0.2669
14452TIP3    H164771   5.438   5.609  14.638  1.7598 -1.4041  0.0338
14452TIP3    H264772   5.428   5.646  14.785  0.6631 -0.9567 -0.1512
14453TIP3   OH264773   0.072   6.296   5.844  0.0502 -0.1646 -0.0172
14453TIP3    H164774   0.106   6.250   5.922  0.1763 -0.4274 -0.2236
14453TIP3    H264775   0.075   6.388   5.868  0.5193 -0.2118  0.1281
14454TIP3   OH264776   0.287   2.550  15.928 -0.2259 -0.5581  0.4205
14454TIP3    H164777   0.356   2.484  15.923  0.4942  0.2874 -1.3122
14454TIP3    H264778   0.320   2.623  15.876 -3.1373 -0.7728 -1.8261
14455TIP3   OH264779   5.522   0.260   0.563  0.4507  0.1350 -0.5634
14455TIP3    H164780   5.588   0.317   0.524  0.8230 -1.1254 -1.8226
14455TIP3    H264781   5.449   0.261   0.502  0.0792  0.0020 -0.1266
14456TIP3   OH264782   5.697   1.845  14.576  0.5983 -0.4703  0.4276
14456TIP3    H164783   5.782   1.822  14.538  0.3001  1.0143 -1.1846
14456TIP3    H264784   5.634   1.824  14.508  0.1035  2.7074 -0.1641
14457TIP3   OH264785   1.147   6.146   5.813  0.0406 -0.2249  0.4522
14457TIP3    H164786   1.105   6.221   5.856 -1.2675  0.8922 -2.6926
14457TIP3    H264787   1.083   6.114   5.750  2.5954 -0.5728 -2.0946
14458TIP3   OH264788   5.551   4.157  16.700  0.6890  0.6337  0.1974
14458TIP3    H164789   5.563   4.109  16.617  0.6932  2.5054 -0.9156
14458TIP3    H264790   5.461   4.137  16.726  0.8734 -0.4355  0.0507
14459TIP3   OH264791   5.964   1.424  12.091 -0.0585 -0.7715  0.1240
14459TIP3    H164792   6.023   1.351  12.109 -1.0081 -1.2103  1.5696
14459TIP3    H264793   5.897   1.417  12.158  0.3412  1.9838  0.8791
14460TIP3   OH264794   1.093   1.307  16.488  0.4703  0.2497 -0.4074
14460TIP3    H164795   1.031   1.255  16.539  0.4120  2.2577  1.6625
14460TIP3    H264796   1.179   1.279  16.520  0.4092  2.2197  1.5895
14461TIP3   OH264797   3.833   6.664   4.401 -0.6160 -0.5916  0.8408
14461TIP3    H164798   3.880   6.693   4.324 -2.1344  1.7136  0.7419
14461TIP3    H264799   3.897   6.612   4.450  0.5253 -1.6125 -1.6434
14462TIP3   OH264800   1.467   2.365   4.524  0.0322 -0.3691  0.1731
14462TIP3    H164801   1.441   2.352   4.615  2.2408  2.6480  1.3471
14462TIP3    H264802   1.551   2.320   4.516  2.6691  4.0369  1.3740
14463TIP3   OH264803   4.351   2.201   2.971  0.2578 -0.3851 -0.0321
14463TIP3    H164804   4.383   2.253   3.045 -1.0712  0.3103  0.0515
14463TIP3    H264805   4.420   2.136   2.957  0.3550 -0.7533  2.0476
14464TIP3   OH264806   3.157   3.471  14.897 -0.6620  0.4896  0.6280
14464TIP3    H164807   3.139   3.380  14.923 -1.0097  0.0380 -1.1262
14464TIP3    H264808   3.214   3.463  14.820 -0.1964  1.7822  0.8199
14465TIP3   OH264809   5.143   5.596   0.989 -0.2651 -0.0844 -0.9478
14465TIP3    H164810   5.093   5.563   0.914 -1.7168  0.8284 -0.4106
14465TIP3    H264811   5.162   5.687   0.967  0.2560 -0.1325 -0.6965
14466TIP3   OH264812   4.488   4.832  15.032 -0.2907  0.1297 -0.7191
14466TIP3    H164813   4.511   4.828  15.125 -1.7480  0.5139 -0.3166
14466TIP3    H264814   4.427   4.759  15.019  0.5795 -0.4570 -1.5909
14467TIP3   OH264815   6.327   1.620   1.090 -0.4523  0.6268  0.3523
14467TIP3    H164816   6.301   1.619   1.182  0.2409  0.2203  0.5499
14467TIP3    H264817   6.294   1.537   1.055  2.0638 -0.7300  1.0434
14468TIP3   OH264818   3.539   4.828   4.342 -0.5862 -0.2314 -0.3253
14468TIP3    H164819   3.616   4.885   4.330  0.4680 -1.9362 -2.0375
14468TIP3    H264820   3.543   4.802   4.434  0.6391  0.0743 -0.2789
14469TIP3   OH264821   3.756   0.238   5.038  0.2937  0.3690  0.0170
14469TIP3    H164822   3.820   0.238   5.109 -0.9388 -1.1458  1.1414
14469TIP3    H264823   3.671   0.243   5.081 -0.4424  0.2788 -1.3793
14470TIP3   OH264824   4.471   1.164  11.859  0.4991  0.5465 -0.1922
14470TIP3    H164825   4.521   1.230  11.907 -1.4493  0.0392  2.6299
14470TIP3    H264826   4.459   1.092  11.921 -2.5711  0.1029 -1.2119
14471TIP3   OH264827   3.426   5.754   3.421  0.0772  0.2687  0.4609
14471TIP3    H164828   3.418   5.836   3.470 -0.5213 -1.4428  3.3818
14471TIP3    H264829   3.352   5.755   3.360  1.0280  2.6250 -0.6813
14472TIP3   OH264830   6.355   5.360  16.357 -1.0406 -0.4783 -0.1665
14472TIP3    H164831   6.306   5.356  16.275  2.0102  0.6437 -2.1264
14472TIP3    H264832   6.347   5.272  16.394 -1.7165 -1.2586 -2.0945
14473TIP3   OH264833   1.775   3.639  16.358  0.0158  0.1112 -0.3616
14473TIP3    H164834   1.800   3.658  16.268  1.2624 -1.5413 -0.3764
14473TIP3    H264835   1.690   3.596  16.351 -0.2800  0.7324 -0.6688
14474TIP3   OH264836   1.569   0.292   2.184 -0.2008  0.0216 -0.3241
14474TIP3    H164837   1.553   0.263   2.094 -1.0368  1.0174 -0.5072
14474TIP3    H264838   1.626   0.225   2.221 -1.2113 -1.2721 -1.0710
14475TIP3   OH264839   6.276   6.647   0.587 -0.5062 -0.2404 -0.3800
14475TIP3    H164840   6.347   6.619   0.645  1.4284  0.4085 -2.3448
14475TIP3    H264841   6.272   6.579   0.520 -1.3642  0.0104 -0.5822
14476TIP3   OH264842   2.712   5.252  15.324 -0.5212 -0.1494  0.0068
14476TIP3    H164843   2.637   5.290  15.278 -1.3260 -1.1957  0.4576
14476TIP3    H264844   2.775   5.231  15.255 -1.0284 -0.1412 -0.4578
14477TIP3   OH264845   4.634   3.519  13.248  0.4917  0.2330  0.2677
14477TIP3    H164846   4.608   3.588  13.309 -1.3990 -0.2328  0.0350
14477TIP3    H264847   4.659   3.566  13.168  1.8673  0.7826  1.0252
14478TIP3   OH264848   5.877   6.480   0.742 -0.5095 -0.0903  0.0883
14478TIP3    H164849   5.971   6.496   0.750 -0.4652  0.2451 -1.0286
14478TIP3    H264850   5.849   6.537   0.670 -1.5756 -0.1509  0.4459
14479TIP3   OH264851   0.387   4.525   2.277  0.2437  0.4861  0.6579
14479TIP3    H164852   0.342   4.443   2.298  0.9567  0.3811  1.7793
14479TIP3    H264853   0.448   4.539   2.349  2.0336  0.6116 -0.8262
14480TIP3   OH264854   0.323   1.636  11.815  0.7153  0.5867 -0.2750
14480TIP3    H164855   0.351   1.628  11.724 -0.9073  1.4557 -0.8707
14480TIP3    H264856   0.307   1.730  11.827 -1.9174  0.1291  0.0282
14481TIP3   OH264857   2.893   0.766  11.624  0.7034 -0.1963 -0.3304
14481TIP3    H164858   2.918   0.679  11.593 -0.2628 -0.0195 -1.6642
14481TIP3    H264859   2.870   0.814  11.544  2.2976  1.6418  0.3010
14482TIP3   OH264860   1.457   4.240   5.758  0.0761  0.3646 -0.0346
14482TIP3    H164861   1.485   4.180   5.828 -0.8649 -0.9914 -0.7964
14482TIP3    H264862   1.453   4.185   5.680 -0.6308  1.4711 -0.7830
14483TIP3   OH264863   3.303   0.810  11.379 -0.6482 -0.1310  0.2913
14483TIP3    H164864   3.312   0.875  11.448 -0.8129  0.2371 -0.0305
14483TIP3    H264865   3.370   0.835  11.315  1.0501 -1.8176  1.3744
14484TIP3   OH264866   1.727   2.714  16.298  0.3520 -0.0936 -0.2536
14484TIP3    H164867   1.648   2.719  16.243  0.8178  0.3439 -0.8955
14484TIP3    H264868   1.753   2.805  16.310 -0.2171 -0.1440  1.4012
14485TIP3   OH264869   2.551   2.430   0.113  0.1471  0.5211  0.7520
14485TIP3    H164870   2.505   2.510   0.087 -0.1126 -0.2571 -1.2830
14485TIP3    H264871   2.497   2.392   0.182  0.2563  2.0615  1.7268
14486TIP3   OH264872   6.300   4.084  12.468 -0.3156  0.3100  0.1739
14486TIP3    H164873   6.383   4.063  12.511 -1.8361 -1.0904  2.5005
14486TIP3    H264874   6.308   4.177  12.446  1.3325  0.5358  1.6010
14487TIP3   OH264875   5.297   6.469  10.740  0.2298  0.0608  0.6029
14487TIP3    H164876   5.299   6.462  10.645 -0.2141 -0.7115  0.6429
14487TIP3    H264877   5.375   6.519  10.763 -1.0181  2.5392 -0.3543
14488TIP3   OH264878   4.616   2.018  14.183  0.2973  0.2816  0.3826
14488TIP3    H164879   4.589   1.943  14.237  1.7177  1.9308  3.4885
14488TIP3    H264880   4.538   2.040  14.132 -1.1607 -1.2265  1.8992
14489TIP3   OH264881   5.435   2.481   4.393 -0.1278  0.0331 -0.0391
14489TIP3    H164882   5.503   2.414   4.396 -0.2971 -0.2388 -1.8818
14489TIP3    H264883   5.407   2.490   4.484  0.6412 -1.6197  0.3852
14490TIP3   OH264884   4.351   0.635   6.335  0.0089  0.2267 -0.0932
14490TIP3    H164885   4.406   0.580   6.391 -0.2584 -0.2147 -0.2623
14490TIP3    H264886   4.411   0.699   6.298  0.2122  0.4317  0.5918
14491TIP3   OH264887   4.889   1.140   2.812  0.4069 -0.1750  0.0988
14491TIP3    H164888   4.949   1.159   2.884 -0.3512  0.8496  0.4734
14491TIP3    H264889   4.836   1.067   2.844  3.0120 -2.7056 -1.1593
14492TIP3   OH264890   5.198   5.000  10.727  0.0906  0.1739  0.3020
14492TIP3    H164891   5.159   4.977  10.811 -1.5131 -1.3179 -0.8157
14492TIP3    H264892   5.162   4.937  10.666  0.2322  2.0332 -1.7670
14493TIP3   OH264893   2.886   2.297  16.860  0.2755  0.3099 -0.1882
14493TIP3    H164894   2.832   2.343  16.796  0.1025  0.5161  0.0990
14493TIP3    H264895   2.906   2.213  16.819 -1.2404 -0.2456  0.1824
14494TIP3   OH264896   3.001   4.060  10.942 -0.2270 -0.4113 -0.6342
14494TIP3    H164897   2.953   3.989  10.899 -0.1126 -1.0075  0.2140
14494TIP3    H264898   3.001   4.036  11.035 -2.4599  1.9999  0.0373
14495TIP3   OH264899   6.192   4.313  11.873  0.1372  0.2630 -0.3010
14495TIP3    H164900   6.227   4.227  11.899 -1.5646 -0.9715 -2.0054
14495TIP3    H264901   6.263   4.374  11.893  1.0699 -1.4072  1.7379
14496TIP3   OH264902   6.528   0.319   2.703  0.1211 -0.3314  0.2736
14496TIP3    H164903   6.567   0.402   2.675  0.4263 -1.1434 -1.8425
14496TIP3    H264904   6.554   0.256   2.635 -2.5129 -1.5167  0.2884
14497TIP3   OH264905   4.249   4.771  12.290  0.2275  0.4462  0.7813
14497TIP3    H164906   4.288   4.839  12.234 -1.5325  1.2253  0.4439
14497TIP3    H264907   4.229   4.816  12.372 -2.3545  0.7983  0.0287
14498TIP3   OH264908   5.213   2.395  12.481  0.5260  0.2619 -0.1062
14498TIP3    H164909   5.159   2.319  12.501 -0.3729  0.5284 -1.4083
14498TIP3    H264910   5.303   2.363  12.488  0.1816 -0.5411  0.7602
14499TIP3   OH264911   1.061   1.913   0.767  0.2412 -0.2272 -0.1803
14499TIP3    H164912   1.058   1.872   0.681  0.1240  1.3607 -0.9438
14499TIP3    H264913   0.975   1.895   0.805  0.0277 -0.2803 -0.6907
14500TIP3   OH264914   5.566   6.444   5.108  0.5716  0.6558 -0.0560
14500TIP3    H164915   5.573   6.530   5.150  0.5029 -0.4295  2.2265
14500TIP3    H264916   5.480   6.411   5.136  1.0424 -0.5914 -0.0624
14501TIP3   OH264917   0.697   6.129  14.137  0.3269  0.1990  0.4688
14501TIP3    H164918   0.791   6.113  14.130  0.3339  0.1860  0.5803
14501TIP3    H264919   0.666   6.065  14.200 -0.1820 -1.3476 -1.3199
14502TIP3   OH264920   5.765   5.269   1.327  0.0774  0.2927 -0.6561
14502TIP3    H164921   5.679   5.228   1.318  0.3674 -0.2472 -0.9564
14502TIP3    H264922   5.761   5.347   1.271 -0.3372  0.4573 -0.3938
14503TIP3   OH264923   2.345   0.787  13.070 -0.5380 -0.7345  0.2116
14503TIP3    H164924   2.280   0.840  13.024  0.3210 -0.7659 -1.0874
14503TIP3    H264925   2.319   0.697  13.052  0.4465 -0.7615 -1.2383
14504TIP3   OH264926   6.730   1.576   3.234  0.0553  0.3440  0.2683
14504TIP3    H164927   6.644   1.564   3.275 -0.2785  0.6575 -0.3416
14504TIP3    H264928   6.716   1.641   3.166  0.6995  0.1163 -0.0887
14505TIP3   OH264929   2.327   0.553   0.508  0.2926  0.0644 -0.2801
14505TIP3    H164930   2.242   0.594   0.492 -0.5385 -1.1076  1.0681
14505TIP3    H264931   2.311   0.460   0.493  1.3343 -0.1655  0.0253
14506TIP3   OH264932   0.545   0.294  16.356 -0.1055  0.2041 -0.5333
14506TIP3    H164933   0.621   0.239  16.374 -0.4615  0.5244  2.1881
14506TIP3    H264934   0.551   0.314  16.263  2.7413 -0.3744 -0.5092
14507TIP3   OH264935   3.569   1.126  16.827  0.0564 -0.1411  0.6795
14507TIP3    H164936   3.615   1.048  16.857 -0.6526 -0.0274  2.1036
14507TIP3    H264937   3.507   1.094  16.761 -0.1179 -0.7493  1.1395
14508TIP3   OH264938   0.214   1.366   1.201 -0.2731  0.8628  0.1996
14508TIP3    H164939   0.289   1.397   1.150 -0.0809  1.3558  0.7811
14508TIP3    H264940   0.253   1.333   1.282 -0.4773 -0.7966 -0.3405
14509TIP3   OH264941   2.346   1.455  16.652 -0.1664 -0.3600  0.2792
14509TIP3    H164942   2.381   1.366  16.650  0.8778  0.0451 -0.3234
14509TIP3    H264943   2.355   1.482  16.744 -1.4185 -1.2202  0.6621
14510TIP3   OH264944   2.462   0.505   4.282 -0.1106  0.3053 -0.1327
14510TIP3    H164945   2.403   0.568   4.323 -0.0004  0.2016  0.1885
14510TIP3    H264946   2.419   0.421   4.292  0.8437 -0.0018  1.5705
14511TIP3   OH264947   1.647   0.214  14.066  0.6247  0.1036 -0.3691
14511TIP3    H164948   1.582   0.157  14.025  1.5908  0.1343 -1.9876
14511TIP3    H264949   1.597   0.290  14.095 -0.5302 -1.1971  1.0571
14512TIP3   OH264950   3.594   6.469  16.206  0.4294 -0.2523  0.2829
14512TIP3    H164951   3.648   6.426  16.272  2.1648 -1.4950 -1.8804
14512TIP3    H264952   3.564   6.398  16.150 -3.1158  0.4525  1.1048
14513TIP3   OH264953   5.129   3.448   3.572 -0.0401  0.4598  0.2790
14513TIP3    H164954   5.067   3.519   3.591 -0.6876  0.0467 -0.2716
14513TIP3    H264955   5.176   3.434   3.654 -1.5379 -0.0516  1.0590
14514TIP3   OH264956   6.475   1.438   1.318 -0.8301 -0.0408  0.0008
14514TIP3    H164957   6.439   1.525   1.299  0.6713  0.5815 -0.0075
14514TIP3    H264958   6.532   1.418   1.243  1.7379  0.5714  1.7405
14515TIP3   OH264959   0.612   1.753   6.391  0.1541  0.5853  0.5508
14515TIP3    H164960   0.689   1.697   6.389  1.5721  2.4082  1.7755
14515TIP3    H264961   0.571   1.735   6.476  0.1930  0.8388  0.6257
14516TIP3   OH264962   4.979   4.193   5.581  0.0692 -0.4419  0.2149
14516TIP3    H164963   4.934   4.137   5.517  0.2338 -1.2484  0.8019
14516TIP3    H264964   5.052   4.231   5.532  1.7238 -3.0787  0.5939
14517TIP3   OH264965   1.542   4.803  14.998  0.1490 -0.8850  0.0278
14517TIP3    H164966   1.458   4.843  15.022 -0.1691 -0.2691 -1.9720
14517TIP3    H264967   1.607   4.870  15.019 -0.0538 -0.6167 -0.1879
14518TIP3   OH264968   3.453   4.271  14.334  0.0068  0.0836  0.4195
14518TIP3    H164969   3.394   4.218  14.388  0.8682  0.5343  1.8569
14518TIP3    H264970   3.435   4.361  14.360  1.6834  0.1920  1.2891
14519TIP3   OH264971   6.214   1.290  12.916  0.3833  0.5019  1.1130
14519TIP3    H164972   6.138   1.269  12.861  0.5651  1.5843  0.4291
14519TIP3    H264973   6.191   1.257  13.003 -0.2925 -0.4097  0.5915
14520TIP3   OH264974   2.009   0.996  16.960  0.0052  0.3952  0.3412
14520TIP3    H164975   2.039   0.934  16.893  2.3961  2.1476 -0.2725
14520TIP3    H264976   1.977   0.941  17.031  1.4089 -1.5325 -0.4805
14521TIP3   OH264977   3.981   3.566  13.242  0.6708 -0.1020  0.0602
14521TIP3    H164978   4.008   3.493  13.185  0.1548  0.0502 -0.3855
14521TIP3    H264979   4.063   3.604  13.273  0.9836  0.5209 -1.4914
14522TIP3   OH264980   5.229   5.562   5.200 -0.5079  0.2610 -0.8324
14522TIP3    H164981   5.312   5.568   5.246  1.8401 -0.1718 -4.7566
14522TIP3    H264982   5.217   5.469   5.183 -2.4759  0.1860  0.7929
14523TIP3   OH264983   4.752   6.073  16.679  0.1317  0.0576  0.2428
14523TIP3    H164984   4.815   6.144  16.669  1.0331 -0.8859 -0.8355
14523TIP3    H264985   4.669   6.111  16.650  0.6297  0.6370 -0.4364
14524TIP3   OH264986   5.356   1.507   0.423 -0.5498 -0.1235  0.3672
14524TIP3    H164987   5.313   1.497   0.508 -0.1922  0.8222  0.6643
14524TIP3    H264988   5.342   1.423   0.379 -0.9785 -0.5182  1.2458
14525TIP3   OH264989   0.242   2.617  12.975  0.2109 -0.5141 -0.0415
14525TIP3    H164990   0.275   2.654  13.057  1.9945  0.8489 -1.3566
14525TIP3    H264991   0.239   2.523  12.992  1.2075 -0.3182  1.3678
14526TIP3   OH264992   2.945   1.212  11.331  0.5238 -0.4629  0.5800
14526TIP3    H164993   2.921   1.134  11.281  0.6399 -0.3227  0.3083
14526TIP3    H264994   2.925   1.189  11.422 -2.0200  0.1513  0.2150
14527TIP3   OH264995   6.128   1.899  16.818  0.1161 -0.0772  0.9623
14527TIP3    H164996   6.177   1.877  16.897 -0.3425 -1.3553  0.8950
14527TIP3    H264997   6.183   1.868  16.746  0.3356  0.6983  0.7949
14528TIP3   OH264998   2.149   5.609   3.030  0.3587  0.2006  0.0643
14528TIP3    H164999   2.165   5.526   2.986  1.2251  0.3271  0.1311
14528TIP3    H265000   2.128   5.586   3.120 -1.3509 -0.0555 -0.3848
14529TIP3   OH265001   4.342   2.399   4.865  0.6344  0.1845  0.8347
14529TIP3    H165002   4.374   2.349   4.790  0.2818 -0.0392  0.8319
14529TIP3    H265003   4.330   2.333   4.934  0.6507  0.3418  0.9883
14530TIP3   OH265004   3.691   5.863  14.734  0.1056 -0.3316 -0.0140
14530TIP3    H165005   3.683   5.787  14.792 -1.3764  0.8597  1.3660
14530TIP3    H265006   3.779   5.896  14.751 -1.0263  1.2638  3.1851
14531TIP3   OH265007   5.938   2.036  13.572  0.7560 -0.4468  0.4025
14531TIP3    H165008   5.948   2.129  13.592  0.1691 -0.9337  3.1480
14531TIP3    H265009   5.873   2.004  13.635  0.3974 -2.5749 -0.9764
14532TIP3   OH265010   0.919   4.667   3.489 -0.3697 -0.2847 -0.5017
14532TIP3    H165011   0.824   4.672   3.476 -0.1843  1.0968 -1.4057
14532TIP3    H265012   0.931   4.688   3.582 -0.9695 -0.9505 -0.2609
14533TIP3   OH265013   0.811   6.661   1.013 -0.3941  0.7555 -0.1047
14533TIP3    H165014   0.776   6.699   0.932 -2.1650  1.1237  0.8084
14533TIP3    H265015   0.746   6.683   1.080 -0.8143 -2.7167  0.7162
14534TIP3   OH265016   1.630   3.020  12.545  0.3603  0.0135  0.2478
14534TIP3    H165017   1.674   2.935  12.552 -1.1592 -0.7279  1.3118
14534TIP3    H265018   1.555   3.003  12.488  1.4635  1.2830 -1.6408
14535TIP3   OH265019   3.085   1.980   6.291  0.4219  0.0591 -0.2254
14535TIP3    H165020   3.082   1.888   6.317  3.2198 -0.0576 -0.1736
14535TIP3    H265021   3.144   2.021   6.354 -0.5770  1.8510 -0.4196
14536TIP3   OH265022   1.706   5.069  11.026 -0.1100 -0.0335 -0.3474
14536TIP3    H165023   1.727   5.049  10.935  0.3620  1.2217 -0.5298
14536TIP3    H265024   1.760   5.145  11.047  0.6248 -0.9738  1.3316
14537TIP3   OH265025   5.991   3.557   0.040 -1.0393  0.3939  0.9727
14537TIP3    H165026   5.898   3.551   0.019 -1.0074  0.6235  0.7620
14537TIP3    H265027   6.028   3.474   0.009 -0.6188  1.5842 -1.8373
14538TIP3   OH265028   3.391   6.233  14.905 -0.3068 -0.3572  0.0648
14538TIP3    H165029   3.439   6.177  14.844 -1.0344 -0.5464 -0.3342
14538TIP3    H265030   3.427   6.210  14.991  1.1783  0.3707 -0.3322
14539TIP3   OH265031   1.405   0.842   3.101  0.4992 -0.1716 -0.1477
14539TIP3    H165032   1.454   0.916   3.135  0.0042  0.3647 -0.5986
14539TIP3    H265033   1.313   0.869   3.108  0.3824 -0.1441 -1.7082
14540TIP3   OH265034   2.293   5.179   6.554  0.4571 -0.7143  0.5788
14540TIP3    H165035   2.351   5.120   6.506  0.1064  0.1535 -0.9579
14540TIP3    H265036   2.351   5.224   6.616  2.0455  2.0800 -2.7241
14541TIP3   OH265037   2.715   0.801   3.849  0.1473  0.3397  0.3920
14541TIP3    H165038   2.724   0.865   3.779  0.4571  0.1695  0.2745
14541TIP3    H265039   2.803   0.793   3.886  0.4248 -1.0863 -0.5315
14542TIP3   OH265040   3.695   6.005  14.367 -0.1210  0.0656 -0.0609
14542TIP3    H165041   3.708   6.094  14.399  0.0945  0.2238 -0.5932
14542TIP3    H265042   3.752   5.951  14.421 -0.0759  0.2784  0.1040
14543TIP3   OH265043   1.371   4.975  11.890  0.3386  0.5568  0.0888
14543TIP3    H165044   1.276   4.964  11.897  0.4352 -0.1756  0.2735
14543TIP3    H265045   1.382   5.047  11.828 -0.3495  1.1162  0.6050
14544TIP3   OH265046   1.974   5.590  14.671  0.3513  0.2174 -0.1129
14544TIP3    H165047   1.983   5.574  14.577  2.9611  0.2030  0.0917
14544TIP3    H265048   2.005   5.509  14.712 -0.1535  0.4690  0.7756
14545TIP3   OH265049   3.069   1.718  13.637 -0.2560 -0.7584 -0.0115
14545TIP3    H165050   3.039   1.802  13.674  0.1384 -0.3738 -0.5540
14545TIP3    H265051   3.127   1.682  13.704 -0.7569 -0.7956  0.4029
14546TIP3   OH265052   1.108   0.715  10.600  0.7228 -0.2051  0.3538
14546TIP3    H165053   1.069   0.667  10.673 -1.2139  0.0710 -0.4857
14546TIP3    H265054   1.036   0.765  10.563  2.0432  0.9090 -0.7591
14547TIP3   OH265055   0.009   4.147   4.605 -0.4915  0.6455 -0.4133
14547TIP3    H165056  -0.002   4.239   4.629  0.2155  1.5045 -3.1818
14547TIP3    H265057  -0.034   4.139   4.520 -1.3688 -1.8247  0.2276
14548TIP3   OH265058   6.664   3.250  15.798  0.4011 -0.3977 -0.1408
14548TIP3    H165059   6.589   3.277  15.746  0.8146 -0.6090 -0.8459
14548TIP3    H265060   6.660   3.306  15.876  1.0106  1.4115 -1.3915
14549TIP3   OH265061   4.546   3.697   2.162  0.1584 -0.6005 -0.0415
14549TIP3    H165062   4.537   3.618   2.215 -0.4601 -0.1849  0.4796
14549TIP3    H265063   4.603   3.671   2.089 -0.2250 -1.5853  0.0076
14550TIP3   OH265064   6.320   1.225  15.300  0.0012  0.1541 -0.6322
14550TIP3    H165065   6.366   1.258  15.377 -0.4038 -1.2092  0.2190
14550TIP3    H265066   6.232   1.263  15.307 -0.0230  0.0626 -0.4328
14551TIP3   OH265067   4.192   2.599  11.810 -0.0947 -0.5818 -0.6330
14551TIP3    H165068   4.110   2.557  11.837  0.8194 -1.7558  0.3792
14551TIP3    H265069   4.174   2.693  11.815 -1.1832 -0.8243  0.1883
14552TIP3   OH265070   3.852   2.652   0.556 -0.3335  0.2805  0.9819
14552TIP3    H165071   3.832   2.613   0.471 -2.1739  0.2766  1.3958
14552TIP3    H265072   3.895   2.581   0.604 -3.3161 -1.2143  1.5894
14553TIP3   OH265073   3.734   3.097   2.762 -0.8893 -0.6056 -0.1603
14553TIP3    H165074   3.787   3.164   2.718  0.5791 -0.6353  1.4892
14553TIP3    H265075   3.716   3.134   2.848 -2.2811 -1.2482 -0.1684
14554TIP3   OH265076   2.990   4.944  16.671 -0.2628 -0.1432 -0.3774
14554TIP3    H165077   2.999   5.038  16.690 -2.7373  0.1081 -0.2871
14554TIP3    H265078   2.950   4.941  16.584  1.2467 -1.1623 -1.0616
14555TIP3   OH265079   1.820   2.418   0.928  0.0267  0.4456  0.1551
14555TIP3    H165080   1.779   2.467   0.999  1.4511 -0.3994  1.5738
14555TIP3    H265081   1.902   2.386   0.964  1.1327  0.6073 -2.0956
14556TIP3   OH265082   2.456   3.043  11.722 -0.1264  0.2855  0.1904
14556TIP3    H165083   2.530   3.080  11.674 -0.6105 -0.2032 -0.9493
14556TIP3    H265084   2.416   2.983  11.660  0.7228 -2.2715  2.0417
14557TIP3   OH265085   0.362   4.176   4.174 -0.0293 -0.0318  0.3810
14557TIP3    H165086   0.290   4.221   4.217  1.2765  2.1591  0.3631
14557TIP3    H265087   0.322   4.100   4.130 -2.2627  1.0730  0.4841
14558TIP3   OH265088   6.162   3.951  15.930  0.2529  0.3060 -0.4369
14558TIP3    H165089   6.142   3.883  15.995  2.1289  0.3807  0.2701
14558TIP3    H265090   6.147   3.909  15.846  0.8453 -0.8356  0.0055
14559TIP3   OH265091   6.077   6.535   4.158  0.3321 -0.4421  0.0820
14559TIP3    H165092   6.065   6.440   4.157  1.5500 -0.6471  1.7865
14559TIP3    H265093   6.002   6.568   4.208  0.5307 -0.6132  0.4907
14560TIP3   OH265094   6.705   3.225   0.298  0.3033  0.4707 -0.2806
14560TIP3    H165095   6.742   3.183   0.220  1.2804 -0.0467  0.4510
14560TIP3    H265096   6.637   3.284   0.263  2.2002  1.8751 -1.6979
14561TIP3   OH265097   0.440   0.799  13.464 -0.1942  0.5268 -0.7377
14561TIP3    H165098   0.441   0.705  13.480  0.7413  0.3487 -1.7460
14561TIP3    H265099   0.451   0.839  13.551 -1.1975 -0.2775 -0.2445
14562TIP3   OH265100   4.836   0.960  12.350  0.3103 -0.4902  0.0014
14562TIP3    H165101   4.911   0.926  12.301 -0.5077 -2.5644  0.1578
14562TIP3    H265102   4.849   0.930  12.439  0.0732  0.4441  0.3556
14563TIP3   OH265103   1.778   2.199  16.654 -0.9121 -0.0287 -0.8372
14563TIP3    H165104   1.835   2.134  16.613  0.0082 -0.6005  1.2849
14563TIP3    H265105   1.812   2.283  16.624  0.2148 -0.4161 -0.6799
14564TIP3   OH265106   4.469   3.839  16.463 -0.2615  0.0735 -0.2882
14564TIP3    H165107   4.504   3.921  16.497 -0.0617 -0.4369  0.7833
14564TIP3    H265108   4.374   3.849  16.470 -0.2254 -1.0386  3.0683
14565TIP3   OH265109   6.191   0.417   4.015  0.1348  0.2940 -0.5941
14565TIP3    H165110   6.111   0.370   3.990  0.8142 -0.8843 -0.6178
14565TIP3    H265111   6.227   0.365   4.087  1.0030  0.6761 -0.7519
14566TIP3   OH265112   0.823   5.912  12.933  0.2705 -0.1177  0.0200
14566TIP3    H165113   0.866   5.852  12.872 -1.5375  0.9468 -2.3667
14566TIP3    H265114   0.756   5.858  12.977  1.3329 -0.7951  0.8344
14567TIP3   OH265115   0.601   4.468   2.454  0.4753 -0.1487  0.1693
14567TIP3    H165116   0.561   4.382   2.466  1.5403 -0.8678 -1.3261
14567TIP3    H265117   0.684   4.463   2.502  0.7793 -0.1424 -0.3532
14568TIP3   OH265118   2.514   0.717   3.589  0.0066 -0.3289 -0.2594
14568TIP3    H165119   2.531   0.624   3.577 -0.6754 -0.6800  1.3428
14568TIP3    H265120   2.510   0.729   3.684 -0.6193  1.2053 -0.4534
14569TIP3   OH265121   0.814   0.019  13.974  0.1723  0.0787  0.1205
14569TIP3    H165122   0.787  -0.059  14.024  1.1079 -0.5778 -0.3896
14569TIP3    H265123   0.849  -0.016  13.893 -1.9134  1.1661 -1.3070
14570TIP3   OH265124   4.954   0.871   5.608 -0.8456  0.5327 -0.2493
14570TIP3    H165125   4.929   0.866   5.701  0.0746 -1.2522 -0.0794
14570TIP3    H265126   4.917   0.792   5.570  3.5261 -1.6453 -0.2298
14571TIP3   OH265127   1.482   1.584   0.958 -0.7415 -0.0246  0.0855
14571TIP3    H165128   1.430   1.630   0.892  0.6874  0.2608 -0.8618
14571TIP3    H265129   1.514   1.652   1.016 -1.4226 -0.2016  0.6752
14572TIP3   OH265130   1.483   2.108  15.923 -0.0182  0.9167  0.0693
14572TIP3    H165131   1.395   2.102  15.959  0.4579  3.3398  1.7667
14572TIP3    H265132   1.472   2.094  15.829 -2.2084  1.2279  0.2670
14573TIP3   OH265133   5.333   5.746  13.149 -0.9536  0.2679 -0.3118
14573TIP3    H165134   5.370   5.826  13.187 -1.0269 -0.3348  1.0418
14573TIP3    H265135   5.404   5.709  13.097 -0.6383  0.7464 -0.2283
14574TIP3   OH265136   4.270   6.568  17.187 -0.9813 -0.2161 -0.1061
14574TIP3    H165137   4.340   6.573  17.121 -0.2591 -2.1461  0.4983
14574TIP3    H265138   4.194   6.606  17.143 -0.2075 -0.3702 -1.6400
14575TIP3   OH265139   5.796   0.322   1.964  0.3591  0.3270 -0.3549
14575TIP3    H165140   5.718   0.331   2.019  0.8347  2.9245 -0.0600
14575TIP3    H265141   5.764   0.335   1.875 -0.1817 -2.5597 -0.6336
14576TIP3   OH265142   6.373   5.750  14.187  0.1174 -0.3023 -0.1176
14576TIP3    H165143   6.359   5.816  14.255  0.5373 -0.7933  0.4469
14576TIP3    H265144   6.459   5.713  14.206  0.3328 -0.3004 -1.0393
14577TIP3   OH265145   0.944   6.707   0.101 -0.4330  0.2525  0.3381
14577TIP3    H165146   0.853   6.679   0.095 -0.7126  1.3663 -0.6123
14577TIP3    H265147   0.941   6.790   0.148 -0.0757  1.1690 -1.2489
14578TIP3   OH265148   4.585   0.196   0.457 -0.0527 -0.1508 -0.1386
14578TIP3    H165149   4.493   0.208   0.482 -0.0989  0.5820 -0.6550
14578TIP3    H265150   4.606   0.108   0.488 -1.2018 -0.6992 -0.8695
14579TIP3   OH265151   2.211   3.723  16.368  0.1337 -0.0941 -0.3399
14579TIP3    H165152   2.256   3.803  16.395  1.5473 -0.7330 -0.7227
14579TIP3    H265153   2.189   3.738  16.276 -2.0568  0.9182  0.3146
14580TIP3   OH265154   2.742   3.270  14.145 -0.6165 -0.1182  0.1258
14580TIP3    H165155   2.690   3.261  14.066 -0.9818 -1.0820  0.4573
14580TIP3    H265156   2.678   3.290  14.214 -0.2224  1.3887  0.0566
14581TIP3   OH265157   5.449   5.240  13.568 -0.3091 -0.1560 -0.0834
14581TIP3    H165158   5.379   5.267  13.627  0.7809 -1.1617  1.7176
14581TIP3    H265159   5.504   5.317  13.558  0.4483 -0.4579  1.6191
14582TIP3   OH265160   3.949   3.902   6.424  0.1038  0.9391  0.0455
14582TIP3    H165161   3.866   3.858   6.443  0.8313 -0.5592 -0.1708
14582TIP3    H265162   4.010   3.831   6.408  1.2663  2.0552 -0.5145
14583TIP3   OH265163   4.012   3.827   2.425  0.0872  0.5415 -0.8307
14583TIP3    H165164   4.101   3.797   2.402  0.4926  2.4476 -1.8142
14583TIP3    H265165   4.022   3.871   2.509 -0.2787 -0.8647 -0.0298
14584TIP3   OH265166   3.802   4.475   2.228 -0.0372 -0.2151 -0.5588
14584TIP3    H165167   3.854   4.457   2.150  0.5062 -0.3222 -0.1715
14584TIP3    H265168   3.722   4.424   2.215  0.2082 -0.5270 -0.8780
14585TIP3   OH265169   2.469   0.966  15.311 -0.0315  0.2065 -0.0039
14585TIP3    H165170   2.517   0.915  15.246  1.1473  0.2367  0.8322
14585TIP3    H265171   2.432   1.039  15.262  0.8732  0.2514 -0.6352
14586TIP3   OH265172   0.398   4.925   0.658 -0.0588  0.3750  0.0482
14586TIP3    H165173   0.476   4.975   0.635 -0.9755  1.4552 -0.7241
14586TIP3    H265174   0.387   4.863   0.586 -1.0647  1.5821 -0.8539
14587TIP3   OH265175   3.453   3.050  11.564 -0.1880  0.3894  0.0299
14587TIP3    H165176   3.472   3.142  11.545  0.0926  0.3583  0.1554
14587TIP3    H265177   3.367   3.051  11.606 -0.8237  0.4623 -1.2456
14588TIP3   OH265178   1.593   2.309   2.071  0.8361 -0.8770 -0.3386
14588TIP3    H165179   1.552   2.356   1.999 -0.1189 -1.6053 -0.2821
14588TIP3    H265180   1.659   2.369   2.105  1.6090 -0.6771 -2.0998
14589TIP3   OH265181   0.514   2.247  14.546 -0.3135  0.1599  0.3773
14589TIP3    H165182   0.604   2.276  14.534  1.1324 -3.3816  2.0255
14589TIP3    H265183   0.478   2.244  14.457  2.1164 -1.1851 -0.6061
14590TIP3   OH265184   4.507   3.005   3.316  0.7787  0.1438  0.0626
14590TIP3    H165185   4.574   3.008   3.384 -1.0158  0.5307  1.8391
14590TIP3    H265186   4.482   2.912   3.311  0.8145  0.1367  0.0051
14591TIP3   OH265187   4.965   3.402  11.342 -0.0777 -0.2953  0.0763
14591TIP3    H165188   4.943   3.435  11.255  0.3297  2.3789  0.9353
14591TIP3    H265189   4.904   3.331  11.357 -0.4711 -0.4862 -2.1987
14592TIP3   OH265190   5.645   3.492  12.394  0.2577  0.4009  0.3475
14592TIP3    H165191   5.632   3.585  12.376  1.7983  1.0662  2.4449
14592TIP3    H265192   5.713   3.465  12.331 -0.5953  0.5389 -0.6448
14593TIP3   OH265193   0.810   5.992   2.428  0.3105  0.2489 -0.3145
14593TIP3    H165194   0.802   5.981   2.333 -0.8272  0.2371 -0.2255
14593TIP3    H265195   0.759   6.070   2.448  0.0741 -0.0723  0.3586
14594TIP3   OH265196   3.887   0.665  16.368  0.8304  0.5957 -0.3427
14594TIP3    H165197   3.916   0.575  16.353  0.5212  0.2380  1.0959
14594TIP3    H265198   3.932   0.716  16.301  0.6183 -0.6980 -1.4927
14595TIP3   OH265199   4.323   1.332   3.229 -0.4279 -0.3286  0.3211
14595TIP3    H165200   4.418   1.319   3.231 -0.2807  0.5548 -0.6052
14595TIP3    H265201   4.292   1.270   3.163 -0.3126  0.4108 -0.4417
14596TIP3   OH265202   2.675   5.584   4.609  0.5775 -0.1593  0.4609
14596TIP3    H165203   2.658   5.490   4.604  1.9440 -0.3955  0.1125
14596TIP3    H265204   2.596   5.621   4.648 -0.0943 -1.4136  0.3031
14597TIP3   OH265205   6.448   4.654   6.503  0.1512 -0.1295  0.0857
14597TIP3    H165206   6.475   4.697   6.583 -0.9457  1.8844 -0.6000
14597TIP3    H265207   6.427   4.565   6.530  0.5981  0.2798  1.8666
14598TIP3   OH265208   3.847   0.915  15.655  0.0400  0.3122 -0.8598
14598TIP3    H165209   3.891   0.997  15.634  0.0541  0.0808 -1.7324
14598TIP3    H265210   3.848   0.865  15.574  0.2687 -0.6659 -0.2687
14599TIP3   OH265211   2.300   3.974   2.324 -0.1441 -0.3525 -0.1934
14599TIP3    H165212   2.280   4.001   2.414 -1.4710 -0.3420 -0.4859
14599TIP3    H265213   2.341   3.887   2.334 -0.7498 -0.5758  0.3836
14600TIP3   OH265214   5.951   2.963  14.669 -0.0456  0.6774 -0.2074
14600TIP3    H165215   5.972   3.040  14.722  1.3778 -0.7128  1.3177
14600TIP3    H265216   5.887   2.994  14.605 -1.1616  2.5875  1.7906
14601TIP3   OH265217   0.682   1.684   1.409 -0.4017 -0.1525  0.4168
14601TIP3    H165218   0.655   1.688   1.317 -0.7296  2.3820  0.5957
14601TIP3    H265219   0.655   1.597   1.438  0.0087 -1.1216 -1.9586
14602TIP3   OH265220   5.667   5.147   3.229  0.3998 -0.3896 -0.4074
14602TIP3    H165221   5.700   5.153   3.318  0.0158 -0.6327 -0.2473
14602TIP3    H265222   5.721   5.079   3.188 -0.1658 -1.0771 -0.0254
14603TIP3   OH265223   0.229   1.993   0.517  0.1238  0.1125 -0.0017
14603TIP3    H165224   0.134   2.006   0.513  0.1204  0.5479  1.4352
14603TIP3    H265225   0.240   1.907   0.556  0.3022 -0.6375 -1.6794
14604TIP3   OH265226   3.656   2.129  15.880  0.1251 -0.4536 -0.2754
14604TIP3    H165227   3.642   2.040  15.848  1.8446 -0.8419 -0.0253
14604TIP3    H265228   3.708   2.171  15.811 -0.3534  0.2468 -0.2189
14605TIP3   OH265229   3.650   1.830  14.883  0.1051 -0.6851 -0.1029
14605TIP3    H165230   3.596   1.818  14.961 -0.4033  0.0819 -0.3304
14605TIP3    H265231   3.648   1.744  14.840 -0.6966 -0.7505  0.0439
14606TIP3   OH265232   4.251   0.466   1.675 -0.3473  0.4782  0.3922
14606TIP3    H165233   4.232   0.377   1.644 -1.8400  0.7530  0.4892
14606TIP3    H265234   4.237   0.462   1.770 -4.2771  1.7323 -0.0480
14607TIP3   OH265235   2.408   1.962  12.656 -0.0232 -0.1221 -0.0974
14607TIP3    H165236   2.394   1.904  12.732 -1.1804  0.2774  0.0118
14607TIP3    H265237   2.366   2.044  12.681  2.5764  1.1532  0.1916
14608TIP3   OH265238   3.266   2.607   4.694  0.8270  0.0760 -0.7702
14608TIP3    H165239   3.195   2.611   4.758  2.1893 -0.2457  0.7753
14608TIP3    H265240   3.262   2.518   4.659 -0.6980  0.6238 -2.0721
14609TIP3   OH265241   0.679   3.578   2.707  0.1982  0.5520  0.1971
14609TIP3    H165242   0.758   3.610   2.664 -1.7693  0.8426 -3.2903
14609TIP3    H265243   0.704   3.492   2.741  1.9239  0.5367 -1.0748
14610TIP3   OH265244   0.499   3.965  11.524 -0.0716  0.0106 -0.7538
14610TIP3    H165245   0.524   4.044  11.572  0.4029 -0.6280  0.0517
14610TIP3    H265246   0.409   3.948  11.551 -0.6962  1.1052 -2.0510
14611TIP3   OH265247   6.235   3.135   4.230  0.4015 -0.4014 -0.0467
14611TIP3    H165248   6.314   3.175   4.265  0.4998 -1.3491  0.8427
14611TIP3    H265249   6.249   3.130   4.136  0.8273  0.6668 -0.0410
14612TIP3   OH265250   1.883   5.498   0.834 -0.1119 -0.1774 -0.1615
14612TIP3    H165251   1.842   5.581   0.860 -1.2989 -0.4361 -1.1949
14612TIP3    H265252   1.957   5.525   0.780  0.5716  0.2594  0.9630
14613TIP3   OH265253   1.799   5.593  12.763 -0.1626 -0.8232  0.0788
14613TIP3    H165254   1.821   5.686  12.763 -1.6482 -0.4428 -0.2101
14613TIP3    H265255   1.858   5.555  12.698 -0.6838  0.2407 -1.0641
14614TIP3   OH265256   4.411   6.167   2.233 -0.4587 -0.0883 -0.2468
14614TIP3    H165257   4.417   6.158   2.137 -1.5655 -0.6126 -0.2647
14614TIP3    H265258   4.503   6.169   2.262 -0.1016  0.8856 -1.3898
14615TIP3   OH265259   4.427   3.967  16.134 -0.0080 -0.3487  0.1460
14615TIP3    H165260   4.339   3.933  16.121 -0.5674  0.9418  0.4246
14615TIP3    H265261   4.417   4.036  16.200  0.9910  0.6544 -0.7096
14616TIP3   OH265262   6.419   1.588  15.056 -0.8127 -0.7831  0.0023
14616TIP3    H165263   6.472   1.666  15.073 -1.4335  0.0531 -1.6966
14616TIP3    H265264   6.452   1.522  15.116  2.4443 -0.4207 -1.2829
14617TIP3   OH265265   2.405   4.042  16.127  1.0642 -0.2963  0.0756
14617TIP3    H165266   2.310   4.052  16.123  0.9948 -1.1211 -0.6053
14617TIP3    H265267   2.435   4.066  16.039  1.2262 -2.5471 -0.5101
14618TIP3   OH265268   0.408   1.003   4.207 -0.5290  0.1701  0.3609
14618TIP3    H165269   0.477   0.966   4.262  0.9353  1.7723 -0.3242
14618TIP3    H265270   0.394   1.091   4.244 -0.6407  0.6594 -0.8303
14619TIP3   OH265271   2.580   5.529  11.331  0.3639 -0.1272  0.2545
14619TIP3    H165272   2.567   5.487  11.246  0.4001  0.0167  0.1775
14619TIP3    H265273   2.664   5.575  11.323 -0.0122  0.5413  0.1001
14620TIP3   OH265274   2.481   5.600  12.855  0.2097  0.3061  0.1617
14620TIP3    H165275   2.439   5.570  12.936  1.9163  0.8752  1.2954
14620TIP3    H265276   2.568   5.559  12.858  1.3795  2.6951  0.1146
14621TIP3   OH265277   5.474   6.453  16.736  0.7522 -0.4404 -0.0176
14621TIP3    H165278   5.466   6.439  16.641  1.1734  1.0777 -0.2976
14621TIP3    H265279   5.560   6.493  16.747  0.1289  0.6950  0.8397
14622TIP3   OH265280   5.840   6.446   2.766  0.1030  0.4841 -0.0690
14622TIP3    H165281   5.888   6.460   2.848 -0.2805 -0.7055  0.3592
14622TIP3    H265282   5.770   6.385   2.789 -0.3961  0.6459 -1.1425
14623TIP3   OH265283   0.809   5.134   3.920  0.2534 -0.2565  0.0301
14623TIP3    H165284   0.757   5.083   3.981  0.2861  0.0734  0.3313
14623TIP3    H265285   0.787   5.098   3.834 -0.9965  0.3460  0.0945
14624TIP3   OH265286   1.437   6.580   0.151 -0.4489  0.2882 -0.0597
14624TIP3    H165287   1.465   6.489   0.142  0.6505  0.6373 -0.3185
14624TIP3    H265288   1.342   6.576   0.159 -0.4423 -0.8493 -0.5039
14625TIP3   OH265289   0.764   1.370  11.640 -0.1838  0.1064 -0.2372
14625TIP3    H165290   0.670   1.379  11.658 -0.1657 -2.0176  1.0842
14625TIP3    H265291   0.804   1.446  11.681 -1.0764 -0.2797  1.3932
14626TIP3   OH265292   5.335   4.578   0.553 -0.1520  1.0123 -0.1117
14626TIP3    H165293   5.431   4.582   0.554 -0.1771  2.6097  2.8269
14626TIP3    H265294   5.308   4.639   0.622 -3.0478 -4.0851  3.6368
14627TIP3   OH265295   1.718   4.135  16.230  0.1151  0.4246 -0.0502
14627TIP3    H165296   1.745   4.160  16.318 -1.1412  0.1271  0.4384
14627TIP3    H265297   1.628   4.103  16.241 -0.6040  1.8165 -1.6675
14628TIP3   OH265298   0.153   2.700  16.554  0.0995  0.1788  0.4025
14628TIP3    H165299   0.095   2.762  16.598  2.0505  1.9578  0.5452
14628TIP3    H265300   0.232   2.698  16.608  1.4566  0.3247 -1.5082
14629TIP3   OH265301   3.459   2.108  11.856 -0.3244 -0.0476  0.2041
14629TIP3    H165302   3.441   2.023  11.816  0.7711  0.5980 -1.6804
14629TIP3    H265303   3.517   2.088  11.929  1.0057 -0.7794 -1.0460
14630TIP3   OH265304   2.293   6.412  14.271 -0.4317  0.1122  0.1636
14630TIP3    H165305   2.328   6.500  14.255 -2.3738  0.9968  0.7271
14630TIP3    H265306   2.218   6.405  14.212 -0.9200 -0.7936  0.8848
14631TIP3   OH265307   5.743   0.133  14.661  0.1115 -0.4301  0.0560
14631TIP3    H165308   5.700   0.211  14.697 -2.8248 -2.5357  1.3455
14631TIP3    H265309   5.674   0.089  14.612  1.4627 -2.7223  0.1699
14632TIP3   OH265310   5.522   2.407   2.030 -1.0894 -0.2672  1.0333
14632TIP3    H165311   5.545   2.499   2.022  0.6095 -0.8148 -0.9283
14632TIP3    H265312   5.581   2.374   2.098 -1.4762  0.0184  1.5082
14633TIP3   OH265313   6.663   4.324   3.616 -0.6517  0.2445  0.2884
14633TIP3    H165314   6.725   4.254   3.637 -0.4697  0.6898  1.2904
14633TIP3    H265315   6.714   4.388   3.567 -0.7390 -0.1740 -0.3513
14634TIP3   OH265316   3.234   2.627  13.233  0.0118  0.1910 -0.2689
14634TIP3    H165317   3.279   2.572  13.297  1.3914  0.1927 -1.2191
14634TIP3    H265318   3.298   2.695  13.210  0.0340 -0.6005 -2.6622
14635TIP3   OH265319   5.331   0.186  16.045 -0.1539 -0.5340  0.1003
14635TIP3    H165320   5.249   0.139  16.059  0.5405 -1.5435  0.8861
14635TIP3    H265321   5.351   0.224  16.131 -0.4952  0.8582 -0.4325
14636TIP3   OH265322   2.842   5.000   5.867 -0.3814  0.1715 -0.3446
14636TIP3    H165323   2.763   4.950   5.888 -0.5858  0.8448  0.5219
14636TIP3    H265324   2.875   5.030   5.952  2.4576 -2.5598 -0.4108
14637TIP3   OH265325   1.870   5.598   1.624 -0.0046 -0.3719  0.0728
14637TIP3    H165326   1.870   5.694   1.620 -1.6250 -0.2317  2.3312
14637TIP3    H265327   1.957   5.573   1.593  0.2496  1.7899 -1.0847
14638TIP3   OH265328   3.295   3.255  16.751  0.4784 -0.1403 -0.1137
14638TIP3    H165329   3.358   3.276  16.682 -0.4341 -0.0692 -0.9285
14638TIP3    H265330   3.228   3.323  16.744 -0.3087 -0.8949 -0.0334
14639TIP3   OH265331   3.176   2.103  12.590  0.4934 -0.0834 -0.0345
14639TIP3    H165332   3.091   2.117  12.631 -0.0438 -0.5939 -0.9615
14639TIP3    H265333   3.160   2.113  12.496  1.5374  0.2193 -0.1901
14640TIP3   OH265334   4.023   4.465  11.932  0.3059  0.1866  0.0413
14640TIP3    H165335   3.947   4.416  11.963  0.1305  0.6076  0.2886
14640TIP3    H265336   4.061   4.503  12.012  1.7070 -1.3024  0.1228
14641TIP3   OH265337   4.929   0.761  13.202  0.2420  0.0224  0.1780
14641TIP3    H165338   5.007   0.709  13.221  0.5674  0.5038  0.1574
14641TIP3    H265339   4.879   0.707  13.140 -0.8063 -1.5419  2.3279
14642TIP3   OH265340   4.135   4.194   6.180  0.4404 -0.1601 -0.2516
14642TIP3    H165341   4.128   4.218   6.272  1.9178 -0.3997 -0.0695
14642TIP3    H265342   4.093   4.108   6.174 -0.2643  0.1570  0.0549
14643TIP3   OH265343   3.601   6.104   4.134 -0.1911 -0.1324  0.1121
14643TIP3    H165344   3.606   6.199   4.124  0.9642 -0.2069 -0.0007
14643TIP3    H265345   3.647   6.068   4.058 -2.1240 -0.8137 -0.7690
14644TIP3   OH265346   3.611   0.499  13.909  0.0753  0.2175 -0.4350
14644TIP3    H165347   3.588   0.419  13.861 -1.4389  1.2355 -1.4548
14644TIP3    H265348   3.561   0.492  13.991 -0.3293  0.2911 -0.6752
14645TIP3   OH265349   5.564   6.371   1.562  0.1964  0.2085 -0.0812
14645TIP3    H165350   5.471   6.379   1.581 -0.1162 -0.4778 -1.2912
14645TIP3    H265351   5.601   6.457   1.584 -0.8948  0.7978 -0.5277
14646TIP3   OH265352   2.595   6.476   2.759  0.9543  0.1388  0.1623
14646TIP3    H165353   2.590   6.488   2.664  0.7560 -0.7073  0.0599
14646TIP3    H265354   2.556   6.556   2.796 -1.1951 -0.5667 -0.5048
14647TIP3   OH265355   5.060   4.179  13.943 -0.2674 -0.4484  0.4873
14647TIP3    H165356   5.134   4.223  13.985  1.3842  0.1824 -2.9114
14647TIP3    H265357   5.077   4.086  13.955  2.0356 -0.3607 -1.7094
14648TIP3   OH265358   4.637   4.699   5.928  0.6570  0.3951  0.2956
14648TIP3    H165359   4.689   4.621   5.945  1.2113  0.4158 -1.2524
14648TIP3    H265360   4.689   4.771   5.962  1.3683  0.3501 -0.6704
14649TIP3   OH265361   4.506   2.125  12.621 -0.6101  0.0820 -0.0731
14649TIP3    H165362   4.436   2.100  12.681 -2.0853  1.6189 -1.1318
14649TIP3    H265363   4.567   2.175  12.676 -1.0933  0.0360  0.5113
14650TIP3   OH265364   2.589   4.552   0.989 -0.7052 -0.0278  0.1287
14650TIP3    H165365   2.538   4.477   0.960 -1.1133 -0.7396  2.5671
14650TIP3    H265366   2.540   4.588   1.063  1.4614  0.2612  1.4724
14651TIP3   OH265367   3.562   6.772   5.757  0.5403 -0.0849  0.0758
14651TIP3    H165368   3.573   6.709   5.829 -0.9740 -1.2799 -0.7016
14651TIP3    H265369   3.523   6.849   5.798 -1.9952 -1.4293  0.2735
14652TIP3   OH265370   4.603   5.306   5.567 -0.0383 -0.7036 -0.0243
14652TIP3    H165371   4.668   5.291   5.635  0.4527  0.2761 -0.2831
14652TIP3    H265372   4.520   5.278   5.607  0.3211 -0.5970  0.7930
14653TIP3   OH265373   1.418   2.891  15.695 -0.7672 -0.8647 -0.0645
14653TIP3    H165374   1.475   2.916  15.622 -2.6002  0.2663 -1.1585
14653TIP3    H265375   1.410   2.796  15.688 -0.3763 -0.8373 -0.9195
14654TIP3   OH265376   3.100   1.028  14.358 -0.0481 -0.4867 -0.2254
14654TIP3    H165377   3.030   1.014  14.421 -1.2516  2.1882 -0.8647
14654TIP3    H265378   3.055   1.043  14.275  1.2793  0.5932 -0.7755
14655TIP3   OH265379   0.814   5.760  15.581  0.3003  0.1161 -0.4861
14655TIP3    H165380   0.883   5.778  15.518  0.5782  0.5170 -0.0678
14655TIP3    H265381   0.859   5.748  15.665  0.0708 -1.8977 -0.6175
14656TIP3   OH265382   1.241   0.331  16.082 -0.1477 -0.3309 -0.8488
14656TIP3    H165383   1.172   0.374  16.031 -0.3927  0.5229  0.1757
14656TIP3    H265384   1.221   0.354  16.173  0.4696 -1.5630 -0.3967
14657TIP3   OH265385   2.686   5.409  13.677  0.3276  0.2583 -0.2392
14657TIP3    H165386   2.669   5.446  13.590  0.3136  0.5366 -0.1186
14657TIP3    H265387   2.706   5.485  13.732  1.2754 -0.0047 -0.2165
14658TIP3   OH265388   4.458   5.030  16.002 -0.4249 -0.0105  0.2927
14658TIP3    H165389   4.503   5.054  15.921  0.4257 -1.2121  0.3884
14658TIP3    H265390   4.488   5.094  16.066  1.3675 -0.9493  0.4156
14659TIP3   OH265391   2.242   3.354   4.273 -0.1438 -0.3267  0.1886
14659TIP3    H165392   2.237   3.287   4.341  0.6521 -0.5881 -0.0056
14659TIP3    H265393   2.225   3.308   4.191 -0.6288 -0.1015  0.1647
14660TIP3   OH265394   5.462   4.282   3.313  0.1672  0.1000  0.2807
14660TIP3    H165395   5.377   4.319   3.288  0.5661  0.6311 -0.3136
14660TIP3    H265396   5.449   4.252   3.403 -0.3636  1.1011  0.5487
14661TIP3   OH265397   6.682   4.022   5.611 -0.3329 -0.6570 -0.1801
14661TIP3    H165398   6.676   4.034   5.706  0.6738 -1.5217 -0.0072
14661TIP3    H265399   6.750   4.083   5.583 -0.5436 -0.4910 -0.3305
14662TIP3   OH265400   6.158   3.014   3.306 -1.2459 -0.4299  0.3088
14662TIP3    H165401   6.095   3.051   3.244 -1.2707 -0.1264  0.5188
14662TIP3    H265402   6.209   3.089   3.335  0.3425 -0.9042 -1.1611
14663TIP3   OH265403   4.678   0.433  13.960 -0.6083 -0.0372  0.2862
14663TIP3    H165404   4.664   0.454  14.052  0.1363 -0.1756  0.4333
14663TIP3    H265405   4.732   0.505  13.927 -1.4971  0.4060 -0.2321
14664TIP3   OH265406   4.696   6.614   1.853  0.5452  0.2862  0.4526
14664TIP3    H165407   4.757   6.665   1.908  2.0904 -1.1450  0.0897
14664TIP3    H265408   4.615   6.610   1.905  0.0733  3.8336  0.1208
14665TIP3   OH265409   6.597   3.641  12.479  0.3404 -0.1037  0.1231
14665TIP3    H165410   6.545   3.651  12.400 -1.6906  0.9194  1.5664
14665TIP3    H265411   6.685   3.668  12.454  0.3416 -2.2616 -2.4587
14666TIP3   OH265412   3.060   6.700  15.590 -0.4197 -0.1394 -0.2721
14666TIP3    H165413   2.968   6.726  15.597 -1.1504 -2.4922 -0.4534
14666TIP3    H265414   3.065   6.617  15.638  1.8078  0.3862  0.4811
14667TIP3   OH265415   5.202   3.482  13.776 -0.1126  0.2336  0.0490
14667TIP3    H165416   5.254   3.557  13.804 -0.6944  1.0905 -1.1581
14667TIP3    H265417   5.151   3.513  13.701 -2.7918 -0.4111  1.5153
14668TIP3   OH265418   1.096   2.161  12.985 -0.0669 -0.7768 -0.6763
14668TIP3    H165419   1.147   2.203  13.054 -1.8450  1.8198 -0.8675
14668TIP3    H265420   1.079   2.232  12.922 -3.4327 -1.6760 -0.8569
14669TIP3   OH265421   4.579   6.438  12.622  0.0065 -0.2212 -0.3037
14669TIP3    H165422   4.626   6.476  12.548  0.1692  1.1812  0.4975
14669TIP3    H265423   4.498   6.405  12.584 -0.3595  1.3779 -0.9509
14670TIP3   OH265424   4.278   0.584   4.595 -0.0033  0.1874 -0.1660
14670TIP3    H165425   4.324   0.664   4.620  3.4640 -0.5413 -3.8099
14670TIP3    H265426   4.274   0.533   4.676  3.9878  1.0778  0.7104
14671TIP3   OH265427   4.464   0.306   6.224  0.3515 -0.1727 -0.1340
14671TIP3    H165428   4.447   0.341   6.312  0.2078 -1.1823  0.2463
14671TIP3    H265429   4.481   0.213   6.238 -0.0733 -0.4221 -1.2196
14672TIP3   OH265430   4.331   3.763   2.322  0.0649 -0.5756 -0.1315
14672TIP3    H165431   4.299   3.841   2.276 -1.8747 -1.9501 -1.2032
14672TIP3    H265432   4.403   3.731   2.268  0.1077 -0.1752 -0.3145
14673TIP3   OH265433   3.912   1.677   5.530  0.4445 -0.6636 -0.3406
14673TIP3    H165434   4.002   1.653   5.510  1.9305  3.6873  0.5483
14673TIP3    H265435   3.876   1.707   5.447  0.7970  0.2482 -0.1830
14674TIP3   OH265436   5.370   6.142  14.380 -0.3060  1.0227  0.4853
14674TIP3    H165437   5.409   6.107  14.460  1.2372 -0.4424 -0.8593
14674TIP3    H265438   5.444   6.166  14.325 -1.2440 -1.1561 -1.8468
14675TIP3   OH265439   2.729   4.927  10.457 -0.0137 -0.8406 -0.2708
14675TIP3    H165440   2.680   4.995  10.411  0.4002  1.5133  2.6666
14675TIP3    H265441   2.820   4.954  10.451 -0.1428  0.9859  4.0607
14676TIP3   OH265442   4.995   3.270   2.530 -0.3936 -0.3042  0.7871
14676TIP3    H165443   4.906   3.263   2.565 -0.2248  3.1792  2.1026
14676TIP3    H265444   4.983   3.311   2.444 -0.0066  0.8307  1.2725
14677TIP3   OH265445   0.447   4.678  13.100 -0.0088  0.6195 -0.0281
14677TIP3    H165446   0.460   4.765  13.062  0.7922  0.5260  0.0087
14677TIP3    H265447   0.530   4.660  13.145 -0.4543  0.1584  0.6110
14678TIP3   OH265448   5.747   3.008   0.933  0.7761 -0.7723  0.5686
14678TIP3    H165449   5.831   3.042   0.964  0.6737  0.6140 -0.6031
14678TIP3    H265450   5.733   2.929   0.984  2.4145 -0.5877  1.3458
14679TIP3   OH265451   3.707   4.667  11.297  0.5710  0.6671 -0.1183
14679TIP3    H165452   3.744   4.748  11.334  0.0490 -0.7657  3.6988
14679TIP3    H265453   3.722   4.601  11.364  0.3958 -2.3145 -2.9212
14680TIP3   OH265454   0.758   3.735   5.307  0.1186  0.0675  0.0347
14680TIP3    H165455   0.666   3.726   5.283  0.0498  0.6444  0.0795
14680TIP3    H265456   0.759   3.738   5.402  0.1165  0.7423  0.0186
14681TIP3   OH265457   0.634   1.975  14.931 -0.7448  0.1872  0.4823
14681TIP3    H165458   0.688   1.897  14.943 -0.7646 -0.0469 -0.9381
14681TIP3    H265459   0.584   1.982  15.013 -0.3574 -0.9727  0.8280
14682TIP3   OH265460   1.462   2.476   5.671 -0.2864  0.4816 -0.4889
14682TIP3    H165461   1.404   2.427   5.614  1.3848 -0.2407 -1.5889
14682TIP3    H265462   1.449   2.437   5.758  0.0366 -1.0029 -1.1018
14683TIP3   OH265463   3.377   5.374   1.864  0.5947 -0.1963  0.0771
14683TIP3    H165464   3.307   5.410   1.810  0.6155 -0.6859 -0.2721
14683TIP3    H265465   3.453   5.371   1.806  1.0471  0.8025  0.5912
14684TIP3   OH265466   3.813   1.556   6.086  0.0406  0.1826 -0.2057
14684TIP3    H165467   3.838   1.481   6.032  0.5091 -0.0718  0.3652
14684TIP3    H265468   3.790   1.518   6.171 -0.7177  0.5796 -0.2321
14685TIP3   OH265469   5.078   3.786   2.888 -0.2566  0.2576  0.5582
14685TIP3    H165470   5.070   3.700   2.928 -1.4924  0.4374  0.7333
14685TIP3    H265471   5.100   3.844   2.961 -0.6505  0.2776  0.6672
14686TIP3   OH265472   3.299   1.719  17.207 -0.1240 -0.4369 -0.4250
14686TIP3    H165473   3.351   1.792  17.173 -0.4658 -0.2750 -0.5982
14686TIP3    H265474   3.243   1.692  17.134  0.6188 -1.4430 -0.6281
14687TIP3   OH265475   1.929   2.280  12.045 -0.1011  0.4487 -0.1635
14687TIP3    H165476   1.978   2.347  12.090 -0.7256  1.3169 -0.7536
14687TIP3    H265477   1.841   2.284  12.083  0.6835 -2.1842  2.0234
14688TIP3   OH265478   3.077   0.083   0.750  0.4121  0.3112 -0.2323
14688TIP3    H165479   3.148   0.039   0.796  0.6618  0.5850 -0.3510
14688TIP3    H265480   3.117   0.113   0.668  0.1087  0.2900 -0.3869
14689TIP3   OH265481   5.530   6.527  14.323  0.5558 -0.3305 -0.1528
14689TIP3    H165482   5.444   6.522  14.281  0.8862  0.7720 -1.0102
14689TIP3    H265483   5.519   6.482  14.406 -0.9431  0.0683 -0.1099
14690TIP3   OH265484   5.891   0.830  13.279 -0.0230  0.9526 -0.3952
14690TIP3    H165485   5.861   0.739  13.282 -2.0650  1.4632 -2.7519
14690TIP3    H265486   5.984   0.825  13.258  0.1130 -0.6113  0.5596
14691TIP3   OH265487   4.913   4.108  14.224  0.0562  0.5382 -0.6851
14691TIP3    H165488   4.864   4.050  14.165  0.1846  0.2795 -0.5370
14691TIP3    H265489   4.845   4.160  14.268 -0.1205 -0.1697 -0.1072
14692TIP3   OH265490   3.207   4.779   5.806  0.5708  0.0701 -0.4719
14692TIP3    H165491   3.210   4.837   5.730  1.7422  3.2976  1.8988
14692TIP3    H265492   3.187   4.837   5.879 -2.2646 -3.1959  1.5164
14693TIP3   OH265493   1.095   4.073   3.922  0.4285  0.3625  0.1028
14693TIP3    H165494   1.124   4.014   3.853 -1.5328  1.1578 -1.4396
14693TIP3    H265495   1.116   4.161   3.890 -1.9309  0.8382 -0.2167
14694TIP3   OH265496   0.896   3.920   1.255  0.2452 -0.3376  0.1267
14694TIP3    H165497   0.895   3.825   1.241 -0.0395 -0.4070  0.5839
14694TIP3    H265498   0.890   3.957   1.167 -0.5426 -0.7541 -0.0049
14695TIP3   OH265499   2.346   4.419   4.724 -0.1034 -0.2614  0.1189
14695TIP3    H165500   2.405   4.476   4.675  1.1562 -0.6459  1.1575
14695TIP3    H265501   2.347   4.454   4.813 -2.0230  0.1614 -0.0083
14696TIP3   OH265502   2.288   0.313  16.161 -0.5265 -0.3275  0.4347
14696TIP3    H165503   2.195   0.294  16.155 -0.3182 -1.4672  0.6075
14696TIP3    H265504   2.318   0.316  16.071 -0.0737 -3.4769  0.4175
14697TIP3   OH265505   2.240   5.551   3.484 -0.2590 -0.3147  0.2654
14697TIP3    H165506   2.261   5.470   3.530  2.2704 -0.2220 -0.6910
14697TIP3    H265507   2.246   5.619   3.551  0.9287 -0.4949  0.3399
14698TIP3   OH265508   6.268   2.134   1.148  0.1479 -0.0919 -0.9330
14698TIP3    H165509   6.254   2.046   1.114  0.1883 -0.3581 -0.2694
14698TIP3    H265510   6.206   2.189   1.100 -0.0431 -0.5250 -1.1762
14699TIP3   OH265511   0.204   4.094   3.335 -0.7784 -0.5003 -0.2465
14699TIP3    H165512   0.211   4.017   3.391  1.5419 -1.7340 -2.1466
14699TIP3    H265513   0.121   4.083   3.289 -0.1317 -2.2874 -1.0518
14700TIP3   OH265514   3.610   5.686  13.437 -0.8338 -0.1601 -0.2739
14700TIP3    H165515   3.706   5.686  13.433 -0.8680 -0.2015 -1.2090
14700TIP3    H265516   3.587   5.593  13.445 -0.8897 -0.4015 -2.8907
14701TIP3   OH265517   1.408   2.629  12.517 -1.0193  0.2314  0.0127
14701TIP3    H165518   1.497   2.596  12.502 -1.4370 -0.0413 -2.1452
14701TIP3    H265519   1.412   2.672  12.602  2.1956  3.5674 -1.6688
14702TIP3   OH265520   0.122   0.582  12.402 -0.4406 -0.3411 -0.1600
14702TIP3    H165521   0.135   0.506  12.345 -1.2141  0.1823 -1.0305
14702TIP3    H265522   0.176   0.651  12.363 -1.1430  0.0811 -0.3918
14703TIP3   OH265523   1.164   2.591   1.275 -0.7902  0.4499 -0.0054
14703TIP3    H165524   1.104   2.666   1.276  1.0952  2.0131  0.9452
14703TIP3    H265525   1.226   2.609   1.346  1.7155 -0.3213 -1.9076
14704TIP3   OH265526   0.225   6.098  11.315  0.5700 -0.2960  0.1192
14704TIP3    H165527   0.130   6.088  11.323  0.5856 -0.6990 -0.1973
14704TIP3    H265528   0.240   6.192  11.315  0.0808 -0.2176 -0.8867
14705TIP3   OH265529   2.303   6.625  14.684 -0.3073  0.1603 -0.1198
14705TIP3    H165530   2.375   6.682  14.710 -0.3096 -0.0566  0.3790
14705TIP3    H265531   2.286   6.647  14.592  0.0261  0.5991 -0.0759
14706TIP3   OH265532   0.884   0.357   4.125  0.2151  0.5768 -0.1365
14706TIP3    H165533   0.873   0.439   4.174 -1.1703  1.4974 -1.9328
14706TIP3    H265534   0.967   0.322   4.156 -0.3078  1.4576  2.3914
14707TIP3   OH265535   3.273   2.500   3.814  1.2811 -0.7758 -0.4326
14707TIP3    H165536   3.224   2.582   3.806 -1.2377 -2.2831 -1.0206
14707TIP3    H265537   3.338   2.518   3.882  0.3679  1.4940 -0.1060
14708TIP3   OH265538   4.817   5.215   2.050  0.2685 -0.3750  0.2703
14708TIP3    H165539   4.742   5.156   2.052  0.8518 -1.2548 -1.8537
14708TIP3    H265540   4.849   5.217   2.140 -2.1702 -0.1380  1.1497
14709TIP3   OH265541   0.237   5.477  15.575  0.0297  0.3139  0.4763
14709TIP3    H165542   0.294   5.456  15.501  0.1740 -1.6068  1.1116
14709TIP3    H265543   0.294   5.523  15.636  0.0662  1.3472 -0.3170
14710TIP3   OH265544   2.008   2.000   4.971 -0.0105  0.1115 -0.4566
14710TIP3    H165545   2.095   1.966   4.951 -0.0983 -0.9620  0.8858
14710TIP3    H265546   1.971   1.936   5.033 -1.1494  1.3582  0.1833
14711TIP3   OH265547   2.826   6.588   0.291  0.2783 -0.6330 -0.4617
14711TIP3    H165548   2.789   6.662   0.243 -0.7135 -1.5038 -1.0539
14711TIP3    H265549   2.871   6.629   0.365 -0.9501  0.5222 -0.3223
14712TIP3   OH265550   4.445   3.028   1.831 -0.6852  0.1764  0.3892
14712TIP3    H165551   4.401   2.964   1.887  1.1371  0.1648  1.8548
14712TIP3    H265552   4.512   2.977   1.785 -0.3565  0.7184  0.2709
14713TIP3   OH265553   0.332   2.850   2.864  0.1296 -0.2951  0.4226
14713TIP3    H165554   0.355   2.884   2.777  4.9140  0.3440  1.7748
14713TIP3    H265555   0.314   2.929   2.916  0.7962 -0.4355  0.8752
14714TIP3   OH265556   5.326   4.066  11.942 -0.2766  0.3294  0.1032
14714TIP3    H165557   5.288   3.981  11.920  1.0501 -0.4664  0.7646
14714TIP3    H265558   5.315   4.073  12.037  0.6398  0.3666  0.2131
14715TIP3   OH265559   3.548   5.519   1.094 -0.4630 -0.0994  0.5739
14715TIP3    H165560   3.518   5.562   1.174  0.2991  1.6602 -0.0525
14715TIP3    H265561   3.603   5.448   1.124  0.5763  1.1282  1.6276
14716TIP3   OH265562   3.035   1.449  17.088  0.6503  0.4055  0.2050
14716TIP3    H165563   3.090   1.464  17.011 -0.9861  1.1052 -0.8470
14716TIP3    H265564   3.031   1.534  17.132  0.4840  0.3322  0.3337
14717TIP3   OH265565   6.170   5.895  13.397 -0.0627 -0.4493  0.2319
14717TIP3    H165566   6.161   5.990  13.387 -1.9221 -0.5977  0.2846
14717TIP3    H265567   6.177   5.881  13.491 -0.8418 -0.4359  0.2958
14718TIP3   OH265568   4.057   6.190  12.241  0.5684 -0.1707  0.0321
14718TIP3    H165569   4.122   6.119  12.246 -0.0826 -1.0165 -2.5014
14718TIP3    H265570   3.973   6.147  12.256  0.3455  0.4395  0.5487
14719TIP3   OH265571   4.000   3.146  16.644  0.3268  0.0942  0.7465
14719TIP3    H165572   4.018   3.085  16.573  0.9212 -0.7239  1.5927
14719TIP3    H265573   3.919   3.190  16.618 -0.6059 -1.7177  0.5738
14720TIP3   OH265574   5.941   5.944  15.716 -0.1431  0.1572  0.3112
14720TIP3    H165575   5.860   5.995  15.719  0.6447  1.4506  0.1010
14720TIP3    H265576   5.983   5.971  15.635  1.4020  0.9391  1.3497
14721TIP3   OH265577   0.446   4.215  16.245 -0.0723  0.3745 -0.1055
14721TIP3    H165578   0.533   4.202  16.206 -0.8840 -0.1160 -1.8277
14721TIP3    H265579   0.451   4.174  16.330  1.3795  0.3186 -0.2064
14722TIP3   OH265580   2.601   5.051   1.683 -0.6218  0.0226 -0.2897
14722TIP3    H165581   2.521   5.085   1.645  0.0846  1.7273 -0.2951
14722TIP3    H265582   2.601   5.083   1.774  0.1379  0.2139 -0.3469
14723TIP3   OH265583   5.805   2.938  16.647  0.3097  0.2681 -0.7297
14723TIP3    H165584   5.774   2.938  16.738  0.7933 -1.3768 -0.5477
14723TIP3    H265585   5.818   3.030  16.626  0.3534  0.6537  0.9322
14724TIP3   OH265586   1.777   5.721   2.051  0.1401 -0.6278 -0.0815
14724TIP3    H165587   1.821   5.676   2.123  0.2882 -1.4475 -0.6735
14724TIP3    H265588   1.845   5.734   1.985  0.1102  0.5316  0.1146
14725TIP3   OH265589   4.669   5.184  14.732  0.1515 -0.3485  0.0015
14725TIP3    H165590   4.611   5.120  14.690 -0.8350 -0.0430  0.8858
14725TIP3    H265591   4.620   5.266  14.729  0.2517 -0.2319  1.3838
14726TIP3   OH265592   1.390   4.464  16.169 -0.2072  0.4147 -0.0840
14726TIP3    H165593   1.444   4.395  16.207  0.0493  0.0034 -1.1743
14726TIP3    H265594   1.319   4.476  16.232  1.1508  0.9828  1.3776
14727TIP3   OH265595   3.156   5.406   1.171  0.5839 -0.1109 -0.1029
14727TIP3    H165596   3.248   5.430   1.173  0.4497  0.4470 -0.4984
14727TIP3    H265597   3.124   5.441   1.087 -0.2498  0.6765  0.5360
14728TIP3   OH265598   0.799   5.635   5.223  0.0239  0.1730 -0.4903
14728TIP3    H165599   0.875   5.597   5.179 -0.5931  0.3315 -1.7117
14728TIP3    H265600   0.776   5.570   5.290  1.0856  0.0167 -0.2619
14729TIP3   OH265601   3.417   4.504  14.457 -0.1839 -0.2976 -0.0457
14729TIP3    H165602   3.454   4.588  14.485 -0.0199  0.0159 -1.1861
14729TIP3    H265603   3.329   4.525  14.426 -0.1245 -0.5397 -0.3811
14730TIP3   OH265604   2.295   3.338   0.974 -0.3576 -0.1713  0.2485
14730TIP3    H165605   2.326   3.407   0.914  0.8344 -0.9394 -0.0392
14730TIP3    H265606   2.375   3.292   1.000 -1.0905 -1.0922  0.8793
14731TIP3   OH265607   6.600   5.147   2.780  0.4009  0.1039  0.3785
14731TIP3    H165608   6.687   5.110   2.768 -0.4921 -1.3778 -1.8046
14731TIP3    H265609   6.595   5.165   2.874  1.8850 -2.7972  1.0928
14732TIP3   OH265610   5.340   3.639   2.920 -0.2362 -0.1959  0.2964
14732TIP3    H165611   5.267   3.661   2.862  1.7460 -0.2612 -2.3219
14732TIP3    H265612   5.354   3.717   2.972 -1.1776  0.3669 -0.2776
14733TIP3   OH265613   1.200   1.255   5.792 -0.3569  0.0358 -0.3260
14733TIP3    H165614   1.231   1.324   5.850  0.3917 -1.0801  0.6537
14733TIP3    H265615   1.144   1.200   5.848  0.2664 -0.9775 -0.6785
14734TIP3   OH265616   4.611   1.202   0.612  0.0875 -0.0591  0.0439
14734TIP3    H165617   4.676   1.134   0.591  2.7248  2.6590 -1.0601
14734TIP3    H265618   4.571   1.223   0.527 -0.4932 -0.0376  0.3254
14735TIP3   OH265619   2.697   6.037   1.740 -0.5429  0.0244 -0.1193
14735TIP3    H165620   2.682   5.945   1.718  0.6320  0.1311 -1.4905
14735TIP3    H265621   2.660   6.048   1.827 -1.0626 -1.6467 -0.1169
14736TIP3   OH265622   5.808   5.387  11.661  0.8824 -0.1552  0.0539
14736TIP3    H165623   5.762   5.330  11.600  1.4566 -1.1377  0.5258
14736TIP3    H265624   5.740   5.420  11.720  0.5253 -0.1966 -0.3375
14737TIP3   OH265625   0.317   0.168  14.290  0.2015 -0.2256  0.3661
14737TIP3    H165626   0.323   0.186  14.196 -2.2593 -0.6436  0.0993
14737TIP3    H265627   0.406   0.178  14.322  0.7720  1.5964 -1.7071
14738TIP3   OH265628   0.673   3.349   0.270 -0.5110  0.6281 -0.2757
14738TIP3    H165629   0.649   3.290   0.199 -0.2950  0.5192 -0.2579
14738TIP3    H265630   0.618   3.322   0.343  0.1385 -0.0635 -0.0303
14739TIP3   OH265631   4.792   2.212   4.256  0.7432  0.1943  0.0115
14739TIP3    H165632   4.717   2.156   4.274 -0.6959  1.1206 -2.7955
14739TIP3    H265633   4.754   2.297   4.233  2.6826  0.8180 -1.0519
14740TIP3   OH265634   1.009   6.567   2.653 -0.2691 -0.2213 -0.0695
14740TIP3    H165635   0.963   6.483   2.659 -0.4472 -0.0937  0.3374
14740TIP3    H265636   1.018   6.596   2.744  0.4670 -0.1648 -0.1518
14741TIP3   OH265637   4.237   5.066   0.748  0.1113 -0.1181  0.4989
14741TIP3    H165638   4.247   5.040   0.840  1.5235  1.3348  0.7861
14741TIP3    H265639   4.146   5.047   0.727 -0.1472 -0.7367  2.1244
14742TIP3   OH265640   3.835   3.571  12.336 -0.4545 -0.3865 -0.4671
14742TIP3    H165641   3.915   3.525  12.359 -0.3124 -0.7471 -1.6242
14742TIP3    H265642   3.863   3.660  12.316 -0.6554  0.0757  1.2577
14743TIP3   OH265643   5.656   4.242  16.044 -0.7632  0.7387 -0.4986
14743TIP3    H165644   5.650   4.294  16.124  0.6351  0.0424  0.0632
14743TIP3    H265645   5.717   4.290  15.989  1.2651 -0.7399  0.3919
14744TIP3   OH265646   6.752   4.433   5.567 -0.4633  0.0119 -0.5992
14744TIP3    H165647   6.668   4.460   5.529 -0.5828  0.7703  0.1771
14744TIP3    H265648   6.818   4.483   5.519 -0.7328  2.3692  1.3408
14745TIP3   OH265649   4.306   0.097  15.475  0.0091 -0.0764 -0.3639
14745TIP3    H165650   4.235   0.070  15.417  1.0078 -1.2418 -1.0768
14745TIP3    H265651   4.325   0.019  15.528  1.0401  0.0845 -0.4892
14746TIP3   OH265652   5.660   3.350   0.620 -0.0537 -0.7371 -0.0358
14746TIP3    H165653   5.635   3.435   0.658 -3.6073 -1.3381 -0.8658
14746TIP3    H265654   5.749   3.364   0.588 -0.2518  2.4501  0.5969
14747TIP3   OH265655   4.468   1.419  16.828  0.1750  0.1836  0.8532
14747TIP3    H165656   4.555   1.390  16.802  0.2534  2.0278 -1.0585
14747TIP3    H265657   4.484   1.484  16.897  0.2799  0.0858  0.9191
14748TIP3   OH265658   2.659   2.266   1.459 -0.6581  0.2451  0.5021
14748TIP3    H165659   2.721   2.273   1.531 -0.9002  0.0411  0.7292
14748TIP3    H265660   2.714   2.259   1.380 -0.3940  0.9846  0.6146
14749TIP3   OH265661   6.032   0.649  11.184 -0.2927  0.1572  0.3771
14749TIP3    H165662   5.990   0.731  11.155 -1.6257 -0.4609  0.5213
14749TIP3    H265663   6.048   0.601  11.103 -0.9294 -0.1013  0.3987
14750TIP3   OH265664   6.129   0.830  11.820  0.8427 -0.2251  0.5456
14750TIP3    H165665   6.131   0.921  11.850  1.5841 -0.2926  0.7174
14750TIP3    H265666   6.221   0.808  11.805  0.5898 -0.6589 -0.3823
14751TIP3   OH265667   2.667   3.375  11.513  0.5204 -0.1217 -0.3283
14751TIP3    H165668   2.595   3.407  11.459  1.2377  1.5840 -0.3110
14751TIP3    H265669   2.745   3.413  11.473  0.9635  2.2850  2.6636
14752TIP3   OH265670   2.144   2.861  13.908  0.0593 -0.2271  0.4050
14752TIP3    H165671   2.087   2.938  13.908  0.9587  0.4483  1.4690
14752TIP3    H265672   2.221   2.888  13.859 -0.0929 -0.8108 -0.1575
14753TIP3   OH265673   5.854   1.292  16.520 -0.1269 -0.2613  0.0388
14753TIP3    H165674   5.792   1.340  16.576  0.5846  0.4402  0.2362
14753TIP3    H265675   5.798   1.244  16.459 -0.9250 -0.9556  1.2680
14754TIP3   OH265676   6.467   2.182   4.579  0.1389 -0.2875  0.1756
14754TIP3    H165677   6.504   2.198   4.666 -0.7811 -0.7500  0.6507
14754TIP3    H265678   6.403   2.112   4.592 -0.5599  0.1721 -0.7368
14755TIP3   OH265679   1.437   4.752   6.194  0.0856  0.1322  0.1814
14755TIP3    H165680   1.484   4.678   6.230 -1.0083 -0.5371  0.2555
14755TIP3    H265681   1.397   4.795   6.270 -0.1198  0.2058  0.0342
14756TIP3   OH265682   5.757   6.027  15.991 -0.5626  0.1127  0.2257
14756TIP3    H165683   5.704   6.032  15.911  0.5158  0.3661 -0.4691
14756TIP3    H265684   5.802   5.943  15.985  1.5727  1.3102 -0.7161
14757TIP3   OH265685   0.001   6.004  12.688 -0.4659 -0.3525  0.0178
14757TIP3    H165686   0.002   5.911  12.710 -1.2765 -0.3414  0.1352
14757TIP3    H265687  -0.083   6.036  12.723 -1.0662  0.0021 -1.7103
14758TIP3   OH265688   4.398   1.025  12.813 -0.7199 -0.0788 -0.0910
14758TIP3    H165689   4.334   1.091  12.842 -1.3970  0.0731 -1.8679
14758TIP3    H265690   4.375   1.009  12.721  2.0331  0.2789 -0.8795
14759TIP3   OH265691   2.892   5.362   4.289 -0.0686 -0.1108  0.0813
14759TIP3    H165692   2.887   5.339   4.382 -1.1479 -1.7375 -0.3698
14759TIP3    H265693   2.801   5.373   4.262  0.1724 -0.9986 -1.1173
14760TIP3   OH265694   1.658   4.178  13.899 -0.0758  0.0201  0.0426
14760TIP3    H165695   1.686   4.164  13.809 -0.7024 -0.3517 -0.0978
14760TIP3    H265696   1.724   4.237  13.936 -0.5435  1.2457 -1.0440
14761TIP3   OH265697   6.417   0.368  15.783  0.6045 -0.4791  0.1057
14761TIP3    H165698   6.422   0.368  15.879 -0.1550 -2.2922  0.1754
14761TIP3    H265699   6.337   0.415  15.763  0.6575 -0.2740  0.3816
14762TIP3   OH265700   3.033   5.631   5.878  0.1852 -0.2581 -0.2865
14762TIP3    H165701   3.006   5.660   5.965  2.3550 -0.1387  0.3824
14762TIP3    H265702   3.059   5.539   5.891  1.4491  0.0500 -0.5751
14763TIP3   OH265703   5.484   1.275   2.630 -0.6327 -0.0235  0.5210
14763TIP3    H165704   5.468   1.239   2.543  0.8622  0.8367 -0.1371
14763TIP3    H265705   5.420   1.346   2.638 -3.0507 -2.2382  1.5113
14764TIP3   OH265706   4.410   2.558  12.856 -0.3760 -0.5316  0.6637
14764TIP3    H165707   4.390   2.468  12.834  1.3079 -0.9591  0.8277
14764TIP3    H265708   4.329   2.606  12.838 -0.7916 -1.8043 -0.9301
14765TIP3   OH265709   4.330   3.656   3.785  0.1460  0.0072  0.1525
14765TIP3    H165710   4.384   3.726   3.749 -1.2425  1.2920  0.5103
14765TIP3    H265711   4.301   3.689   3.870 -0.7274 -0.9014  0.2202
14766TIP3   OH265712   1.795   2.874   5.212 -0.2906 -0.2981  0.7790
14766TIP3    H165713   1.822   2.826   5.133  0.6786  0.7433  0.4753
14766TIP3    H265714   1.733   2.814   5.256  0.1849 -1.4375 -0.0725
14767TIP3   OH265715   4.352   0.012  13.912 -0.4919  0.5286 -0.4801
14767TIP3    H165716   4.405  -0.019  13.985  0.0899  0.3501 -0.9707
14767TIP3    H265717   4.277   0.054  13.953 -0.0787  0.5958  0.2186
14768TIP3   OH265718   6.567   3.558   1.224  0.4319 -0.6079 -0.1825
14768TIP3    H165719   6.552   3.519   1.310  1.4948 -2.5753 -0.8470
14768TIP3    H265720   6.645   3.513   1.191  0.9662  1.2449 -1.5103
14769TIP3   OH265721   3.947   1.563   1.335  0.0312  0.3540  0.3716
14769TIP3    H165722   3.996   1.486   1.307 -1.7188 -1.7729  2.9139
14769TIP3    H265723   4.004   1.608   1.398 -0.3648 -0.9024  1.6494
14770TIP3   OH265724   1.178   0.335   0.292 -0.0208 -0.0234  0.4328
14770TIP3    H165725   1.240   0.368   0.356 -0.2802  3.9015 -1.2465
14770TIP3    H265726   1.103   0.395   0.297 -1.0383 -1.0171 -1.9097
14771TIP3   OH265727   0.393   2.624   1.664 -0.4208  1.1133  0.0810
14771TIP3    H165728   0.438   2.606   1.747 -0.9479 -0.6134  0.0189
14771TIP3    H265729   0.301   2.637   1.689 -1.1656 -2.5547 -0.5161
14772TIP3   OH265730   4.008   4.497   0.341  0.3952  0.1453 -0.3250
14772TIP3    H165731   4.096   4.477   0.370  0.2717  0.2082  0.1003
14772TIP3    H265732   4.014   4.583   0.302  0.5818  0.0240 -0.5615
14773TIP3   OH265733   1.989   1.490  13.452 -0.1170 -0.7781  0.7722
14773TIP3    H165734   1.989   1.455  13.362  0.1374 -2.1575  1.2959
14773TIP3    H265735   1.917   1.444  13.495 -1.0936  0.8612  0.9208
14774TIP3   OH265736   6.230   0.328   1.033  0.2009  0.2199  0.1105
14774TIP3    H165737   6.266   0.318   0.945  0.8442 -0.0502  0.4071
14774TIP3    H265738   6.158   0.391   1.022  0.5545  0.5165 -0.5274
14775TIP3   OH265739   0.419   0.016  11.141  0.4479 -0.1237  0.2458
14775TIP3    H165740   0.334   0.018  11.097 -0.0483  1.5374  1.2098
14775TIP3    H265741   0.400   0.043  11.231  1.6830 -1.9156  1.0546
14776TIP3   OH265742   3.056   4.392  11.752 -0.0365  0.0630  0.6061
14776TIP3    H165743   2.995   4.373  11.680 -1.2016 -0.9086  1.8310
14776TIP3    H265744   3.118   4.320  11.749 -0.5952 -0.4437  1.1127
14777TIP3   OH265745   5.363   3.142   4.106  0.5242 -0.1604  0.4274
14777TIP3    H165746   5.277   3.106   4.088  0.3539 -0.3510  1.6179
14777TIP3    H265747   5.423   3.069   4.093  0.3819 -0.3485  0.8380
14778TIP3   OH265748   5.924   5.587  15.551 -0.5949  0.6183  0.8098
14778TIP3    H165749   5.880   5.634  15.622  0.8000  0.5028  1.7698
14778TIP3    H265750   5.910   5.494  15.572  0.0555  0.5827  1.0853
14779TIP3   OH265751   1.625   4.075  11.592  0.2380 -0.1465  0.5344
14779TIP3    H165752   1.600   4.136  11.661  0.9034  0.3861  0.3015
14779TIP3    H265753   1.541   4.047  11.554 -0.0452  0.9684  0.3303
14780TIP3   OH265754   0.049   0.611   1.329 -0.2184  0.1794 -0.0473
14780TIP3    H165755   0.076   0.519   1.338 -2.3229 -0.5171 -0.5450
14780TIP3    H265756   0.085   0.654   1.406  0.3211 -1.1823  0.4839
14781TIP3   OH265757   0.323   0.458  11.364  0.0486  0.2485 -0.2652
14781TIP3    H165758   0.410   0.500  11.370  0.4242 -0.6524  0.6990
14781TIP3    H265759   0.261   0.530  11.380  0.6490  0.7061  0.0436
14782TIP3   OH265760   6.181   1.479   0.757  0.0220  0.0415 -0.0600
14782TIP3    H165761   6.102   1.431   0.780 -0.9439  0.5875 -2.1111
14782TIP3    H265762   6.249   1.412   0.751 -0.6841 -0.6869 -0.0673
14783TIP3   OH265763   5.933   4.924  12.840 -0.4682  0.4395  0.4650
14783TIP3    H165764   5.854   4.977  12.853  0.3262  1.5438  0.8233
14783TIP3    H265765   5.915   4.843  12.886 -1.9840  0.1047 -0.6612
14784TIP3   OH265766   2.509   4.022  14.238  0.2641  0.6668 -0.3873
14784TIP3    H165767   2.506   3.926  14.244 -1.5570  0.6541 -1.1703
14784TIP3    H265768   2.508   4.051  14.329 -1.7399 -0.0316 -0.1460
14785TIP3   OH265769   6.054   5.344   1.191 -0.0800 -0.2138 -0.1078
14785TIP3    H165770   6.111   5.339   1.114  0.7129 -0.1333  0.4688
14785TIP3    H265771   5.970   5.374   1.156 -0.1437 -1.5435 -1.1554
14786TIP3   OH265772   4.759   3.179  12.615  0.7755  0.0191  0.2270
14786TIP3    H165773   4.770   3.146  12.704  0.5072  0.0517  0.2727
14786TIP3    H265774   4.709   3.260  12.625  1.6805  0.5915  0.1374
14787TIP3   OH265775   0.175   3.586  12.854 -0.5947 -0.4947  0.1892
14787TIP3    H165776   0.115   3.601  12.782  1.1449  0.5282 -1.0896
14787TIP3    H265777   0.138   3.636  12.927 -0.6736  1.0871 -0.9211
14788TIP3   OH265778   2.931   3.249  13.955 -0.1876  0.7394 -0.8193
14788TIP3    H165779   2.856   3.274  14.010  1.2504  0.5702  1.2625
14788TIP3    H265780   2.914   3.157  13.933 -0.7203  0.7839 -0.6138
14789TIP3   OH265781   3.517   3.306  16.542  0.2829  0.2487  0.2152
14789TIP3    H165782   3.446   3.264  16.494 -0.2316  1.2815  0.0537
14789TIP3    H265783   3.564   3.357  16.476  0.2694  0.7596  0.5955
14790TIP3   OH265784   4.308   4.649  14.967  0.3372 -0.3331 -0.5988
14790TIP3    H165785   4.341   4.565  15.000 -1.8557 -0.9624  0.0316
14790TIP3    H265786   4.217   4.652  14.995  0.2121  1.9938 -1.1644
14791TIP3   OH265787   3.825   0.896   3.859  0.0105  0.5784 -0.0192
14791TIP3    H165788   3.823   0.918   3.765  0.4039  1.7439  0.2332
14791TIP3    H265789   3.757   0.830   3.869  1.2107 -0.9251 -1.4588
14792TIP3   OH265790   2.777   0.152  13.791 -0.4140 -0.0147  0.4565
14792TIP3    H165791   2.809   0.080  13.846  1.1716  1.6897  1.8428
14792TIP3    H265792   2.816   0.135  13.705 -3.3393 -2.9932 -0.3727
14793TIP3   OH265793   0.363   2.535  15.259  0.7114 -0.8359  0.5854
14793TIP3    H165794   0.357   2.466  15.193  1.2327  0.8502 -1.2693
14793TIP3    H265795   0.274   2.566  15.269  0.8317 -0.1339 -0.4084
14794TIP3   OH265796   1.155   6.112   2.415 -0.5464  0.2191  0.2183
14794TIP3    H165797   1.238   6.146   2.448 -1.0818  0.1540  1.6511
14794TIP3    H265798   1.132   6.041   2.475 -1.2043 -0.3404 -0.6795
14795TIP3   OH265799   2.416   4.597   3.116  0.1884 -0.2761 -0.2859
14795TIP3    H165800   2.512   4.603   3.113  0.3070 -2.1825 -1.3655
14795TIP3    H265801   2.394   4.613   3.208  1.8593 -3.2717  0.7131
14796TIP3   OH265802   3.855   6.088   3.649  0.0907  0.4273  0.7773
14796TIP3    H165803   3.760   6.072   3.648 -0.1828  1.9442  0.7728
14796TIP3    H265804   3.881   6.073   3.740  0.1397 -1.5570  0.4495
14797TIP3   OH265805   1.988   2.710   1.852  0.4345 -0.0115  0.2710
14797TIP3    H165806   2.079   2.734   1.839  0.1857 -0.1475 -1.9057
14797TIP3    H265807   1.991   2.626   1.897  1.3688  0.1609  0.5279
14798TIP3   OH265808   6.456   0.655   4.534 -0.3373 -0.0458  0.2113
14798TIP3    H165809   6.366   0.682   4.553 -0.7170 -1.8533  1.0927
14798TIP3    H265810   6.448   0.567   4.499  1.0575  0.0083 -0.3011
14799TIP3   OH265811   5.144   3.624   2.416  0.1983 -0.6425 -0.1800
14799TIP3    H165812   5.067   3.671   2.382 -0.0507 -0.4810  0.6081
14799TIP3    H265813   5.206   3.694   2.437  0.1035 -0.7018  0.3059
14800TIP3   OH265814   3.579   2.691   2.095 -0.0174 -0.4263 -0.0141
14800TIP3    H165815   3.573   2.634   2.018 -0.3019 -2.2982  1.3595
14800TIP3    H265816   3.648   2.753   2.074 -1.5514  0.4396 -2.6449
14801TIP3   OH265817   0.244   6.033   4.616 -0.6049  0.3187  0.3766
14801TIP3    H165818   0.213   5.981   4.691  1.2219  0.1562  1.0430
14801TIP3    H265819   0.316   5.982   4.580 -1.9646  0.0235 -1.9968
14802TIP3   OH265820   4.868   4.000  15.572 -0.1181 -0.2865  0.0862
14802TIP3    H165821   4.874   4.010  15.667 -1.8242 -2.9642  0.5300
14802TIP3    H265822   4.776   3.979  15.555  0.2433 -0.2170 -2.1049
14803TIP3   OH265823   0.281   0.856  15.758 -0.6072  0.3676  0.3639
14803TIP3    H165824   0.244   0.787  15.812  2.0174  1.2506  3.4451
14803TIP3    H265825   0.343   0.811  15.701 -2.3253 -0.3782 -0.9594
14804TIP3   OH265826   3.318   2.600   6.555  0.0299  0.1517 -0.4006
14804TIP3    H165827   3.260   2.543   6.506 -1.9110  2.1783 -0.5612
14804TIP3    H265828   3.360   2.655   6.489 -1.5165  1.9166  0.0388
14805TIP3   OH265829   3.880   1.520   5.062  0.1187  0.3078  0.1325
14805TIP3    H165830   3.949   1.483   5.117 -0.0308 -2.9599 -1.7482
14805TIP3    H265831   3.900   1.489   4.974 -3.0564  0.2621 -0.6396
14806TIP3   OH265832   3.083   5.074  15.425  0.5642 -0.4501 -0.1553
14806TIP3    H165833   3.019   5.118  15.481  0.6813 -2.2386  1.4320
14806TIP3    H265834   3.127   5.145  15.378  1.4525  1.2256  3.0701
14807TIP3   OH265835   4.091   3.635   1.328  0.3414  0.5082 -0.2901
14807TIP3    H165836   4.002   3.603   1.318  0.2360  1.7196 -3.7703
14807TIP3    H265837   4.147   3.562   1.300  0.4286  0.1858  0.6975
14808TIP3   OH265838   3.892   4.988  14.075 -0.0924 -0.4090 -0.4403
14808TIP3    H165839   3.941   5.060  14.114 -0.6702  0.0538 -0.5688
14808TIP3    H265840   3.859   4.938  14.150 -0.8899  0.2708 -0.3276
14809TIP3   OH265841   4.899   2.396  13.121  0.4726 -0.2866 -0.4008
14809TIP3    H165842   4.923   2.320  13.175 -0.9526 -0.4016  0.0919
14809TIP3    H265843   4.804   2.400  13.127  0.4470  0.8093 -1.4374
14810TIP3   OH265844   2.780   3.222  16.000  0.3286 -0.0794 -0.3093
14810TIP3    H165845   2.824   3.263  16.075 -0.1993 -0.5956  0.2832
14810TIP3    H265846   2.703   3.276  15.985 -0.3002 -0.7627  0.3933
14811TIP3   OH265847   2.489   3.757  11.273 -0.0292 -0.1162  0.2856
14811TIP3    H165848   2.407   3.758  11.224 -0.3406  0.8336  0.8045
14811TIP3    H265849   2.553   3.720  11.212 -0.2938  1.5622 -1.0657
14812TIP3   OH265850   0.566   1.185  13.819  0.4957  0.2381 -0.2206
14812TIP3    H165851   0.507   1.214  13.889  0.6345 -0.4359  0.1834
14812TIP3    H265852   0.627   1.257  13.807  0.0830  0.6108 -0.0756
14813TIP3   OH265853   4.090   6.329   1.797  0.6762 -0.3315 -0.0056
14813TIP3    H165854   4.125   6.251   1.754  0.2574 -0.0760 -0.8282
14813TIP3    H265855   4.070   6.389   1.725  1.1272  0.5878  0.6283
14814TIP3   OH265856   0.256   0.806  12.320  0.0361  0.1782  0.4966
14814TIP3    H165857   0.292   0.814  12.408 -0.0879  1.6399  0.4245
14814TIP3    H265858   0.316   0.856  12.265  0.0242 -0.5943 -0.2273
14815TIP3   OH265859   4.204   3.002   3.187  0.0230 -0.5335 -0.6420
14815TIP3    H165860   4.212   2.939   3.259 -0.5402  1.2058  0.9654
14815TIP3    H265861   4.153   2.956   3.120  0.9229 -2.3145 -0.1373
14816TIP3   OH265862   2.157   0.554  17.118 -0.6275  0.7086 -0.5367
14816TIP3    H165863   2.217   0.521  17.051 -1.6995  0.5226 -1.4221
14816TIP3    H265864   2.103   0.478  17.141 -0.6750  0.9288  0.0834
14817TIP3   OH265865   5.062   1.725  16.734 -0.4211  0.2459 -0.1719
14817TIP3    H165866   5.101   1.684  16.811 -0.6857  2.2859  1.0511
14817TIP3    H265867   5.076   1.660  16.664  3.0383 -0.1230  0.7475
14818TIP3   OH265868   3.599   6.594   3.067 -0.2495 -0.3392 -0.3580
14818TIP3    H165869   3.588   6.676   3.020  0.7778 -0.5695 -1.0347
14818TIP3    H265870   3.510   6.564   3.087 -0.6042  1.5902  1.0830
14819TIP3   OH265871   0.193   6.387  11.320 -0.1229 -0.3267  0.3530
14819TIP3    H165872   0.158   6.465  11.279  0.9493 -0.1227 -0.1869
14819TIP3    H265873   0.123   6.356  11.377  0.0447  1.9591  1.8436
14820TIP3   OH265874   2.212   5.738   0.359  0.1822  0.0838 -0.3155
14820TIP3    H165875   2.243   5.776   0.441  1.7976  0.5372 -1.1248
14820TIP3    H265876   2.195   5.646   0.380 -0.4902  0.4448  0.7962
14821TIP3   OH265877   0.071   3.155  16.210  0.4507 -0.3547 -0.2708
14821TIP3    H165878   0.128   3.107  16.270  1.9236 -0.0728 -1.4374
14821TIP3    H265879   0.071   3.102  16.130 -0.7850 -0.2568 -0.3484
14822TIP3   OH265880   6.490   3.072  13.913 -0.3019 -0.4404  0.2101
14822TIP3    H165881   6.451   3.103  13.994  0.6364 -0.1578  0.5610
14822TIP3    H265882   6.576   3.038  13.939 -0.0022 -0.3601 -0.6476
14823TIP3   OH265883   2.279   1.882   2.629 -0.4733  0.1722 -0.0096
14823TIP3    H165884   2.288   1.964   2.677 -1.8004 -0.3749  1.2136
14823TIP3    H265885   2.323   1.898   2.545  0.1036  1.8030  0.5890
14824TIP3   OH265886   1.616   2.580   2.831 -0.3917 -0.4173 -0.0725
14824TIP3    H165887   1.674   2.507   2.854 -1.2650 -1.1300 -0.0887
14824TIP3    H265888   1.602   2.570   2.737 -2.6460 -1.8353  0.3707
14825TIP3   OH265889   6.490   2.938  11.878 -0.1006 -0.0346  0.5833
14825TIP3    H165890   6.456   2.892  11.954  0.3492 -0.4963  0.5040
14825TIP3    H265891   6.559   2.994  11.914  0.2689 -0.4251  0.4782
14826TIP3   OH265892   3.429   4.203   1.133 -0.2593  0.2029 -0.0668
14826TIP3    H165893   3.482   4.261   1.188 -1.8926  0.8499  0.8920
14826TIP3    H265894   3.408   4.256   1.056  0.8941 -0.2260 -0.6769
14827TIP3   OH265895   5.318   6.707   1.860 -0.1732 -0.2109  0.2125
14827TIP3    H165896   5.287   6.753   1.783  1.6404 -1.8899 -1.5937
14827TIP3    H265897   5.253   6.725   1.927 -0.9345  2.6322 -1.2256
14828TIP3   OH265898   0.518   4.194   2.614 -0.1864  0.4974 -0.2964
14828TIP3    H165899   0.543   4.225   2.701  0.6128 -2.8571  0.7642
14828TIP3    H265900   0.467   4.115   2.631  0.3109 -0.4085 -2.8914
14829TIP3   OH265901   4.143   5.009  16.209  0.7708  0.1925 -0.5119
14829TIP3    H165902   4.066   5.060  16.235  0.7778  0.8539 -1.7476
14829TIP3    H265903   4.152   5.025  16.116  2.0911 -0.3315 -0.4889
14830TIP3   OH265904   0.269   5.122   4.137  0.0478 -0.0844 -0.3157
14830TIP3    H165905   0.211   5.059   4.179 -1.2969  1.3050 -0.0176
14830TIP3    H265906   0.226   5.144   4.054  0.2998  0.7116 -0.2456
14831TIP3   OH265907   1.208   1.204  15.962 -0.1526  0.2196 -0.5695
14831TIP3    H165908   1.114   1.218  15.973 -0.0674 -0.7294  1.8007
14831TIP3    H265909   1.241   1.287  15.929 -2.1863 -0.3009 -4.1615
14832TIP3   OH265910   3.698   1.711  13.898  0.2264 -0.1674 -0.5070
14832TIP3    H165911   3.704   1.658  13.818 -0.3353  1.9205 -1.9872
14832TIP3    H265912   3.788   1.736  13.917  0.1097  1.9699 -2.4046
14833TIP3   OH265913   6.155   0.714   2.246 -0.4312  0.1474  0.0243
14833TIP3    H165914   6.089   0.713   2.176 -1.6845 -0.7748  1.1694
14833TIP3    H265915   6.119   0.654   2.313  1.1203  0.3762  1.0895
14834TIP3   OH265916   3.212   4.857  11.542  0.4733  0.3312 -0.1419
14834TIP3    H165917   3.198   4.769  11.507 -2.5664  0.7799 -0.1672
14834TIP3    H265918   3.222   4.844  11.636  0.3046 -0.0590 -0.1745
14835TIP3   OH265919   0.765   3.214   1.597  0.7235 -0.6931  0.3747
14835TIP3    H165920   0.750   3.123   1.572  0.6254 -0.9276  1.2668
14835TIP3    H265921   0.677   3.248   1.617  0.7976 -0.5049  0.3866
14836TIP3   OH265922   0.853   1.164   2.788  0.3083 -0.1210  0.2279
14836TIP3    H165923   0.771   1.133   2.826  0.4520  0.8018  1.3158
14836TIP3    H265924   0.899   1.084   2.761 -1.0957 -0.6255 -0.7547
14837TIP3   OH265925   5.431   2.476   1.558  0.0753 -0.8798 -0.1659
14837TIP3    H165926   5.462   2.472   1.467  0.7279 -1.2725  0.0723
14837TIP3    H265927   5.347   2.429   1.555  0.2914 -1.2605 -0.4921
14838TIP3   OH265928   2.225   4.535   1.601  0.3041  0.0098  0.1061
14838TIP3    H165929   2.312   4.556   1.567  0.4142  1.0980  1.0309
14838TIP3    H265930   2.204   4.450   1.562  2.1957 -0.7383  0.6480
14839TIP3   OH265931   6.009   3.505  14.922  0.8070 -0.1732  0.7808
14839TIP3    H165932   5.942   3.516  14.855  1.3209  0.7393  0.4082
14839TIP3    H265933   5.966   3.456  14.992  0.2503 -1.0981 -0.1933
14840TIP3   OH265934   2.825   1.964   0.819  0.5593 -0.1204 -0.5196
14840TIP3    H165935   2.831   2.059   0.823  1.2388 -0.2063  0.7342
14840TIP3    H265936   2.831   1.935   0.910 -1.5479 -1.2679 -0.7052
14841TIP3   OH265937   0.679   0.054   5.978  0.5905  0.0118 -0.0877
14841TIP3    H165938   0.681   0.043   6.073  2.0736  0.0056 -0.1006
14841TIP3    H265939   0.771   0.068   5.954  0.3469 -0.9274 -1.6341
14842TIP3   OH265940   5.067   1.956  11.270  0.3537 -0.5574 -0.0766
14842TIP3    H165941   5.090   2.048  11.256  0.1297 -0.0466  2.6625
14842TIP3    H265942   5.018   1.931  11.191  1.1464  1.3923 -1.2369
14843TIP3   OH265943   2.767   2.229   5.658 -0.1931 -0.2111 -0.0499
14843TIP3    H165944   2.825   2.304   5.668  1.4291 -1.5865  1.1696
14843TIP3    H265945   2.682   2.267   5.634  0.6949  1.9609  0.1288
14844TIP3   OH265946   2.502   1.868  13.084  0.2877  0.1209  0.1360
14844TIP3    H165947   2.453   1.809  13.141  0.0480 -0.7518 -0.9570
14844TIP3    H265948   2.541   1.932  13.144 -0.6575 -0.2711  1.1949
14845TIP3   OH265949   4.081   1.931   1.246 -0.2765 -0.7493  0.0580
14845TIP3    H165950   4.128   1.853   1.275  0.3561 -1.1813 -2.0168
14845TIP3    H265951   4.017   1.897   1.183 -0.4032  0.3329 -0.4096
14846TIP3   OH265952   2.744   2.752  16.803 -0.1143 -0.0571  0.4304
14846TIP3    H165953   2.668   2.780  16.854 -0.4067 -1.2727  0.6675
14846TIP3    H265954   2.817   2.801  16.841 -0.6418  0.4847  0.7536
14847TIP3   OH265955   3.088   1.310  13.753 -0.2976  0.4887 -0.7050
14847TIP3    H165956   3.147   1.244  13.715 -1.5025 -0.4879 -0.8922
14847TIP3    H265957   3.020   1.322  13.688 -2.9681 -1.9755  1.5154
14848TIP3   OH265958   1.926   2.446   5.646  0.5223  0.7111  0.0173
14848TIP3    H165959   1.994   2.379   5.659  1.3281  1.8947  2.1302
14848TIP3    H265960   1.969   2.528   5.670 -1.4743  1.5571  0.7505
14849TIP3   OH265961   4.660   6.218  16.252  0.0416  0.4260  0.1919
14849TIP3    H165962   4.569   6.229  16.281 -0.3502  1.3664 -1.3419
14849TIP3    H265963   4.687   6.306  16.224  0.6386 -0.2910 -1.5620
14850TIP3   OH265964   1.895   2.851  12.545 -0.2743 -0.3554 -0.3106
14850TIP3    H165965   1.953   2.914  12.504 -0.0467 -0.8765 -0.7972
14850TIP3    H265966   1.888   2.880  12.636  2.4854 -1.5044  0.3258
14851TIP3   OH265967   1.918   1.594  10.636  0.6377  0.7381  0.2393
14851TIP3    H165968   1.983   1.651  10.595  1.2577  0.8125  1.3059
14851TIP3    H265969   1.964   1.511  10.650  1.0774  1.3173  2.5565
14852TIP3   OH265970   6.058   0.453   2.381 -0.3987  0.4905 -0.4132
14852TIP3    H165971   6.081   0.418   2.467 -1.4040  0.0064 -0.3310
14852TIP3    H265972   6.043   0.376   2.326 -2.9030  0.7501 -0.1558
14853TIP3   OH265973   6.228   2.046   4.526  0.1777 -0.2646 -0.4058
14853TIP3    H165974   6.196   2.039   4.436 -1.7590 -1.2632  0.3303
14853TIP3    H265975   6.185   2.124   4.561  1.2831  0.3848 -0.4650
14854TIP3   OH265976   5.059   4.429   2.076  0.3166 -0.2524  0.0217
14854TIP3    H165977   4.991   4.368   2.047  0.5840 -0.8928  0.7299
14854TIP3    H265978   5.025   4.515   2.052 -0.0142 -0.6812 -1.0799
14855TIP3   OH265979   3.460   4.176   4.525  0.0460 -0.2777  0.0500
14855TIP3    H165980   3.451   4.202   4.433  0.6493 -1.9218 -0.4951
14855TIP3    H265981   3.372   4.152   4.553 -0.4344  1.8531  0.4217
14856TIP3   OH265982   1.433   1.900   2.330  0.2403  0.1243 -0.3025
14856TIP3    H165983   1.479   1.984   2.329 -0.7630  0.7637  2.6749
14856TIP3    H265984   1.502   1.834   2.328  1.2064  1.0699  1.0421
14857TIP3   OH265985   3.603   5.826  16.725  0.0270 -0.1543  0.5317
14857TIP3    H165986   3.675   5.837  16.786  0.3542  1.4251 -0.1172
14857TIP3    H265987   3.550   5.756  16.763 -0.3508  1.4725  3.2028
14858TIP3   OH265988   4.676   0.510  14.258 -0.1450  0.2718  0.9712
14858TIP3    H165989   4.726   0.522  14.338  0.1902 -0.0160  0.8054
14858TIP3    H265990   4.597   0.464  14.285  0.3675 -0.5965  1.0010
14859TIP3   OH265991   6.489   5.864  16.401 -0.1740 -0.6227 -0.3432
14859TIP3    H165992   6.417   5.835  16.345  0.3222  1.4488 -2.1107
14859TIP3    H265993   6.453   5.940  16.448 -0.1036 -1.4315  1.0395
14860TIP3   OH265994   4.056   0.620   3.280  0.1892  0.3539  0.1125
14860TIP3    H165995   4.081   0.692   3.337  1.2526 -0.7262  1.0544
14860TIP3    H265996   4.109   0.546   3.311 -1.7189 -1.1205 -0.0811
14861TIP3   OH265997   1.289   5.619   0.413 -0.5839  0.2160 -0.5398
14861TIP3    H165998   1.305   5.692   0.473 -1.2999 -0.1396  0.1016
14861TIP3    H265999   1.194   5.613   0.407 -0.5221 -0.1553 -1.2164
14862TIP3   OH266000   6.753   2.088   5.173 -0.1625 -0.1522  0.1084
14862TIP3    H166001   6.700   2.035   5.115 -0.4294 -0.3509  0.5313
14862TIP3    H266002   6.802   2.024   5.225  2.0277  0.0138 -1.6582
14863TIP3   OH266003   0.285   4.126   4.593  0.2498 -0.6117 -0.5271
14863TIP3    H166004   0.331   4.107   4.511 -0.5895 -1.9959 -0.7087
14863TIP3    H266005   0.193   4.132   4.567  0.1045  0.0464  0.1475
14864TIP3   OH266006   2.868   5.934  13.800  0.1411 -0.0766  0.6589
14864TIP3    H166007   2.868   5.947  13.895  0.3989 -1.0350  0.7972
14864TIP3    H266008   2.782   5.965  13.771  0.4904  1.2925  1.0472
14865TIP3   OH266009   5.353   6.769  14.055  0.6476 -0.2357 -0.1501
14865TIP3    H166010   5.354   6.674  14.071  0.4794  0.0564  1.7792
14865TIP3    H266011   5.284   6.782  13.991 -1.0146 -1.1721  1.4023
14866TIP3   OH266012   5.787   3.931   0.722  0.7719  0.3873 -0.3953
14866TIP3    H166013   5.860   3.910   0.663 -1.2282  2.1576 -3.6100
14866TIP3    H266014   5.826   3.983   0.792  2.6425  0.9804 -1.8616
14867TIP3   OH266015   5.693   5.248  13.294  1.0674 -0.1652 -0.3341
14867TIP3    H166016   5.722   5.159  13.316  0.0152 -0.2367  0.8329
14867TIP3    H266017   5.669   5.243  13.201  0.5616 -1.2343 -0.1587
14868TIP3   OH266018   5.708   2.838   0.066 -0.2946  0.4673 -0.4652
14868TIP3    H166019   5.733   2.808   0.153 -1.2343  0.9370 -0.0242
14868TIP3    H266020   5.708   2.934   0.073  1.3230  0.5468 -1.4647
14869TIP3   OH266021   0.646   1.136   5.663 -0.6213  0.1305  0.2514
14869TIP3    H166022   0.557   1.126   5.695 -0.1678  0.6421  1.7046
14869TIP3    H266023   0.699   1.084   5.723 -0.0594 -1.1169 -1.2932
14870TIP3   OH266024   2.496   2.327  11.816  0.4571 -0.4999  0.2198
14870TIP3    H166025   2.480   2.421  11.816  1.4334 -0.3262  0.9948
14870TIP3    H266026   2.497   2.303  11.723  2.5552  0.6808 -0.0837
14871TIP3   OH266027   4.635   5.680   3.259  0.1248 -0.4194  0.2058
14871TIP3    H166028   4.707   5.718   3.208  1.7602 -1.3490  1.7737
14871TIP3    H266029   4.616   5.598   3.214 -2.2963  1.3886 -2.2083
14872TIP3   OH266030   0.218   2.409  16.693  0.0956  0.3482  0.6980
14872TIP3    H166031   0.253   2.496  16.670 -0.9061  0.7698  0.7524
14872TIP3    H266032   0.151   2.392  16.627  0.6417 -0.6161  0.3911
14873TIP3   OH266033   4.674   3.340   3.700  0.4331  0.6343  0.2655
14873TIP3    H166034   4.720   3.423   3.708  0.4873  0.8461 -1.8029
14873TIP3    H266035   4.591   3.354   3.745  0.3348  1.9070 -0.3000
14874TIP3   OH266036   3.259   1.885   5.165  0.3500  0.9712 -0.6814
14874TIP3    H166037   3.297   1.914   5.248 -2.3938 -0.2009  1.0229
14874TIP3    H266038   3.310   1.807   5.141  0.0351  0.3080  0.7781
14875TIP3   OH266039   6.081   5.153  15.584  0.3546 -0.5288 -0.3981
14875TIP3    H166040   6.014   5.201  15.633 -0.3448 -0.9696 -0.9059
14875TIP3    H266041   6.090   5.200  15.502  1.0061 -0.2037 -0.1413
14876TIP3   OH266042   3.866   2.724  14.178  0.1962  0.4675  0.1436
14876TIP3    H166043   3.806   2.699  14.107  1.2786 -1.0730 -0.2570
14876TIP3    H266044   3.935   2.773  14.133  0.8779 -0.5012  0.1157
14877TIP3   OH266045   6.284   2.952  12.781 -0.0539 -0.1019  0.5181
14877TIP3    H166046   6.283   3.029  12.838 -4.0755 -1.2077  2.0469
14877TIP3    H266047   6.253   2.984  12.697 -1.6574 -0.0253  1.1356
14878TIP3   OH266048   1.057   6.002  13.030 -0.1355 -0.6561 -0.3014
14878TIP3    H166049   1.073   5.911  13.053 -0.1180 -0.4903  0.3622
14878TIP3    H266050   0.990   5.999  12.961 -2.4851 -1.0343  1.9287
14879TIP3   OH266051   4.680   1.219  12.333 -0.1735 -0.0801 -0.1974
14879TIP3    H166052   4.743   1.157  12.371  0.1467  0.2784 -0.1401
14879TIP3    H266053   4.601   1.208  12.386  0.2167  0.3036  0.4808
14880TIP3   OH266054   1.871   1.717  12.138  0.1084  0.0106  0.1373
14880TIP3    H166055   1.897   1.777  12.069 -2.4447  0.8315 -0.1449
14880TIP3    H266056   1.820   1.650  12.093  1.0408 -1.1659  0.7944
14881TIP3   OH266057   3.128   5.879   4.946 -0.5638  0.0490  0.1845
14881TIP3    H166058   3.218   5.910   4.948  0.1859 -2.1704  1.9338
14881TIP3    H266059   3.090   5.910   5.028 -1.3031  0.6531 -0.3737
14882TIP3   OH266060   5.214   4.915  16.466  0.2249  0.2693  0.1738
14882TIP3    H166061   5.176   4.895  16.552  1.6576 -0.8700  0.5672
14882TIP3    H266062   5.287   4.853  16.457  0.3334  0.6371 -1.6982
14883TIP3   OH266063   3.781   2.296   2.040 -0.3437 -0.4880 -0.3804
14883TIP3    H166064   3.792   2.202   2.024  0.3535 -0.5224  0.2844
14883TIP3    H266065   3.732   2.301   2.122  0.3179 -0.2654  0.0037
14884TIP3   OH266066   4.429   1.077  11.610  0.3921 -0.1706 -0.0230
14884TIP3    H166067   4.388   0.994  11.586  1.3799 -0.5200 -0.5162
14884TIP3    H266068   4.423   1.079  11.706 -1.8504  0.3532 -0.1336
14885TIP3   OH266069   2.920   1.745  10.910  0.0831  0.4169 -0.5421
14885TIP3    H166070   2.926   1.752  11.005 -2.4140  1.1835 -0.4234
14885TIP3    H266071   2.870   1.665  10.895 -1.4503  1.4598 -1.1321
14886TIP3   OH266072   6.366   4.819   4.975 -0.3469  0.3010  0.7245
14886TIP3    H166073   6.429   4.877   4.932 -0.8420  0.6830  0.5209
14886TIP3    H266074   6.398   4.813   5.065  0.9734 -0.8967  0.1968
14887TIP3   OH266075   5.215   1.642  13.067  0.3526 -0.3778 -0.1705
14887TIP3    H166076   5.187   1.702  13.137 -0.4514  0.0318 -0.8357
14887TIP3    H266077   5.211   1.555  13.107  0.2912 -0.1082  0.4182
14888TIP3   OH266078   1.670   6.266   6.203  0.4904  0.1923  0.1154
14888TIP3    H166079   1.760   6.255   6.233  1.0730  0.0559 -1.6036
14888TIP3    H266080   1.642   6.179   6.175  0.6556  0.6538 -1.5430
14889TIP3   OH266081   3.747   2.172   0.407 -0.8472 -0.0620  0.3161
14889TIP3    H166082   3.803   2.240   0.369 -0.6709 -0.0470  0.6025
14889TIP3    H266083   3.678   2.220   0.454 -0.0433 -0.0707  1.5300
14890TIP3   OH266084   1.206   2.443   3.598 -0.3971  0.1370 -0.4396
14890TIP3    H166085   1.172   2.366   3.644 -0.4513  0.4326  0.0173
14890TIP3    H266086   1.179   2.430   3.507  1.7831 -1.6616 -0.8860
14891TIP3   OH266087   5.647   5.417   0.909  0.4484 -0.7937 -0.2183
14891TIP3    H166088   5.558   5.453   0.907 -0.0495 -1.8652  1.4390
14891TIP3    H266089   5.662   5.386   0.819 -0.6573 -0.1467 -0.6335
14892TIP3   OH266090   5.188   0.685   0.176 -0.6354 -0.3912 -0.1971
14892TIP3    H166091   5.270   0.649   0.211  0.6191  1.6195 -0.9073
14892TIP3    H266092   5.168   0.631   0.100  0.0584 -0.8982 -0.0261
14893TIP3   OH266093   5.707   1.112  10.996  0.1019  0.5660  0.3274
14893TIP3    H166094   5.716   1.115  11.092  0.7699  0.3098  0.2760
14893TIP3    H266095   5.641   1.178  10.976 -2.1908 -1.3821  1.2185
14894TIP3   OH266096   3.101   1.260  15.590  0.0481 -0.2473 -0.6659
14894TIP3    H166097   3.027   1.218  15.634  1.1340 -0.5928  0.8535
14894TIP3    H266098   3.178   1.218  15.627  1.1329  2.3404  0.1527
14895TIP3   OH266099   4.309   2.764   1.185  0.0698  0.0608 -0.2127
14895TIP3    H166100   4.289   2.821   1.259 -3.6762 -0.2216 -0.9447
14895TIP3    H266101   4.336   2.825   1.116  0.3694  0.5638  0.3328
14896TIP3   OH266102   1.474   1.990   0.149  0.3852  0.0524 -0.1389
14896TIP3    H166103   1.418   2.018   0.221 -0.2897 -1.9900  0.1604
14896TIP3    H266104   1.460   2.055   0.081 -0.6465  0.7864  0.7570
14897TIP3   OH266105   4.330   1.376  12.700 -0.2499  0.3731 -0.0784
14897TIP3    H166106   4.328   1.470  12.721 -1.0059  0.2355  0.4927
14897TIP3    H266107   4.400   1.367  12.635  2.2760  0.8303  2.4746
14898TIP3   OH266108   5.137   2.595   1.154  0.0399 -0.7699 -0.0970
14898TIP3    H166109   5.146   2.507   1.191 -2.5614 -1.5884 -1.3267
14898TIP3    H266110   5.051   2.625   1.183 -0.2352  0.2911 -1.9134
14899TIP3   OH266111   1.131   3.338   1.572  0.2349 -0.2480 -0.4414
14899TIP3    H166112   1.104   3.345   1.664 -0.2492 -0.1244 -0.5945
14899TIP3    H266113   1.060   3.378   1.523  1.1078  0.9222 -0.7840
14900TIP3   OH266114   4.390   3.761  12.895 -0.3503  0.2455 -0.6077
14900TIP3    H166115   4.381   3.674  12.935 -1.8164  0.3258 -0.7353
14900TIP3    H266116   4.342   3.819  12.954 -1.7255  0.5116 -1.9825
14901TIP3   OH266117   1.091   1.818   4.555 -0.2075  0.6492  0.0585
14901TIP3    H166118   1.114   1.910   4.565 -0.6338  0.5098  2.6967
14901TIP3    H266119   0.999   1.813   4.582  0.4528 -0.8892  2.1457
14902TIP3   OH266120   6.452   5.888   2.792  0.1526  0.1516 -0.1023
14902TIP3    H166121   6.536   5.848   2.773  0.9356  0.0519  3.1893
14902TIP3    H266122   6.472   5.981   2.806 -0.4682  0.3325 -0.3838
14903TIP3   OH266123   1.040   1.721   3.054 -1.0814  0.6118 -0.0776
14903TIP3    H166124   1.080   1.792   3.104  0.6396  0.3435 -1.0758
14903TIP3    H266125   0.969   1.690   3.111  0.9550  0.1812  2.2986
14904TIP3   OH266126   4.398   0.933  15.587 -0.5484  0.2398  0.6166
14904TIP3    H166127   4.437   0.985  15.516 -2.5048 -1.7742 -2.0350
14904TIP3    H266128   4.354   0.998  15.642 -1.0035  1.6453 -1.3492
14905TIP3   OH266129   2.971   6.091  15.892  0.1861  0.4181  0.5045
14905TIP3    H166130   3.056   6.050  15.876 -0.0541  0.1192 -0.0314
14905TIP3    H266131   2.950   6.135  15.809 -1.1752 -1.3178 -0.0918
14906TIP3   OH266132   5.188   4.700  12.906  0.0860 -0.7271 -0.4120
14906TIP3    H166133   5.221   4.671  12.820 -0.9580 -1.5047 -0.5587
14906TIP3    H266134   5.267   4.726  12.954  0.6921 -0.3711 -1.5721
14907TIP3   OH266135   1.232   0.895  15.821  0.1941 -0.0202 -0.2499
14907TIP3    H166136   1.300   0.829  15.832  0.2807 -0.0263 -0.8260
14907TIP3    H266137   1.252   0.960  15.888 -0.2377 -0.8617  0.7144
14908TIP3   OH266138   5.841   4.365   1.129  0.5054  0.5085  0.5406
14908TIP3    H166139   5.774   4.323   1.183 -0.3514 -0.6190 -1.3510
14908TIP3    H266140   5.922   4.356   1.180 -0.0613 -1.5516  1.1395
14909TIP3   OH266141   4.996   6.475  13.531  0.2898  0.4174  0.5320
14909TIP3    H166142   5.017   6.493  13.440  0.3770  1.8970  0.8385
14909TIP3    H266143   5.014   6.381  13.542 -2.1495 -0.3523 -1.6274
14910TIP3   OH266144   4.748   0.472   2.410 -0.5145  0.2197 -0.0994
14910TIP3    H166145   4.758   0.489   2.317  2.0258 -1.6061 -0.2061
14910TIP3    H266146   4.756   0.558   2.451  1.3200  0.6907 -1.3714
14911TIP3   OH266147   0.740   3.682  11.852  0.2869  0.0091 -0.2595
14911TIP3    H166148   0.707   3.618  11.789 -1.1065 -0.3864  0.8646
14911TIP3    H266149   0.832   3.657  11.865 -0.2824 -1.8507  0.2789
14912TIP3   OH266150   4.855   5.502  16.645 -0.6202  0.0509  0.4193
14912TIP3    H166151   4.793   5.573  16.629 -0.1352  0.1734 -0.9724
14912TIP3    H266152   4.883   5.514  16.736 -1.0996  1.1923  0.4160
14913TIP3   OH266153   6.227   1.496  12.436 -0.1901  0.1828  0.0455
14913TIP3    H166154   6.294   1.439  12.398 -0.7186 -1.5304  1.6164
14913TIP3    H266155   6.276   1.573  12.466  1.0103 -0.8109  0.6928
14914TIP3   OH266156   5.558   0.383  15.410 -0.6299 -0.1539 -0.3813
14914TIP3    H166157   5.651   0.368  15.392 -1.2071 -3.7546 -0.7998
14914TIP3    H266158   5.551   0.383  15.505 -0.0440  1.3725 -0.3315
14915TIP3   OH266159   3.244   2.102   6.470 -0.8755  0.1211  0.3909
14915TIP3    H166160   3.226   2.032   6.533 -0.7336  0.1522  0.4659
14915TIP3    H266161   3.239   2.182   6.521  1.1506  0.0307  0.7758
14916TIP3   OH266162   3.228   4.175   1.615  0.0797 -0.2738 -0.2210
14916TIP3    H166163   3.150   4.203   1.567 -0.6311 -0.1157  1.0066
14916TIP3    H266164   3.267   4.256   1.646  0.5252 -0.3741 -0.5233
14917TIP3   OH266165   5.348   0.565   1.028  0.0789  0.5468  0.0071
14917TIP3    H166166   5.259   0.593   1.050 -0.5049  0.2859 -1.9018
14917TIP3    H266167   5.405   0.622   1.079 -1.1756  0.2728  1.7668
14918TIP3   OH266168   4.385   4.377   1.813  0.4609 -0.3385 -0.4190
14918TIP3    H166169   4.302   4.400   1.855  0.3262 -0.9331 -0.3538
14918TIP3    H266170   4.439   4.342   1.884  0.3984 -0.9153 -0.6533
14919TIP3   OH266171   5.460   0.997   6.170 -0.6121  0.1633 -0.0227
14919TIP3    H166172   5.430   0.978   6.259  0.8756  1.0624  0.6975
14919TIP3    H266173   5.552   1.023   6.181 -1.0328  2.4571 -1.5530
14920TIP3   OH266174   2.752   4.675  10.824 -0.2015  0.8073  0.4079
14920TIP3    H166175   2.700   4.749  10.791 -0.6681  0.9258  1.4106
14920TIP3    H266176   2.746   4.681  10.919  1.3465  0.5993  0.5321
14921TIP3   OH266177   2.552   2.417  11.419 -0.0772  0.2319  0.1073
14921TIP3    H166178   2.493   2.491  11.426 -1.4079 -0.7882 -0.1541
14921TIP3    H266179   2.636   2.455  11.394 -0.0614  1.9159  2.5397
14922TIP3   OH266180   5.085   3.343   2.805  0.0389 -0.2409  0.1044
14922TIP3    H166181   5.028   3.410   2.842  0.2967 -0.1040  0.2526
14922TIP3    H266182   5.066   3.346   2.711  0.9265  0.8822 -0.0545
14923TIP3   OH266183   2.706   2.627  12.236  0.5900 -0.3762 -0.1585
14923TIP3    H166184   2.766   2.566  12.193 -0.8666  0.0421 -2.9169
14923TIP3    H266185   2.754   2.710  12.238  1.0364 -0.6342 -0.0786
14924TIP3   OH266186   3.190   2.791  17.197 -0.4722  0.4287  0.1130
14924TIP3    H166187   3.144   2.871  17.220 -1.1925  0.0005  0.1864
14924TIP3    H266188   3.199   2.743  17.279 -2.6462 -0.8912 -0.3757
14925TIP3   OH266189   3.330   0.790  12.136 -0.5923  0.0426  0.1335
14925TIP3    H166190   3.244   0.825  12.158 -0.5207  0.0898  0.3427
14925TIP3    H266191   3.312   0.710  12.086 -0.7550 -0.0285  0.3070
14926TIP3   OH266192   1.311   5.130   4.191 -0.0196  0.0721  0.3280
14926TIP3    H166193   1.295   5.171   4.276 -0.2198  1.4226 -0.3606
14926TIP3    H266194   1.262   5.048   4.195 -1.2481  0.8120  0.9685
14927TIP3   OH266195   2.658   0.244  14.481 -0.0122  0.3224 -0.4535
14927TIP3    H166196   2.620   0.210  14.400  1.4730  0.4142 -1.1956
14927TIP3    H266197   2.752   0.244  14.466  0.2862  0.2626  1.3098
14928TIP3   OH266198   1.614   1.203   1.276  0.3593  0.2521 -0.5856
14928TIP3    H166199   1.691   1.259   1.264 -2.0489  3.7625 -0.3928
14928TIP3    H266200   1.622   1.169   1.365  0.8560  1.9429  0.0188
14929TIP3   OH266201   6.009   2.155   1.310  0.3598 -0.7060 -0.1298
14929TIP3    H166202   6.068   2.229   1.299 -0.7570  0.1240 -0.6068
14929TIP3    H266203   6.007   2.140   1.404  0.0501  0.3132  0.0303
14930TIP3   OH266204   0.860   2.903   2.471 -0.8082 -0.4015  0.3219
14930TIP3    H166205   0.788   2.899   2.533 -0.0827 -1.0701  1.1220
14930TIP3    H266206   0.938   2.884   2.522 -0.2272 -1.2252 -0.8337
14931TIP3   OH266207   5.131   1.675   3.901 -0.1599  0.6876  0.3180
14931TIP3    H166208   5.210   1.635   3.868 -0.2083  2.2127 -1.7368
14931TIP3    H266209   5.161   1.751   3.951 -0.2652  0.3840  0.8528
14932TIP3   OH266210   6.070   2.682   1.342  1.0048  0.2046  0.8856
14932TIP3    H166211   6.160   2.653   1.326  1.6841  2.3930  0.5117
14932TIP3    H266212   6.079   2.756   1.402 -0.6192 -0.0406  1.4536
14933TIP3   OH266213   1.690   2.614   5.610 -0.4865 -0.7292  0.5028
14933TIP3    H166214   1.625   2.557   5.651 -1.5258  0.1520  0.0988
14933TIP3    H266215   1.774   2.572   5.628 -1.1513 -1.7530  1.2301
14934TIP3   OH266216   2.313   2.183  12.773  0.2861  0.4428  0.4237
14934TIP3    H166217   2.375   2.253  12.791  1.5363 -0.8952  1.5328
14934TIP3    H266218   2.280   2.158  12.860 -0.4958 -0.0032  0.0014
14935TIP3   OH266219   4.753   5.215   4.553  0.2290 -0.4319  0.2791
14935TIP3    H166220   4.704   5.177   4.626 -1.7653  0.1275 -0.7365
14935TIP3    H266221   4.811   5.144   4.523 -1.0680 -1.6004  0.5230
14936TIP3   OH266222   4.994   6.113  13.961 -0.1076 -0.2137 -0.3578
14936TIP3    H166223   4.952   6.158  14.034  0.8774  1.6335 -0.8748
14936TIP3    H266224   5.087   6.114  13.983  0.1905  0.2991 -1.5876
14937TIP3   OH266225   3.895   6.502  10.931 -0.3312  0.6399 -0.1319
14937TIP3    H166226   3.950   6.579  10.942  0.1370  0.2320  0.4071
14937TIP3    H266227   3.934   6.454  10.857 -0.0854  0.4609  0.1118
14938TIP3   OH266228   3.074   5.210  16.675  0.4707  0.2092 -0.2787
14938TIP3    H166229   3.045   5.289  16.629  0.7103  1.5927  1.8843
14938TIP3    H266230   3.168   5.221  16.687  0.5034 -0.3958  0.0747
14939TIP3   OH266231   6.645   4.244  10.859  0.8030 -0.1524  0.5772
14939TIP3    H166232   6.627   4.160  10.900 -0.6010  0.1371  0.5737
14939TIP3    H266233   6.664   4.223  10.768  1.5903 -0.5717  0.8359
14940TIP3   OH266234   1.406   1.193   6.071 -0.2117  0.0632 -0.2177
14940TIP3    H166235   1.418   1.285   6.098  2.8947 -0.1760 -0.6093
14940TIP3    H266236   1.459   1.143   6.132  0.1064 -1.2685 -1.5663
14941TIP3   OH266237   2.322   0.520  12.316 -0.4723 -0.0162  0.3936
14941TIP3    H166238   2.229   0.544  12.316 -0.0202  1.8143 -2.0434
14941TIP3    H266239   2.360   0.569  12.243  2.6172 -0.0205  1.9398
14942TIP3   OH266240   3.625   1.520   5.035  0.2000  0.0746  0.0931
14942TIP3    H166241   3.614   1.427   5.016  0.5573 -0.0344  0.4124
14942TIP3    H266242   3.713   1.526   5.074 -1.1294  0.0685  3.2105
14943TIP3   OH266243   3.149   3.116  10.907  0.4440  0.0823  0.7447
14943TIP3    H166244   3.179   3.095  10.995 -0.7378 -0.0227  1.1235
14943TIP3    H266245   3.177   3.207  10.893  0.1488  0.2793  1.4337
14944TIP3   OH266246   4.616   3.200   3.154  0.4404 -0.1090 -0.8089
14944TIP3    H166247   4.595   3.110   3.176  1.8969 -0.2314  0.0822
14944TIP3    H266248   4.626   3.244   3.238  0.2484  0.7687 -1.2351
14945TIP3   OH266249   3.159   5.023   2.273 -0.2269 -0.2107  0.1892
14945TIP3    H166250   3.087   5.007   2.334 -0.1875  0.7695  0.4981
14945TIP3    H266251   3.139   5.109   2.235  0.6728 -0.0327  0.1193
14946TIP3   OH266252   5.166   3.765  15.524 -0.2340  0.1558  0.9930
14946TIP3    H166253   5.249   3.718  15.535 -0.2732  0.3681  2.1897
14946TIP3    H266254   5.193   3.856  15.507 -0.1155 -0.4652 -2.5794
14947TIP3   OH266255   4.563   2.317  11.765  0.6654 -0.0089 -0.1590
14947TIP3    H166256   4.482   2.344  11.721  0.4088 -2.7838 -1.5187
14947TIP3    H266257   4.633   2.361  11.718  0.0691  0.7747 -0.3148
14948TIP3   OH266258   6.586   6.583   5.892 -0.1469 -0.4950 -0.0901
14948TIP3    H166259   6.533   6.590   5.972  0.7529  0.0357  0.4698
14948TIP3    H266260   6.676   6.600   5.921  0.2300 -0.5853 -1.1692
14949TIP3   OH266261   5.683   6.107   0.896 -1.2652  0.0063  0.3097
14949TIP3    H166262   5.738   6.103   0.817 -1.2098  3.1100  0.1185
14949TIP3    H266263   5.611   6.047   0.877  0.0228 -1.1719 -1.0638
14950TIP3   OH266264   1.484   4.364  13.522 -0.6541 -0.4349  0.2777
14950TIP3    H166265   1.390   4.353  13.536 -0.5996 -1.0887  0.1688
14950TIP3    H266266   1.491   4.410  13.438 -0.9342  1.8368  1.4722
14951TIP3   OH266267   1.858   1.267  12.218 -0.0843  0.5092  0.2443
14951TIP3    H166268   1.906   1.196  12.261 -1.8719 -0.7128  0.2500
14951TIP3    H266269   1.926   1.315  12.170  1.3244 -0.4880  1.2010
14952TIP3   OH266270   4.674   1.004  15.471  0.0246 -0.2026 -0.1597
14952TIP3    H166271   4.755   0.959  15.445  0.0697 -0.2263  0.0212
14952TIP3    H266272   4.614   0.990  15.398 -0.4193 -1.7276  0.4858
14953TIP3   OH266273   4.938   6.189  12.673  0.0280 -0.0756 -0.5210
14953TIP3    H166274   5.034   6.190  12.669 -0.0412  1.7120 -2.5651
14953TIP3    H266275   4.914   6.102  12.640  0.9074  0.0802 -1.6289
14954TIP3   OH266276   0.644   1.915   3.721  0.2305 -0.1166  0.1140
14954TIP3    H166277   0.647   1.874   3.634 -1.1181 -1.1299  0.5305
14954TIP3    H266278   0.593   1.995   3.708 -0.8664 -0.7992  0.1749
14955TIP3   OH266279   3.191   6.781  14.393 -0.5079 -0.1080  0.1207
14955TIP3    H166280   3.126   6.850  14.381 -0.3887  0.0108  0.1618
14955TIP3    H266281   3.139   6.701  14.405 -0.6480  0.0010  0.2444
14956TIP3   OH266282   4.559   2.669   1.038 -0.3979 -0.2459  0.0135
14956TIP3    H166283   4.470   2.642   1.062  0.0945 -1.0914  0.9695
14956TIP3    H266284   4.586   2.608   0.970 -0.2853 -0.4697  0.2546
14957TIP3   OH266285   3.676   3.696   1.038 -0.2070 -0.1135 -1.1334
14957TIP3    H166286   3.617   3.761   1.076 -0.4322  0.2183 -2.0441
14957TIP3    H266287   3.648   3.688   0.947 -0.3485 -1.6821 -0.9637
14958TIP3   OH266288   4.948   1.885  15.935 -0.0661  0.6923  0.4191
14958TIP3    H166289   4.935   1.883  15.840 -1.0756 -2.0634  0.5796
14958TIP3    H266290   4.880   1.829  15.970 -0.8759  3.1495  2.9760
14959TIP3   OH266291   4.281   2.914   3.562  0.3275  0.1007 -0.1881
14959TIP3    H166292   4.289   3.008   3.549 -0.3505 -0.0295 -1.6692
14959TIP3    H266293   4.366   2.887   3.597  1.0492  1.0336 -1.1861
14960TIP3   OH266294   2.146   1.869  14.041  0.2616  0.2766  0.4244
14960TIP3    H166295   2.209   1.810  14.082  1.1324  0.9592  0.0945
14960TIP3    H266296   2.179   1.881  13.952 -0.0654  1.0279  0.4011
14961TIP3   OH266297   3.052   1.945  14.750  0.7167 -0.4623  0.7645
14961TIP3    H166298   3.035   1.889  14.674 -0.1102 -0.2094  0.7616
14961TIP3    H266299   3.135   1.988  14.730  0.4125 -0.2601 -0.0769
14962TIP3   OH266300   5.376   0.752  16.637  0.4054 -0.0239  0.1299
14962TIP3    H166301   5.337   0.685  16.694  0.1509  0.0076 -0.0094
14962TIP3    H266302   5.395   0.706  16.555  1.4349 -0.2419  0.4907
14963TIP3   OH266303   4.635   2.242   3.003 -0.4600 -0.3490  0.0560
14963TIP3    H166304   4.724   2.278   3.002  0.2620 -2.0363  1.4397
14963TIP3    H266305   4.599   2.270   3.087 -1.1149  0.0368 -0.3519
14964TIP3   OH266306   6.210   3.166   3.005 -0.0616 -0.1784 -0.1261
14964TIP3    H166307   6.147   3.094   2.999 -1.7575  0.8348  3.6149
14964TIP3    H266308   6.159   3.244   2.983  0.1646  0.5165  1.7216
14965TIP3   OH266309   6.058   0.252   0.600  0.2227 -0.4150 -0.0484
14965TIP3    H166310   6.132   0.313   0.596  2.4261 -3.1383 -3.1079
14965TIP3    H266311   6.086   0.184   0.661 -0.2993 -0.7855 -0.2188
14966TIP3   OH266312   3.338   4.136  12.923  0.2033 -0.0478 -0.3811
14966TIP3    H166313   3.317   4.090  13.005 -1.6818  0.8523 -0.3219
14966TIP3    H266314   3.431   4.119  12.909  0.0179 -2.2064  0.6883
14967TIP3   OH266315   5.287   0.848  14.047 -0.4729  0.3150  0.4400
14967TIP3    H166316   5.220   0.888  14.102 -0.3819 -0.2900  1.0017
14967TIP3    H266317   5.245   0.834  13.962 -1.7502 -2.0404  1.4088
14968TIP3   OH266318   0.130   3.275  11.386 -0.0261  0.0210  0.2146
14968TIP3    H166319   0.063   3.236  11.329 -0.4376 -0.0437  0.7350
14968TIP3    H266320   0.136   3.366  11.357  0.5072 -0.2718 -0.6075
14969TIP3   OH266321   5.260   5.363   2.063  0.0306 -0.3976 -0.1699
14969TIP3    H166322   5.272   5.447   2.019  0.1778 -0.7956 -0.8910
14969TIP3    H266323   5.166   5.345   2.056 -0.0605 -0.1174  0.3092
14970TIP3   OH266324   1.960   0.242   5.726  0.3018 -0.6079  0.1904
14970TIP3    H166325   1.948   0.219   5.818 -0.0777  1.1613  0.6051
14970TIP3    H266326   1.896   0.312   5.710  1.4832  0.2308 -0.9650
14971TIP3   OH266327   1.464   3.467  11.879 -0.3954 -1.0965 -0.2385
14971TIP3    H166328   1.526   3.467  11.806  0.8699  1.8619  0.7540
14971TIP3    H266329   1.378   3.468  11.838  0.2977  2.3916 -1.7564
14972TIP3   OH266330   1.261   0.561   5.966 -0.3185  0.0894  0.1708
14972TIP3    H166331   1.313   0.580   5.888  0.1148  1.4111  0.7711
14972TIP3    H266332   1.306   0.487   6.007 -0.2289 -0.2482 -0.5252
14973TIP3   OH266333   2.650   1.222   2.940  0.1013  0.3436  0.6249
14973TIP3    H166334   2.643   1.304   2.990 -0.3223  0.6605  0.0410
14973TIP3    H266335   2.565   1.212   2.898  0.8514  0.7182 -1.0341
14974TIP3   OH266336   0.560   1.924  13.386  0.0940 -0.2471 -0.0296
14974TIP3    H166337   0.519   1.877  13.313 -0.4471  0.3389 -0.1094
14974TIP3    H266338   0.652   1.928  13.362 -0.2431  0.9138 -1.2368
14975TIP3   OH266339   1.966   3.791   5.815 -0.3254 -0.6093 -0.3052
14975TIP3    H166340   1.884   3.773   5.861 -0.1964  0.2173  0.2468
14975TIP3    H266341   1.961   3.736   5.737 -2.0734  0.5667 -1.0534
14976TIP3   OH266342   5.225   5.979   5.633 -0.0814  0.0279  0.4166
14976TIP3    H166343   5.143   6.001   5.589 -0.2913  1.2044  1.3646
14976TIP3    H266344   5.293   6.005   5.570 -0.4077  0.2227  0.1414
14977TIP3   OH266345   6.719   3.609  13.038 -0.1501 -0.1525 -0.2351
14977TIP3    H166346   6.680   3.528  13.005  0.7586 -1.0195  0.7817
14977TIP3    H266347   6.759   3.584  13.122  0.0490  1.3710  0.1350
14978TIP3   OH266348   2.934   0.325   3.605 -0.2674  0.9251  0.1028
14978TIP3    H166349   3.000   0.393   3.617  0.3883  0.2592  0.3252
14978TIP3    H266350   2.979   0.257   3.554 -1.4314  1.4076 -1.5839
14979TIP3   OH266351   6.694   3.594   5.586  0.3164  0.4127 -0.5751
14979TIP3    H166352   6.661   3.514   5.628  3.2504 -0.1696  0.7372
14979TIP3    H266353   6.684   3.662   5.653 -0.4854  0.7655 -1.0480
14980TIP3   OH266354   2.229   5.112   4.524  0.3198 -0.4015  0.4417
14980TIP3    H166355   2.182   5.182   4.477 -1.3663 -1.2258  0.8420
14980TIP3    H266356   2.258   5.153   4.605  1.3793  0.4592 -0.3594
14981TIP3   OH266357   5.422   4.095   2.310 -0.0702  0.2280 -0.3839
14981TIP3    H166358   5.349   4.121   2.253 -0.7125  0.2984  0.4589
14981TIP3    H266359   5.456   4.178   2.344  1.3520  0.2953 -1.9156
14982TIP3   OH266360   2.190   0.247   1.493 -0.4568 -0.1440  0.4518
14982TIP3    H166361   2.106   0.292   1.490 -0.3468  0.0601  0.4064
14982TIP3    H266362   2.253   0.310   1.458 -0.6126 -1.0571 -1.5425
14983TIP3   OH266363   0.242   5.618  17.074  0.6397  0.4598  0.3205
14983TIP3    H166364   0.147   5.603  17.067  0.4013  1.0377  2.0756
14983TIP3    H266365   0.264   5.666  16.993 -0.3418 -0.6910 -0.6570
14984TIP3   OH266366   0.772   0.270  11.219 -0.0382  0.0492 -1.0066
14984TIP3    H166367   0.864   0.296  11.223 -0.5102  1.4514  1.1991
14984TIP3    H266368   0.775   0.177  11.196  1.9704 -0.1657 -0.0281
14985TIP3   OH266369   5.547   2.231   4.380  0.3674  0.0282  0.0446
14985TIP3    H166370   5.637   2.248   4.407 -0.0058 -0.2372  1.5172
14985TIP3    H266371   5.513   2.170   4.446 -0.5209 -0.8293 -1.1651
14986TIP3   OH266372   2.985   4.999   1.846  0.3215 -0.1818 -0.3104
14986TIP3    H166373   3.073   4.965   1.862  0.7833  1.1961  0.1087
14986TIP3    H266374   2.990   5.092   1.870 -1.1697 -0.0292 -0.5451
14987TIP3   OH266375   2.639   0.093  14.973 -0.6806 -0.4871 -0.1159
14987TIP3    H166376   2.669   0.184  14.977  0.0537 -0.6762 -1.1419
14987TIP3    H266377   2.544   0.100  14.977 -0.7173  0.4583 -1.8779
14988TIP3   OH266378   3.977   3.682   6.638 -0.3656 -0.7127  0.1481
14988TIP3    H166379   3.938   3.757   6.681  0.5286 -0.1651  0.0241
14988TIP3    H266380   3.914   3.611   6.650 -2.0074  0.4790 -1.2050
14989TIP3   OH266381   2.423   1.381   0.462  0.2243  0.0542 -0.0130
14989TIP3    H166382   2.500   1.328   0.441 -0.3767 -1.0194  0.4548
14989TIP3    H266383   2.446   1.425   0.544  0.7498  0.5711 -0.4362
14990TIP3   OH266384   0.382   0.188  14.024 -0.1157  0.5400  0.0687
14990TIP3    H166385   0.412   0.108  13.980 -0.8757  0.0736  0.3955
14990TIP3    H266386   0.461   0.242  14.030  0.2686  0.0876 -0.7319
14991TIP3   OH266387   6.149   5.660   1.055  0.0069  0.4041 -0.1367
14991TIP3    H166388   6.104   5.709   1.124 -0.4982 -2.0913  1.3923
14991TIP3    H266389   6.172   5.726   0.990 -0.5905  2.6592  1.8408
14992TIP3   OH266390   1.336   5.377   3.537  0.1554  0.1675  0.5850
14992TIP3    H166391   1.245   5.398   3.517  0.7115  1.9124 -0.2413
14992TIP3    H266392   1.354   5.425   3.618  1.0118  1.7500 -0.5198
14993TIP3   OH266393   1.000   6.073  13.733  0.2587  0.1343  0.6017
14993TIP3    H166394   0.975   5.983  13.754 -2.0015  0.9199  1.3873
14993TIP3    H266395   1.093   6.066  13.709  0.6271 -2.1262  2.4137
14994TIP3   OH266396   3.529   3.441  16.293 -0.2601 -0.5356 -0.2244
14994TIP3    H166397   3.509   3.396  16.211 -0.0164 -0.0865 -0.5318
14994TIP3    H266398   3.464   3.510  16.299  0.2178 -0.0667 -0.4354
14995TIP3   OH266399   3.099   4.715  12.107  0.0892  0.2299 -0.0566
14995TIP3    H166400   3.033   4.762  12.158  0.4883  0.1050  0.5867
14995TIP3    H266401   3.067   4.625  12.103 -1.0633  0.6933 -1.9474
14996TIP3   OH266402   0.648   4.599  12.715  0.1272  0.5254 -0.5924
14996TIP3    H166403   0.578   4.656  12.681 -0.5540  0.1156  0.1123
14996TIP3    H266404   0.729   4.644  12.691 -0.3994  1.5540 -0.4611
14997TIP3   OH266405   0.147   1.704  16.534 -0.0123  0.4295 -0.6378
14997TIP3    H166406   0.208   1.681  16.603 -0.0991 -0.0059 -0.7026
14997TIP3    H266407   0.065   1.659  16.558  0.4092 -1.0638 -1.8529
14998TIP3   OH266408   3.505   0.836  14.108 -0.0183 -0.4740 -0.2548
14998TIP3    H166409   3.574   0.805  14.167  0.0921 -0.0334 -0.1541
14998TIP3    H266410   3.514   0.931  14.108 -0.8633 -0.3892  0.0543
14999TIP3   OH266411   3.588   1.965  13.646  0.4373 -0.4141 -0.1008
14999TIP3    H166412   3.649   1.894  13.625  0.4212 -0.5264  0.2223
14999TIP3    H266413   3.570   2.007  13.562 -0.5578 -1.6052 -0.4847
15000TIP3   OH266414   3.633   6.508  13.609 -0.2503 -0.2998  0.0951
15000TIP3    H166415   3.590   6.456  13.541 -1.7279 -2.3838  2.4899
15000TIP3    H266416   3.595   6.595  13.601  0.7549 -0.0771 -2.6983
15001TIP3   OH266417   0.480   0.157   5.773 -0.0793 -0.4214 -0.2457
15001TIP3    H166418   0.490   0.164   5.868 -1.2497  0.9611 -0.1927
15001TIP3    H266419   0.441   0.241   5.747 -1.7114 -1.5744 -1.6612
15002TIP3   OH266420   6.509   2.849   3.720 -0.7903  0.8807 -0.6501
15002TIP3    H166421   6.450   2.809   3.656 -1.3424  0.6779 -0.0160
15002TIP3    H266422   6.498   2.796   3.799  1.1456  0.0860 -0.8862
15003TIP3   OH266423   5.905   5.590   0.798 -0.2152 -0.3827  0.4312
15003TIP3    H166424   5.971   5.534   0.757 -0.6069 -0.6971  0.2260
15003TIP3    H266425   5.952   5.671   0.818 -0.0948 -0.0700 -0.9986
15004TIP3   OH266426   0.980   4.270   0.854  0.2854  0.2730  0.4668
15004TIP3    H166427   0.885   4.256   0.863  0.6639 -0.9696  2.6930
15004TIP3    H266428   1.001   4.336   0.920  1.2686 -0.7717  1.2130
15005TIP3   OH266429   5.777   6.067  15.128 -0.0826  0.8915  0.4655
15005TIP3    H166430   5.690   6.057  15.165  0.0051  3.0201  1.2772
15005TIP3    H266431   5.763   6.066  15.033 -0.2228 -5.3094  0.3367
15006TIP3   OH266432   4.708   6.409   1.641  0.0422 -0.3934  0.3011
15006TIP3    H166433   4.790   6.394   1.687  1.1002  0.6469 -1.2328
15006TIP3    H266434   4.672   6.488   1.682  0.4894 -0.0423  0.0147
15007TIP3   OH266435   0.612   4.264   0.585  0.0649  0.0735  0.0050
15007TIP3    H166436   0.687   4.283   0.528  0.1041 -0.4948 -0.1363
15007TIP3    H266437   0.535   4.285   0.533  0.0955 -0.6560 -0.3409
15008TIP3   OH266438   1.775   6.365   1.485  0.1264  0.1936 -0.3941
15008TIP3    H166439   1.861   6.405   1.498 -0.6171  1.2739  1.2386
15008TIP3    H266440   1.794   6.271   1.480  1.3911  0.4080  0.0612
15009TIP3   OH266441   2.104   2.190   0.240 -0.5775 -0.5059 -0.4167
15009TIP3    H166442   2.031   2.210   0.299 -0.1534  0.0679 -0.0848
15009TIP3    H266443   2.112   2.268   0.184  1.3138  0.4267  1.1198
15010TIP3   OH266444   3.370   2.425  11.593  0.0827 -0.4320  0.0788
15010TIP3    H166445   3.430   2.418  11.667 -0.0709 -2.4203  0.0197
15010TIP3    H266446   3.426   2.425  11.516  0.0276 -2.1437  0.0305
15011TIP3   OH266447   0.783   5.323   2.821 -0.0360 -0.1809 -0.4361
15011TIP3    H166448   0.765   5.398   2.765 -0.3022 -0.1158 -0.2652
15011TIP3    H266449   0.868   5.290   2.791 -0.4403 -0.4925 -1.2511
15012TIP3   OH266450   5.468   1.832   4.315 -0.3061 -0.1585 -0.1691
15012TIP3    H166451   5.469   1.862   4.224 -1.3737 -0.9961 -0.4638
15012TIP3    H266452   5.377   1.806   4.331  0.0425 -0.7579  0.8889
15013TIP3   OH266453   0.236   2.051  16.533  0.4748 -0.2480  0.3545
15013TIP3    H166454   0.190   2.079  16.612 -0.1866  1.9156 -0.7724
15013TIP3    H266455   0.275   2.131  16.498 -1.5935 -0.6466 -3.0431
15014TIP3   OH266456   4.395   0.116   4.832  0.1850 -0.0399  0.9518
15014TIP3    H166457   4.311   0.149   4.862 -0.9209 -1.5089 -0.4216
15014TIP3    H266458   4.375   0.028   4.797  2.5568 -1.1150  2.1798
15015TIP3   OH266459   3.800   4.110   3.101  0.1228 -0.2759  0.0858
15015TIP3    H166460   3.819   4.202   3.082 -1.8123  0.4095  1.3684
15015TIP3    H266461   3.762   4.076   3.020 -0.0476  0.3000 -0.0754
15016TIP3   OH266462   0.535   6.488   3.567 -0.0432  0.5113 -0.4622
15016TIP3    H166463   0.628   6.491   3.589  0.5034 -1.9792 -2.1252
15016TIP3    H266464   0.495   6.437   3.638  0.3795 -0.8693 -1.1965
15017TIP3   OH266465   0.567   6.074  12.822  0.2233 -0.7638  0.2634
15017TIP3    H166466   0.547   6.165  12.843  1.6492 -0.5591  0.8085
15017TIP3    H266467   0.633   6.049  12.887  1.7818 -1.3410 -1.4990
15018TIP3   OH266468   3.389   0.886   4.529  0.1587  0.2499  0.5828
15018TIP3    H166469   3.330   0.931   4.469  0.3038 -1.1268 -0.6159
15018TIP3    H266470   3.452   0.952   4.555  0.8794  0.5370 -1.8279
15019TIP3   OH266471   5.727   1.453  13.347  0.5680  0.5632 -0.0512
15019TIP3    H166472   5.766   1.453  13.260  1.1994 -1.1116  0.2089
15019TIP3    H266473   5.710   1.545  13.366 -0.1501  0.8936 -2.1801
15020TIP3   OH266474   4.881   3.348  15.776 -0.2798  0.6878 -0.2724
15020TIP3    H166475   4.904   3.321  15.687  0.6540  0.7276 -0.0452
15020TIP3    H266476   4.942   3.300  15.832 -1.3073  0.1333  0.3981
15021TIP3   OH266477   2.846   3.602  13.853  0.0922 -0.3100 -0.3280
15021TIP3    H166478   2.866   3.589  13.946 -0.7380 -0.4911 -0.1678
15021TIP3    H266479   2.931   3.601  13.809  0.5468  0.4706  0.5137
15022TIP3   OH266480   5.685   5.904  11.460  0.1039 -0.0050 -0.3698
15022TIP3    H166481   5.625   5.920  11.533  2.7123  0.3670  1.7446
15022TIP3    H266482   5.748   5.976  11.464  0.3120  0.0148 -2.9959
15023TIP3   OH266483   6.592   5.865   0.222 -0.0354 -0.5009  0.3540
15023TIP3    H166484   6.680   5.848   0.189  0.1663  1.8851 -0.4949
15023TIP3    H266485   6.601   5.944   0.276 -1.6039 -0.3494  0.4292
15024TIP3   OH266486   6.066   5.447  13.645  0.2344  0.5753  0.1046
15024TIP3    H166487   6.032   5.423  13.559  0.2868  1.8093 -0.2590
15024TIP3    H266488   6.133   5.381  13.664  0.5785  0.6093 -1.0073
15025TIP3   OH266489   4.474   6.665   0.487  0.3819 -0.0487  0.2813
15025TIP3    H166490   4.529   6.643   0.562  2.0646  1.2597 -0.5201
15025TIP3    H266491   4.479   6.588   0.431  0.4948 -0.3745  0.7327
15026TIP3   OH266492   0.129   5.642  14.818  0.4108 -0.6190  0.1745
15026TIP3    H166493   0.168   5.729  14.824  0.2608 -0.3380 -2.5212
15026TIP3    H266494   0.159   5.597  14.897 -0.0982  2.0900  1.9726
15027TIP3   OH266495   4.662   2.938   1.685  0.5416  0.3049  0.2903
15027TIP3    H166496   4.751   2.972   1.676  0.7819 -0.0069  1.3902
15027TIP3    H266497   4.629   2.933   1.595  1.9797 -0.5151 -0.2216
15028TIP3   OH266498   3.799   3.621   1.270 -0.4311  0.3056  0.7041
15028TIP3    H166499   3.791   3.646   1.178  0.2165  0.4236  0.6785
15028TIP3    H266500   3.709   3.616   1.302 -0.7639 -1.6670 -0.4646
15029TIP3   OH266501   2.460   5.899  11.872 -0.4371  0.2610  0.1582
15029TIP3    H166502   2.551   5.908  11.842 -0.9451  1.3881 -1.0953
15029TIP3    H266503   2.462   5.824  11.931  1.1829 -0.1525 -0.3826
15030TIP3   OH266504   5.811   3.651   4.062 -0.2302  0.1319  0.6024
15030TIP3    H166505   5.823   3.628   4.154  0.8667 -0.8747  0.2167
15030TIP3    H266506   5.735   3.601   4.034  0.2230 -0.5753  0.6193
15031TIP3   OH266507   2.802   4.590   1.780  0.8045  0.4446  0.5442
15031TIP3    H166508   2.838   4.596   1.868 -2.3016  3.8580  1.7105
15031TIP3    H266509   2.819   4.675   1.741  1.1576 -0.6599 -1.7717
15032TIP3   OH266510   6.697   0.298  14.566  0.2513  0.0530 -0.6245
15032TIP3    H166511   6.685   0.256  14.652  1.4123  3.3365  1.2241
15032TIP3    H266512   6.771   0.253  14.527  0.2865 -0.8721  0.4922
15033TIP3   OH266513   3.422   1.569  14.032  0.2541  0.0980  0.0341
15033TIP3    H166514   3.502   1.618  14.050 -0.1092  0.6042  0.2720
15033TIP3    H266515   3.453   1.480  14.014  0.8071  0.1028  0.9090
15034TIP3   OH266516   5.971   2.071   4.178 -0.2211 -0.1337 -0.2277
15034TIP3    H166517   5.967   2.066   4.082 -0.6859 -0.4852 -0.1971
15034TIP3    H266518   6.063   2.062   4.199 -0.1394 -0.2629 -0.6356
15035TIP3   OH266519   5.447   1.091   4.391 -0.2243  0.4274 -0.1103
15035TIP3    H166520   5.430   1.105   4.484  0.7219  0.3868  0.0720
15035TIP3    H266521   5.363   1.062   4.355 -0.0529 -1.6251  1.1201
15036TIP3   OH266522   3.444   0.173   2.605  0.5015 -0.2719 -0.2853
15036TIP3    H166523   3.462   0.155   2.698 -0.0302 -1.1296 -0.3425
15036TIP3    H266524   3.473   0.263   2.592 -0.2041  0.1421  0.9249
15037TIP3   OH266525   2.730   0.214   3.766 -0.1085  0.0322  0.1251
15037TIP3    H166526   2.795   0.238   3.700 -1.4263 -1.3322 -1.7106
15037TIP3    H266527   2.740   0.120   3.778 -0.4817  0.1242  1.2240
15038TIP3   OH266528   2.413   0.423  14.822  0.4333 -0.2531  0.3411
15038TIP3    H166529   2.491   0.479  14.818  0.3627 -0.0831  1.1553
15038TIP3    H266530   2.340   0.484  14.834  0.2227 -0.4347 -0.0283
15039TIP3   OH266531   5.587   3.777  12.551 -0.0826 -0.2434 -0.2062
15039TIP3    H166532   5.680   3.794  12.538 -0.3421 -0.0025 -1.8097
15039TIP3    H266533   5.555   3.854  12.598  0.4675 -0.2105  0.1219
15040TIP3   OH266534   4.460   0.680  13.167 -0.6792  0.2331 -0.8381
15040TIP3    H166535   4.487   0.760  13.123  0.0060 -0.0700 -0.9666
15040TIP3    H266536   4.406   0.710  13.240  1.5843  0.9351  0.5772
15041TIP3   OH266537   6.442   1.149  16.940 -0.4928  0.1776 -0.8009
15041TIP3    H166538   6.506   1.220  16.946 -0.9006  0.3873  1.5864
15041TIP3    H266539   6.458   1.095  17.017 -1.3280 -1.3830 -1.6892
15042TIP3   OH266540   1.907   5.288  14.070 -0.0362 -0.3979 -0.3528
15042TIP3    H166541   1.970   5.348  14.109  1.1255 -1.4700 -0.5241
15042TIP3    H266542   1.836   5.344  14.040  0.8001  0.8362 -0.0856
15043TIP3   OH266543   5.331   6.488   3.678  0.2372 -0.5970  0.2197
15043TIP3    H166544   5.276   6.564   3.661  0.6470  0.0977  1.9143
15043TIP3    H266545   5.276   6.413   3.654 -0.2892  0.1971 -1.1324
15044TIP3   OH266546   4.041   3.400  15.517  0.9516  0.1063 -0.2094
15044TIP3    H166547   4.053   3.306  15.506  0.1706  0.0940 -0.9755
15044TIP3    H266548   3.981   3.408  15.591  1.4840  0.0223  0.2345
15045TIP3   OH266549   6.282   6.093   4.997 -0.4387  0.5734 -0.6408
15045TIP3    H166550   6.301   6.001   4.977  0.6507  0.3704  1.2070
15045TIP3    H266551   6.225   6.122   4.925  1.2561 -0.8067 -2.6072
15046TIP3   OH266552   2.391   5.336  16.360  0.0886 -0.5756 -0.5394
15046TIP3    H166553   2.444   5.360  16.284 -1.0328  1.6850 -0.6308
15046TIP3    H266554   2.420   5.395  16.429 -1.2857 -0.3026 -0.1876
15047TIP3   OH266555   2.528   5.495   1.485 -0.1939  0.1577  0.2235
15047TIP3    H166556   2.583   5.545   1.425  0.6439 -3.0682 -1.8386
15047TIP3    H266557   2.590   5.451   1.544 -0.6925 -1.1134 -0.1752
15048TIP3   OH266558   5.740   5.643   2.378  0.3046 -0.3600  0.6442
15048TIP3    H166559   5.799   5.656   2.304 -0.3030  1.0158  0.3733
15048TIP3    H266560   5.796   5.645   2.455  1.1533 -3.3692  0.1570
15049TIP3   OH266561   3.404   0.528  12.690 -0.0388 -0.2654  0.7443
15049TIP3    H166562   3.395   0.440  12.654 -1.0135  0.7858 -1.7057
15049TIP3    H266563   3.325   0.574  12.660  0.3375  1.3653  2.2003
15050TIP3   OH266564   1.285   0.120   2.997  0.3624  0.0331  0.0707
15050TIP3    H166565   1.324   0.202   3.026 -1.1151  0.1605  1.7960
15050TIP3    H266566   1.224   0.145   2.928 -0.3774  0.4651  0.8622
15051TIP3   OH266567   3.914   4.850  16.448 -0.2485  0.5135  0.3070
15051TIP3    H166568   3.964   4.768  16.447  2.4592  2.1169 -1.3888
15051TIP3    H266569   3.862   4.848  16.368  0.9201  1.0875 -0.4728
15052TIP3   OH266570   6.198   6.375   5.838 -0.3298 -0.4227 -0.0448
15052TIP3    H166571   6.173   6.439   5.905 -1.8526 -0.4428 -0.5683
15052TIP3    H266572   6.228   6.428   5.764 -2.2198 -0.2611 -0.7260
15053TIP3   OH266573   0.890   4.479  16.978  0.0294 -0.1373  0.7279
15053TIP3    H166574   0.947   4.528  16.919 -2.0149  0.7146 -0.5797
15053TIP3    H266575   0.872   4.539  17.050 -0.5554  0.1713  0.3199
15054TIP3   OH266576   5.644   0.819  16.853 -0.2586 -0.4783 -0.0360
15054TIP3    H166577   5.711   0.867  16.805 -1.0688 -0.0207 -0.7100
15054TIP3    H266578   5.574   0.882  16.868 -1.4532 -1.5053 -1.1853
15055TIP3   OH266579   2.807   1.400  16.062 -0.1293 -0.2683 -0.1583
15055TIP3    H166580   2.800   1.452  15.982 -2.4948 -0.1542  0.0912
15055TIP3    H266581   2.860   1.454  16.121 -1.5497  1.3676 -0.3299
15056TIP3   OH266582   5.908   0.108  12.851 -0.3298 -0.0721  0.1842
15056TIP3    H166583   5.930   0.138  12.763 -0.3097 -0.9330 -0.1067
15056TIP3    H266584   5.817   0.136  12.864  0.5200  2.5125  0.9728
15057TIP3   OH266585   4.581   6.081   5.034  0.0218  0.0279  0.5420
15057TIP3    H166586   4.660   6.028   5.027 -1.2164 -1.8891  0.6890
15057TIP3    H266587   4.603   6.148   5.100  1.5529 -0.3760  0.4623
15058TIP3   OH266588   2.630   3.208  14.991  0.6857 -0.1150 -0.1992
15058TIP3    H166589   2.567   3.268  15.030 -0.0058  0.1755 -1.7503
15058TIP3    H266590   2.646   3.242  14.904  1.6918 -1.1509 -0.4403
15059TIP3   OH266591   4.406   6.298   4.545  0.0310  0.6590  0.5686
15059TIP3    H166592   4.318   6.284   4.510 -0.2348  1.2134  1.0200
15059TIP3    H266593   4.459   6.318   4.468  0.0453 -0.9670  0.1304
15060TIP3   OH266594   4.742   4.787   2.887 -0.0491  0.2765 -0.3626
15060TIP3    H166595   4.751   4.727   2.813 -0.2298 -0.0372 -0.1316
15060TIP3    H266596   4.753   4.732   2.965 -0.6845  0.4555 -0.1413
15061TIP3   OH266597   4.598   5.016  15.753 -0.2142  1.1141  0.3822
15061TIP3    H166598   4.647   4.991  15.674 -1.9553  0.3837 -0.5107
15061TIP3    H266599   4.660   5.004  15.825  0.7318 -0.3651 -0.6472
15062TIP3   OH266600   4.255   2.567   3.739  0.4805  0.2587 -0.6396
15062TIP3    H166601   4.346   2.545   3.719  0.1703 -0.8793 -0.8456
15062TIP3    H266602   4.207   2.545   3.659 -0.3677 -1.6967  0.3766
15063TIP3   OH266603   6.292   0.332  10.712  0.4474  0.3556 -0.0954
15063TIP3    H166604   6.319   0.420  10.686 -1.0651  1.5748  2.2746
15063TIP3    H266605   6.369   0.294  10.754  0.6288  1.1596  0.3138
15064TIP3   OH266606   5.230   1.567   5.015 -0.0804 -0.2717 -0.2315
15064TIP3    H166607   5.251   1.474   5.025 -0.6204 -0.3607  0.0792
15064TIP3    H266608   5.181   1.589   5.094  2.0809  0.8545  0.8425
15065TIP3   OH266609   1.102   3.285   0.353  0.2503  0.0301 -0.0663
15065TIP3    H166610   1.166   3.356   0.360  1.6034 -1.0097 -1.5594
15065TIP3    H266611   1.076   3.267   0.443  2.7567 -0.1436  0.6539
15066TIP3   OH266612   0.614   1.399   1.475 -0.3503  0.4343 -0.2397
15066TIP3    H166613   0.697   1.364   1.507 -0.9771 -2.0399 -1.2441
15066TIP3    H266614   0.578   1.447   1.550  2.8910  3.3319 -0.4011
15067TIP3   OH266615   2.330   1.653   2.745  0.2200 -0.0128 -0.6067
15067TIP3    H166616   2.316   1.746   2.726 -0.8406 -0.2486 -1.0045
15067TIP3    H266617   2.342   1.650   2.840 -0.8585  0.4031 -0.4482
15068TIP3   OH266618   5.490   4.815  12.219  0.4033  0.3810 -1.0003
15068TIP3    H166619   5.568   4.761  12.209  0.9786  1.0636 -0.2383
15068TIP3    H266620   5.491   4.843  12.310 -0.4016  0.9048 -1.1429
15069TIP3   OH266621   5.897   4.743  13.263  0.7725  0.1347 -0.0875
15069TIP3    H166622   5.952   4.704  13.331  1.8972  0.7031 -0.6645
15069TIP3    H266623   5.822   4.683  13.256 -0.4934  1.2424  3.2093
15070TIP3   OH266624   6.267   4.041  11.947 -0.3167 -0.4842  0.1066
15070TIP3    H166625   6.355   4.070  11.969  0.4817 -0.6496 -2.6742
15070TIP3    H266626   6.274   3.945  11.940 -1.2081 -0.6982  1.8514
15071TIP3   OH266627   6.673   2.616  12.027 -0.0111 -0.2430 -0.1681
15071TIP3    H166628   6.689   2.558  12.101 -0.0416  0.1773  0.1672
15071TIP3    H266629   6.647   2.557  11.956 -0.4641 -0.6029  0.2949
15072TIP3   OH266630   5.794   5.496  14.519 -0.1750 -0.1793 -0.3172
15072TIP3    H166631   5.789   5.591  14.507 -0.1926 -0.1023  0.3205
15072TIP3    H266632   5.733   5.461  14.453 -2.4619  0.3892  1.4290
15073TIP3   OH266633   1.540   1.853   4.337  0.4104  0.2681 -0.9113
15073TIP3    H166634   1.479   1.810   4.278 -1.6714  3.3222 -1.1000
15073TIP3    H266635   1.575   1.926   4.286  1.6354  0.5611  0.3237
15074TIP3   OH266636   6.363   2.954   5.588  0.9838 -0.3150  0.0769
15074TIP3    H166637   6.373   2.908   5.672  1.0926  0.7494  0.6550
15074TIP3    H266638   6.392   3.043   5.606 -1.8235  0.7256 -0.3126
15075TIP3   OH266639   4.246   6.432  12.999  0.3039  0.2642 -0.2939
15075TIP3    H166640   4.276   6.344  12.975  0.3600  0.0404  0.5664
15075TIP3    H266641   4.247   6.432  13.095  0.5233  1.2821 -0.2886
15076TIP3   OH266642   4.319   1.886   4.389  0.3584 -0.2150  0.6711
15076TIP3    H166643   4.405   1.889   4.431  0.0778 -1.8787  1.4047
15076TIP3    H266644   4.264   1.943   4.443  0.8727  0.4580  0.4881
15077TIP3   OH266645   0.572   5.360   2.410  0.0264 -0.3929 -0.1921
15077TIP3    H166646   0.561   5.293   2.343 -0.5728 -0.0364 -0.4485
15077TIP3    H266647   0.572   5.443   2.362 -2.6269  0.0148  0.4403
15078TIP3   OH266648   4.650   1.202  16.470 -1.0755  0.3439 -0.5034
15078TIP3    H166649   4.684   1.220  16.382 -0.5305  0.7419 -0.2152
15078TIP3    H266650   4.599   1.122  16.460 -0.0639 -0.2577 -0.9546
15079TIP3   OH266651   1.467   2.638   4.264 -0.1489  0.2040 -0.3082
15079TIP3    H166652   1.389   2.630   4.319  0.6126  0.3834  0.8101
15079TIP3    H266653   1.502   2.549   4.259 -0.9642 -0.0573 -1.6301
15080TIP3   OH266654   0.290   6.538  12.833  0.0536 -0.1442  0.0362
15080TIP3    H166655   0.355   6.589  12.882  1.3348  0.4056 -2.1631
15080TIP3    H266656   0.342   6.485  12.773 -1.4628 -1.0798 -0.4772
15081TIP3   OH266657   5.762   1.718   5.721 -0.2126 -0.0078  0.6899
15081TIP3    H166658   5.840   1.683   5.764 -0.6086 -1.0010  0.6190
15081TIP3    H266659   5.795   1.764   5.644  0.2835 -0.7849  0.4291
15082TIP3   OH266660   1.413   2.282   1.245  0.6787 -0.0920  0.1359
15082TIP3    H166661   1.446   2.325   1.324  1.9145 -1.3837  0.3403
15082TIP3    H266662   1.420   2.188   1.264  0.1974 -0.4102 -1.1897
15083TIP3   OH266663   6.168   0.466  11.583  0.3544  0.1954  0.5406
15083TIP3    H166664   6.161   0.376  11.550 -1.2144  0.2021  0.8236
15083TIP3    H266665   6.262   0.482  11.588  0.6562 -0.8408 -1.1396
15084TIP3   OH266666   2.248   5.557  14.998 -0.0660  0.1398  0.1023
15084TIP3    H166667   2.217   5.625  14.938 -0.2313 -0.0122  0.0151
15084TIP3    H266668   2.331   5.591  15.032  0.4474 -0.1381 -0.8515
15085TIP3   OH266669   4.537   3.081  13.755  0.0678 -0.4872  0.4784
15085TIP3    H166670   4.529   3.171  13.724 -1.5758 -0.3112  1.3363
15085TIP3    H266671   4.529   3.028  13.676 -0.2320  0.0870  0.1194
15086TIP3   OH266672   1.021   1.421   2.400  0.5461 -0.2021 -0.0756
15086TIP3    H166673   1.011   1.400   2.493 -0.3950  1.2666  0.1615
15086TIP3    H266674   0.961   1.361   2.356  2.2072 -2.0530  0.1048
15087TIP3   OH266675   5.122   1.716  17.205  0.0393  0.3352 -0.3277
15087TIP3    H166676   5.066   1.762  17.142 -0.6835 -0.7242 -0.4678
15087TIP3    H266677   5.156   1.641  17.157  2.2853  1.4264 -0.5040
15088TIP3   OH266678   1.901   0.268   1.731 -0.1193 -0.1259  0.2243
15088TIP3    H166679   1.898   0.264   1.636 -1.5336  0.4131  0.2337
15088TIP3    H266680   1.994   0.258   1.753  0.3471  0.8360 -1.2575
15089TIP3   OH266681   4.168   1.519  16.043 -0.1695 -0.4173  0.2899
15089TIP3    H166682   4.258   1.501  16.069  0.1022  0.2235 -0.2013
15089TIP3    H266683   4.115   1.461  16.098  0.4204  0.6939  2.0693
15090TIP3   OH266684   3.592   5.423   1.711  0.1937  0.4482 -0.4084
15090TIP3    H166685   3.630   5.443   1.625  0.6562  1.1830 -0.0351
15090TIP3    H266686   3.642   5.477   1.772  0.1467 -0.3927  0.3781
15091TIP3   OH266687   3.516   4.727   0.772 -0.5980  0.0619 -0.3723
15091TIP3    H166688   3.599   4.724   0.725 -0.3202 -2.6568  0.2403
15091TIP3    H266689   3.526   4.800   0.833  2.3393 -1.7918  1.4859
15092TIP3   OH266690   6.448   5.497   1.947 -0.1636  0.0024 -0.4816
15092TIP3    H166691   6.457   5.496   2.042  2.6612  0.4104 -0.6959
15092TIP3    H266692   6.367   5.545   1.931  0.0744  1.2025  1.6741
15093TIP3   OH266693   0.523   5.823   1.498  0.5204  0.0050  0.9539
15093TIP3    H166694   0.555   5.734   1.481  1.1538  0.2863  0.6729
15093TIP3    H266695   0.581   5.857   1.566  0.7435  0.4696  0.5353
15094TIP3   OH266696   3.075   0.293  12.582  0.2304 -0.3973  0.0854
15094TIP3    H166697   3.051   0.202  12.599 -2.3104  0.4839  1.5886
15094TIP3    H266698   3.098   0.295  12.489 -0.2091 -2.4489 -0.0938
15095TIP3   OH266699   4.697   1.100   5.041 -0.2812 -0.1329  0.3352
15095TIP3    H166700   4.729   1.189   5.057 -0.8063  0.1076  0.0517
15095TIP3    H266701   4.708   1.087   4.947 -3.2229  0.8361 -0.1889
15096TIP3   OH266702   3.151   2.688   4.471 -0.7028 -0.3033  0.2466
15096TIP3    H166703   3.187   2.669   4.557 -2.7908 -0.1770  1.1728
15096TIP3    H266704   3.086   2.619   4.456 -0.5029 -0.2111 -1.1393
15097TIP3   OH266705   4.843   6.643   4.342 -0.5845 -1.0621  0.3395
15097TIP3    H166706   4.913   6.595   4.298  1.2413  2.2304 -0.5647
15097TIP3    H266707   4.878   6.662   4.429  0.6916  2.5438 -0.8712
15098TIP3   OH266708   4.444   6.717  12.646  0.0038 -0.4713 -1.0316
15098TIP3    H166709   4.352   6.710  12.617 -0.8506 -0.5121  1.5642
15098TIP3    H266710   4.464   6.631  12.683  1.0674 -0.4300 -1.4937
15099TIP3   OH266711   5.695   1.578  16.194 -0.7018 -0.2718  0.4670
15099TIP3    H166712   5.766   1.514  16.194  0.4523  1.0064  0.4042
15099TIP3    H266713   5.634   1.545  16.128  0.5901 -0.5264 -0.6172
15100TIP3   OH266714   1.037   3.119  12.004  0.0956  0.2740  0.3344
15100TIP3    H166715   1.037   3.044  12.063 -1.3411  0.3002  0.3864
15100TIP3    H266716   0.964   3.173  12.034  1.4690  1.9905  0.6657
15101TIP3   OH266717   1.915   4.593   4.516 -0.1675 -0.1801  0.6263
15101TIP3    H166718   1.844   4.654   4.536  0.4305  0.6161  0.3192
15101TIP3    H266719   1.883   4.543   4.440 -0.8150 -0.5260  1.1220
15102TIP3   OH266720   1.924   6.158   0.667  0.1324 -0.3235  0.3922
15102TIP3    H166721   1.886   6.103   0.736  1.1798 -1.3398  0.1729
15102TIP3    H266722   1.863   6.150   0.593  0.6862 -1.8369  0.0860
15103TIP3   OH266723   6.044   6.780   6.366 -0.0738  0.7453 -0.0998
15103TIP3    H166724   6.132   6.744   6.350 -0.4108 -0.4961  0.8408
15103TIP3    H266725   6.059   6.851   6.429  0.2078  0.2579  0.3905
15104TIP3   OH266726   2.862   4.893   2.283  0.6273  0.5397 -0.2584
15104TIP3    H166727   2.807   4.902   2.361  1.3867  0.4673  0.2976
15104TIP3    H266728   2.884   4.800   2.279 -0.6774  0.2684 -1.4521
15105TIP3   OH266729   5.039   2.071  15.491 -0.4653  0.5541 -0.4736
15105TIP3    H166730   4.982   2.018  15.435 -0.7901  1.4625 -1.0148
15105TIP3    H266731   5.098   2.116  15.431 -0.6668  1.3600 -0.0775
15106TIP3   OH266732   4.934   1.618   4.449 -0.6202  0.2202  0.4517
15106TIP3    H166733   4.921   1.533   4.492 -0.2823  0.5352  1.1862
15106TIP3    H266734   5.028   1.634   4.456 -0.6970  0.7039  0.4037
15107TIP3   OH266735   2.615   2.257  14.094 -0.4713  0.0912 -0.5666
15107TIP3    H166736   2.526   2.275  14.062 -0.6189  0.6379  0.1149
15107TIP3    H266737   2.653   2.198  14.029 -1.1720  0.2319 -1.1148
15108TIP3   OH266738   0.947   5.187  15.934  0.8125 -0.4445  0.1642
15108TIP3    H166739   0.878   5.160  15.874  3.5359 -2.1351 -2.3181
15108TIP3    H266740   0.947   5.120  16.002 -0.8244  0.2954  0.9362
15109TIP3   OH266741   2.629   2.035  12.874 -0.6203 -0.3124  0.5589
15109TIP3    H166742   2.618   1.959  12.931 -0.3030 -0.6871  0.1186
15109TIP3    H266743   2.580   2.013  12.795 -1.7842  0.5720  1.0328
15110TIP3   OH266744   4.263   3.487  12.150 -0.1845  0.0074 -0.3036
15110TIP3    H166745   4.268   3.392  12.150 -2.1639 -0.1304  0.4747
15110TIP3    H266746   4.304   3.514  12.068 -5.1569 -1.9066 -3.6472
15111TIP3   OH266747   3.590   1.697   5.878  0.5049 -1.2914 -0.6293
15111TIP3    H166748   3.605   1.646   5.958  0.8010 -1.1215 -0.5761
15111TIP3    H266749   3.497   1.718   5.880  0.8182  0.0100  0.4339
15112TIP3   OH266750   6.372   1.922  15.168 -0.2411  0.2935 -0.5110
15112TIP3    H166751   6.364   1.988  15.100 -1.3966 -1.0690 -1.7160
15112TIP3    H266752   6.282   1.897  15.189  0.0598  1.1874  2.0109
15113TIP3   OH266753   1.734   5.528   6.027  0.2594 -0.2756  0.0438
15113TIP3    H166754   1.689   5.612   6.033 -0.1374 -0.4959  0.1833
15113TIP3    H266755   1.826   5.548   6.046 -0.0366 -0.0639  1.2902
15114TIP3   OH266756   3.094   2.691  14.980 -0.4092  0.2597  0.2978
15114TIP3    H166757   3.076   2.732  15.065  0.0760  3.2641 -0.9698
15114TIP3    H266758   3.029   2.622  14.972 -0.7589  0.2322  2.9128
15115TIP3   OH266759   3.261   0.793   0.221 -0.4218 -0.1096 -0.0565
15115TIP3    H166760   3.327   0.862   0.211 -0.4714 -0.2083 -1.1971
15115TIP3    H266761   3.218   0.790   0.135 -0.3512 -1.6210 -0.0423
15116TIP3   OH266762   4.124   6.046   5.698 -0.0694  0.2704  0.3346
15116TIP3    H166763   4.201   5.989   5.688 -0.4882 -0.3335  0.5265
15116TIP3    H266764   4.070   6.002   5.763 -0.3584  0.9407  0.5521
15117TIP3   OH266765   0.689   6.682   6.558 -0.4014  0.0329 -0.2626
15117TIP3    H166766   0.674   6.777   6.564 -0.5514 -0.0641  0.9875
15117TIP3    H266767   0.602   6.645   6.542 -0.7900 -0.1170  2.0607
15118TIP3   OH266768   6.380   1.500   6.451  0.0875  0.1614  0.1045
15118TIP3    H166769   6.326   1.564   6.405  0.3078  1.4487  1.6214
15118TIP3    H266770   6.470   1.526   6.430  0.2009  1.0660  1.6458
15119TIP3   OH266771   4.855   3.341  10.397 -0.1324 -0.3615 -0.0690
15119TIP3    H166772   4.942   3.303  10.386  0.8648  2.1836 -1.1630
15119TIP3    H266773   4.866   3.408  10.465 -0.6646  1.6471 -1.9096
15120TIP3   OH266774   5.625   6.394  11.320  0.4399  0.2556 -0.0806
15120TIP3    H166775   5.578   6.344  11.388 -1.8084  0.6753 -1.2736
15120TIP3    H266776   5.717   6.373  11.335 -0.1968 -1.5735  1.5877
15121TIP3   OH266777   3.613   5.732  15.300 -0.4796  0.0386  0.2280
15121TIP3    H166778   3.693   5.732  15.352  1.6718  0.4340 -2.9675
15121TIP3    H266779   3.618   5.652  15.249 -1.6729  0.5394 -0.6897
15122TIP3   OH266780   0.588   1.805  16.747  0.1527 -0.0980  0.2332
15122TIP3    H166781   0.505   1.854  16.748 -0.9869 -1.9183 -1.5860
15122TIP3    H266782   0.601   1.780  16.839 -1.1979  0.4147  0.5781
15123TIP3   OH266783   3.996   2.520   5.023 -0.0574 -0.2717 -0.0900
15123TIP3    H166784   4.064   2.585   5.037 -0.5637  0.1135  0.6533
15123TIP3    H266785   3.953   2.512   5.108 -0.0483 -1.5279 -0.1947
15124TIP3   OH266786   0.659   4.139  13.932 -0.8027 -0.2653 -0.3783
15124TIP3    H166787   0.565   4.132  13.914 -0.8778 -1.9852  0.6172
15124TIP3    H266788   0.695   4.054  13.908  0.3753  0.1052  0.0183
15125TIP3   OH266789   6.432   4.805  14.480  0.2464 -0.1661 -0.1428
15125TIP3    H166790   6.436   4.710  14.483 -0.7114 -0.1740  1.2782
15125TIP3    H266791   6.346   4.825  14.443 -1.8742  0.1075  4.5371
15126TIP3   OH266792   2.078   4.759  13.552 -0.2221  0.2060 -0.1918
15126TIP3    H166793   2.017   4.708  13.498 -1.6478  1.0400  0.5733
15126TIP3    H266794   2.095   4.838  13.501 -0.1984  0.2028 -0.1880
15127TIP3   OH266795   3.492   5.858  17.059 -0.1595 -0.7955  0.3908
15127TIP3    H166796   3.569   5.805  17.040 -1.2887 -1.5062 -2.3172
15127TIP3    H266797   3.419   5.797  17.057 -1.1708  0.4016 -0.1730
15128TIP3   OH266798   1.977   1.431   3.020 -0.2203 -0.2087 -0.1627
15128TIP3    H166799   1.882   1.442   3.010 -0.3432 -0.8501  0.2556
15128TIP3    H266800   2.001   1.495   3.087 -0.5831 -0.9998  0.7277
15129TIP3   OH266801   3.157   3.786   2.586 -0.6767  0.3011  0.1923
15129TIP3    H166802   3.083   3.754   2.534  0.1622  0.3365 -1.0215
15129TIP3    H266803   3.137   3.758   2.675 -0.8640 -1.9827 -0.5449
15130TIP3   OH266804   3.000   0.893  13.178 -0.4774  0.3529  0.0543
15130TIP3    H166805   2.956   0.913  13.095 -0.3013  0.5605  0.0120
15130TIP3    H266806   3.082   0.851  13.152 -1.0212 -0.7990  0.1413
15131TIP3   OH266807   4.953   3.249   5.396  0.0782 -0.2318 -0.8962
15131TIP3    H166808   4.931   3.156   5.401 -0.1754 -0.2128 -1.6376
15131TIP3    H266809   4.918   3.278   5.312 -1.7421  1.0585  0.2814
15132TIP3   OH266810   4.727   1.929  15.006 -0.3754  0.4787 -0.3569
15132TIP3    H166811   4.781   1.944  14.929  0.4508 -0.9323 -0.0665
15132TIP3    H266812   4.678   2.011  15.017 -0.2960  0.8120 -2.1950
15133TIP3   OH266813   4.512   1.753   1.121 -0.2648 -0.2896 -0.1272
15133TIP3    H166814   4.551   1.694   1.186  1.3723 -0.0422 -0.8517
15133TIP3    H266815   4.528   1.841   1.156  2.5353 -0.0419 -1.8031
15134TIP3   OH266816   4.719   0.768  11.869  0.1126  0.1873  0.1862
15134TIP3    H166817   4.787   0.712  11.832 -0.1538  0.4394 -0.6876
15134TIP3    H266818   4.758   0.855  11.871  0.6132 -0.0607  1.7658
15135TIP3   OH266819   0.598   3.859  13.920 -0.5487 -0.3809 -0.3674
15135TIP3    H166820   0.534   3.787  13.916 -0.4029 -0.5278 -0.0891
15135TIP3    H266821   0.610   3.885  13.829 -1.1176 -0.2557 -0.4105
15136TIP3   OH266822   4.872   4.153   2.790 -0.4586 -0.0941  0.2773
15136TIP3    H166823   4.872   4.237   2.744 -0.6977 -0.0190  0.4201
15136TIP3    H266824   4.806   4.101   2.745  1.8954 -1.3309 -1.9187
15137TIP3   OH266825   3.862   5.371  12.191  0.3356  0.0604  0.7306
15137TIP3    H166826   3.792   5.413  12.140  1.9237 -0.2084 -1.7559
15137TIP3    H266827   3.896   5.303  12.133  0.9887 -1.5043  2.8993
15138TIP3   OH266828   3.166   6.377  16.007  0.1834  0.7576 -0.4799
15138TIP3    H166829   3.079   6.349  16.035 -0.2551  0.8907 -1.7072
15138TIP3    H266830   3.218   6.297  16.003  0.0829  0.6598  0.0818
15139TIP3   OH266831   3.514   6.608   3.353  0.0771 -0.0031  0.3913
15139TIP3    H166832   3.603   6.573   3.352  0.0100 -0.2364  1.7994
15139TIP3    H266833   3.491   6.612   3.445 -1.3275  0.1815  0.0433
15140TIP3   OH266834   4.682   6.396  13.741 -0.1646  0.3332  0.0225
15140TIP3    H166835   4.684   6.455  13.817  1.2448  0.0449  0.2262
15140TIP3    H266836   4.708   6.311  13.776 -4.0851 -0.9462  0.1337
15141TIP3   OH266837   0.505   3.040   4.936  0.3042 -1.1973  0.6792
15141TIP3    H166838   0.480   3.128   4.907 -0.5712 -0.6719  2.8735
15141TIP3    H266839   0.591   3.026   4.897  0.7442  0.9038  0.7927
15142TIP3   OH266840   0.320   0.403   5.168  0.2922 -0.0137  0.0776
15142TIP3    H166841   0.331   0.385   5.075 -1.2168  0.9089 -0.2916
15142TIP3    H266842   0.355   0.492   5.179  1.1672 -0.4144  0.5363
15143TIP3   OH266843   5.010   0.159   1.417  0.1059  0.7550  0.5797
15143TIP3    H166844   5.067   0.219   1.465  2.3424 -0.4581 -0.4632
15143TIP3    H266845   5.028   0.177   1.325 -3.1963  2.1698  0.1442
15144TIP3   OH266846   4.609   2.386  13.184 -0.4142  0.0072  0.0485
15144TIP3    H166847   4.603   2.302  13.137  1.9829 -0.7751  1.0478
15144TIP3    H266848   4.598   2.363  13.276 -1.9469  1.1038  0.1454
15145TIP3   OH266849   4.759   2.558  15.791  0.5398 -0.3778 -0.3372
15145TIP3    H166850   4.760   2.539  15.884  1.0795  1.5016  0.0621
15145TIP3    H266851   4.848   2.585  15.770  0.0071  0.9616 -1.0013
15146TIP3   OH266852   1.812   0.804   4.669 -0.1230 -0.6437 -0.2899
15146TIP3    H166853   1.873   0.868   4.707  1.2165 -2.2330  0.2966
15146TIP3    H266854   1.732   0.854   4.655  0.2915  0.7234  1.8811
15147TIP3   OH266855   0.834   5.538  13.488 -0.0538  0.2890  0.7172
15147TIP3    H166856   0.837   5.612  13.428  0.9461 -0.6211 -0.3725
15147TIP3    H266857   0.872   5.571  13.569 -1.1294  1.4409  0.7598
15148TIP3   OH266858   3.418   5.091  12.897 -0.0628 -0.1778 -0.0896
15148TIP3    H166859   3.347   5.036  12.864 -0.9272  1.1127 -0.4280
15148TIP3    H266860   3.378   5.178  12.907  0.8437  0.0437  1.9577
15149TIP3   OH266861   6.715   6.039   1.308  0.5153 -0.1782  0.0301
15149TIP3    H166862   6.801   5.998   1.302  1.2115  1.2428 -0.0277
15149TIP3    H266863   6.674   6.021   1.223  1.0866 -0.1459 -0.2545
15150TIP3   OH266864   2.434   0.259  12.658 -0.3360 -0.0850 -0.5357
15150TIP3    H166865   2.444   0.214  12.741  0.2472  1.7688  0.4323
15150TIP3    H266866   2.340   0.275  12.650 -0.2494  1.1230  0.5636
15151TIP3   OH266867   6.453   0.008   1.835 -0.1643  0.2087  0.6925
15151TIP3    H166868   6.471   0.003   1.741  1.4759 -0.4701  1.0255
15151TIP3    H266869   6.537  -0.014   1.876 -1.2627 -0.9950  2.3232
15152TIP3   OH266870   6.303   6.684   4.158 -0.7636  0.0770 -0.3427
15152TIP3    H166871   6.326   6.641   4.075 -1.0573 -1.1545  0.2023
15152TIP3    H266872   6.214   6.654   4.177 -0.6155  0.1767  0.5299
15153TIP3   OH266873   5.125   4.626   6.363  0.2333 -0.5368 -0.2072
15153TIP3    H166874   5.100   4.543   6.322  0.0274 -0.2901 -0.5909
15153TIP3    H266875   5.056   4.687   6.336  0.0626 -0.3877  0.5712
15154TIP3   OH266876   0.861   3.029   3.109 -0.3890  0.3148  0.1994
15154TIP3    H166877   0.798   2.960   3.131  0.5249 -0.2121  1.1884
15154TIP3    H266878   0.828   3.066   3.027 -1.8795 -0.0881  0.6033
15155TIP3   OH266879   0.227   3.631   1.007  0.1754  0.0272 -0.1478
15155TIP3    H166880   0.271   3.608   0.925  2.9628  2.1108  0.7114
15155TIP3    H266881   0.284   3.695   1.048 -2.1472  0.4637  2.5456
15156TIP3   OH266882   6.156   4.813  16.211 -0.1265 -0.0444 -0.0296
15156TIP3    H166883   6.198   4.844  16.130 -0.0896 -0.5194 -0.1961
15156TIP3    H266884   6.082   4.872  16.223  0.5526  0.7759  0.2385
15157TIP3   OH266885   4.573   6.679   6.093  0.2072  0.8142  0.0835
15157TIP3    H166886   4.525   6.616   6.041 -0.6231 -0.1301  1.9568
15157TIP3    H266887   4.665   6.653   6.084 -0.0336 -0.0038 -0.0126
15158TIP3   OH266888   2.760   2.219   0.202 -0.7025  0.4721 -0.2364
15158TIP3    H166889   2.697   2.287   0.179 -0.5992  1.1511  1.3704
15158TIP3    H266890   2.843   2.249   0.164 -1.5508 -1.0631 -3.4589
15159TIP3   OH266891   1.098   3.113  14.260 -1.4851 -0.2710 -0.1682
15159TIP3    H166892   1.014   3.153  14.241 -1.4765 -0.1936 -0.0430
15159TIP3    H266893   1.155   3.141  14.188 -1.8510 -1.2056 -0.8262
15160TIP3   OH266894   0.091   6.388   4.386  0.0413 -0.4560 -0.0280
15160TIP3    H166895   0.031   6.390   4.460  1.4696  0.5574  1.1322
15160TIP3    H266896   0.103   6.480   4.362  0.6043 -0.6903 -0.6715
15161TIP3   OH266897   0.902   2.688  11.765 -0.0498 -0.2253 -0.2046
15161TIP3    H166898   0.980   2.682  11.711  0.0911  1.9978 -0.2644
15161TIP3    H266899   0.840   2.739  11.714 -0.8918 -0.4164  0.6018
15162TIP3   OH266900   1.671   4.399  12.784  0.3344  0.4806  0.0805
15162TIP3    H166901   1.716   4.376  12.702  1.0812 -0.1682  0.6577
15162TIP3    H266902   1.725   4.468  12.822 -0.0935  0.8850 -0.0522
15163TIP3   OH266903   3.609   3.910  10.643  0.2020 -0.0874  0.7754
15163TIP3    H166904   3.530   3.855  10.636  0.6177 -0.8647  2.0635
15163TIP3    H266905   3.673   3.867  10.586 -0.2584  0.4610 -0.1577
15164TIP3   OH266906   0.311   6.607   2.645 -0.0510 -0.2770  0.2115
15164TIP3    H166907   0.253   6.532   2.629 -1.5677  0.7787  0.5700
15164TIP3    H266908   0.366   6.613   2.567 -0.4452 -1.3088 -0.1509
15165TIP3   OH266909   4.863   5.894  16.240  0.1916 -0.9595  0.6979
15165TIP3    H166910   4.902   5.828  16.182  1.8020  1.4388 -1.0178
15165TIP3    H266911   4.935   5.926  16.293 -0.8436 -1.4725  2.4749
15166TIP3   OH266912   1.053   6.023  16.695 -0.7093  0.3003  0.2846
15166TIP3    H166913   1.145   6.037  16.675 -0.8621  1.5079  0.3862
15166TIP3    H266914   1.007   6.040  16.612 -0.8612 -0.1453  0.2727
15167TIP3   OH266915   5.520   6.168  16.789 -0.0820 -0.3381 -0.6258
15167TIP3    H166916   5.557   6.202  16.871 -0.3590  0.6450 -0.9082
15167TIP3    H266917   5.474   6.242  16.751 -0.2427 -0.8895 -1.5102
15168TIP3   OH266918   4.940   6.232   2.654  0.5313  0.5932  0.8803
15168TIP3    H166919   5.021   6.276   2.681  0.5743  0.0418  1.6565
15168TIP3    H266920   4.962   6.139   2.656  1.1976  0.5884 -3.1444
15169TIP3   OH266921   5.373   1.967  14.618  0.1437  0.2498  0.6603
15169TIP3    H166922   5.432   1.983  14.544  1.0016  2.1003  1.6958
15169TIP3    H266923   5.399   1.882  14.652  2.0011  0.8782  0.8718
15170TIP3   OH266924   4.178   0.773  15.567 -0.0487  0.2333  0.2453
15170TIP3    H166925   4.256   0.827  15.570  0.0835  0.1215 -0.8528
15170TIP3    H266926   4.200   0.695  15.617  1.5007 -0.9797 -2.2146
15171TIP3   OH266927   5.926   2.578   5.478 -0.2597 -0.1059 -0.1151
15171TIP3    H166928   5.972   2.660   5.460 -1.4520  0.3665 -1.1088
15171TIP3    H266929   5.993   2.510   5.467  0.3962  0.6303 -0.7120
15172TIP3   OH266930   4.358   5.368  12.582  0.5090 -0.6442  0.2077
15172TIP3    H166931   4.307   5.387  12.660 -0.0559 -3.0873  0.4447
15172TIP3    H266932   4.420   5.441  12.576 -0.0459  0.0363  2.4025
15173TIP3   OH266933   4.429   6.179  10.777  0.3111 -0.3970  0.1236
15173TIP3    H166934   4.518   6.214  10.779  0.5579 -1.0530  0.9988
15173TIP3    H266935   4.378   6.244  10.728  1.5075 -0.5738 -1.3835
15174TIP3   OH266936   2.440   6.042  15.454 -0.0534 -0.8273  0.4690
15174TIP3    H166937   2.397   5.982  15.515  0.1399 -0.9787  0.4584
15174TIP3    H266938   2.498   5.985  15.403 -0.9270 -0.8534 -0.5128
15175TIP3   OH266939   2.629   3.749   2.855  0.1861  0.2273  0.1501
15175TIP3    H166940   2.616   3.661   2.890  0.1501  0.5110  0.8512
15175TIP3    H266941   2.676   3.796   2.924  0.4891  0.6689 -0.3501
15176TIP3   OH266942   4.261   1.819  15.288 -0.5827  0.4203  0.5249
15176TIP3    H166943   4.337   1.875  15.277 -0.2878 -0.0458  0.1887
15176TIP3    H266944   4.223   1.812  15.200 -0.2008 -0.4958  0.4264
15177TIP3   OH266945   5.199   0.638   2.921  0.6301  0.2672  0.2015
15177TIP3    H166946   5.179   0.728   2.896 -0.3881  0.6147  2.1956
15177TIP3    H266947   5.258   0.607   2.852 -1.9360  1.2047 -2.5306
15178TIP3   OH266948   3.568   2.309  13.623 -0.2964  0.7868 -0.0103
15178TIP3    H166949   3.481   2.337  13.594 -0.5345 -0.0693 -0.1415
15178TIP3    H266950   3.590   2.236  13.564  0.6099  1.1551 -0.1328
15179TIP3   OH266951   1.292   1.922  16.627  0.3363  1.2758  0.3031
15179TIP3    H166952   1.288   1.929  16.722  1.0813 -1.1342  0.5394
15179TIP3    H266953   1.226   1.857  16.604  0.1821  1.8158 -0.8262
15180TIP3   OH266954   5.049   6.506   5.876  0.2289  0.4387 -0.7128
15180TIP3    H166955   5.124   6.490   5.933  0.8765  0.0097 -1.6740
15180TIP3    H266956   5.029   6.421   5.838  0.3351  0.8832 -1.7722
15181TIP3   OH266957   1.489   6.347  15.515  1.0210  0.3612  0.0660
15181TIP3    H166958   1.477   6.381  15.427  1.9880 -0.7209 -0.5133
15181TIP3    H266959   1.410   6.372  15.563 -0.5700 -1.0357 -1.7570
15182TIP3   OH266960   6.285   1.304   2.813  0.1679  0.2085 -0.3723
15182TIP3    H166961   6.317   1.286   2.901  0.2096 -1.4207 -0.7087
15182TIP3    H266962   6.290   1.399   2.805  1.7522  0.2501  0.7810
15183TIP3   OH266963   2.540   2.210  11.589  0.2839 -0.4740 -0.4349
15183TIP3    H166964   2.453   2.175  11.569  0.4430 -0.6827 -0.7771
15183TIP3    H266965   2.547   2.289  11.536  0.2464 -0.3782 -0.2964
15184TIP3   OH266966   5.757   3.715   1.770 -0.2569  0.2769  0.4833
15184TIP3    H166967   5.713   3.670   1.698  1.4006  0.2090 -0.5295
15184TIP3    H266968   5.790   3.796   1.731 -0.5427  0.9015  1.5230
15185TIP3   OH266969   4.949   2.854   2.965 -0.2278  0.4870 -0.2030
15185TIP3    H166970   4.942   2.762   2.991  1.2631  0.2540 -0.5885
15185TIP3    H266971   5.032   2.859   2.917 -0.1976  2.0823  0.0064
15186TIP3   OH266972   6.380   2.986  13.634 -0.2101  0.4901 -0.3310
15186TIP3    H166973   6.297   2.942  13.652 -1.1208  2.2612 -0.1654
15186TIP3    H266974   6.399   3.035  13.714  0.7482  0.4993 -0.5541
15187TIP3   OH266975   6.355   0.694  13.155  0.3931 -0.7835 -0.0908
15187TIP3    H166976   6.370   0.763  13.090  0.4923 -0.4615  0.2715
15187TIP3    H266977   6.399   0.617  13.119  0.3618 -0.6316 -0.4532
15188TIP3   OH266978   3.345   6.700   2.528  0.2613  0.5048  0.2285
15188TIP3    H166979   3.421   6.658   2.568 -0.2264  1.5439  2.3172
15188TIP3    H266980   3.381   6.773   2.478  0.8721 -0.7443 -1.1745
15189TIP3   OH266981   0.393   2.286   5.030  0.1165 -0.5346 -0.1193
15189TIP3    H166982   0.423   2.245   5.112  0.3595  1.6944  0.9429
15189TIP3    H266983   0.330   2.352   5.059 -0.7113 -0.5556 -1.8465
15190TIP3   OH266984   0.071   0.148  13.761 -0.2588  0.0995 -0.1835
15190TIP3    H166985  -0.015   0.123  13.794 -0.3193 -1.3006 -1.3393
15190TIP3    H266986   0.098   0.221  13.816 -1.2275 -0.8713  1.6167
15191TIP3   OH266987   3.147   3.622  11.584  0.3935 -0.1756  0.3859
15191TIP3    H166988   3.226   3.634  11.533  1.4347  1.3457  2.2923
15191TIP3    H266989   3.175   3.576  11.663 -0.7475 -0.3773  0.6930
15192TIP3   OH266990   1.243   4.832   0.791 -0.2764  0.3010 -0.7526
15192TIP3    H166991   1.287   4.849   0.707  0.4068  1.1840 -0.2272
15192TIP3    H266992   1.244   4.916   0.836  1.1785 -0.6168  0.9985
15193TIP3   OH266993   3.138   0.206  13.723  0.0005  0.7260  0.3854
15193TIP3    H166994   3.085   0.139  13.680  1.6812  0.7939 -1.8512
15193TIP3    H266995   3.118   0.195  13.816 -0.6803 -2.0734 -0.0294
15194TIP3   OH266996   0.775   5.409  11.710 -0.6564 -0.0472 -0.0983
15194TIP3    H166997   0.707   5.378  11.651 -2.2832  0.2663  1.5572
15194TIP3    H266998   0.761   5.503  11.716 -1.9300 -0.3559  2.4655
15195TIP3   OH266999   1.644   3.945   1.392 -0.0266  0.6269 -0.0880
15195TIP3    H167000   1.706   3.903   1.451 -1.8480  0.6138  1.8624
15195TIP3    H267001   1.587   3.873   1.362 -0.9612  1.1249  0.4905
15196TIP3   OH267002   2.106   1.549  16.578 -0.1649 -0.5448  0.4633
15196TIP3    H167003   2.104   1.612  16.651  0.3918  1.1034 -0.9121
15196TIP3    H267004   2.191   1.506  16.586  0.6832  0.9465 -0.2772
15197TIP3   OH267005   0.114   3.918   5.221  0.5059  1.2987 -0.2860
15197TIP3    H167006   0.051   3.990   5.215  1.0367  1.7037 -1.0193
15197TIP3    H267007   0.084   3.866   5.296 -0.9696  1.2291 -0.9082
15198TIP3   OH267008   1.322   1.900  14.156  0.1780  0.1902  0.3124
15198TIP3    H167009   1.413   1.926  14.141  0.5242 -1.4006 -0.5142
15198TIP3    H267010   1.314   1.816  14.110 -1.0300 -0.8810  2.4181
15199TIP3   OH267011   4.579   0.369   5.192 -0.1047  0.2011 -0.8073
15199TIP3    H167012   4.657   0.389   5.244  0.2274  0.5178 -1.4130
15199TIP3    H267013   4.541   0.454   5.172 -0.1167  0.0934 -1.2520
15200TIP3   OH267014   1.966   4.894   0.430 -0.3201  0.2475 -0.0448
15200TIP3    H167015   1.989   4.927   0.343 -0.1525  1.0529  0.2925
15200TIP3    H267016   2.046   4.853   0.463 -0.5718 -0.6348 -0.5281
15201TIP3   OH267017   1.866   1.113  11.629  0.3578  0.8012  0.0626
15201TIP3    H167018   1.786   1.083  11.586  2.1400 -2.6674 -1.0556
15201TIP3    H267019   1.876   1.203  11.601 -1.9392  0.5774 -1.6106
15202TIP3   OH267020   0.924   3.676  15.091 -0.1981 -0.3582  0.0423
15202TIP3    H167021   0.919   3.608  15.023 -0.1245 -0.4006  0.0783
15202TIP3    H267022   0.878   3.638  15.166  0.1867 -0.5245  0.1930
15203TIP3   OH267023   2.537   1.308   3.328  0.6759 -0.3688 -0.1900
15203TIP3    H167024   2.621   1.319   3.283  0.2313  0.2250 -0.8909
15203TIP3    H267025   2.472   1.336   3.263  0.0157  0.2469  0.7321
15204TIP3   OH267026   3.862   3.222  14.711  0.4233 -0.0901 -0.3981
15204TIP3    H167027   3.947   3.263  14.697  0.0199  0.4996 -1.1569
15204TIP3    H267028   3.811   3.288  14.759  0.3917 -0.4423  0.0565
15205TIP3   OH267029   5.504   6.312  13.995  0.4296 -0.4315  0.1613
15205TIP3    H167030   5.566   6.376  14.033 -0.1521  0.3980 -0.2673
15205TIP3    H267031   5.548   6.228  14.005  1.9011  0.2180 -0.6757
15206TIP3   OH267032   5.866   1.406   5.759  0.0890 -0.2496 -0.2916
15206TIP3    H167033   5.924   1.331   5.758 -0.1134 -0.4268  1.0662
15206TIP3    H267034   5.911   1.472   5.812 -0.1310  0.2745 -0.7427
15207TIP3   OH267035   5.402   1.866   2.148 -0.2212  0.4155  0.1422
15207TIP3    H167036   5.397   1.849   2.054  0.1546  2.5119 -0.2763
15207TIP3    H267037   5.310   1.868   2.177 -0.3410  0.0295 -0.2083
15208TIP3   OH267038   4.401   4.648   1.706 -0.8587 -0.3693  0.6031
15208TIP3    H167039   4.383   4.554   1.707  0.9361 -0.7308  0.9442
15208TIP3    H267040   4.449   4.664   1.788 -0.8140  0.7685  0.3616
15209TIP3   OH267041   2.018   3.448  11.951  0.0947 -0.4247 -0.0317
15209TIP3    H167042   2.092   3.493  11.910 -0.8558  0.3393 -0.9366
15209TIP3    H267043   1.940   3.493  11.917 -0.8296 -1.9556 -0.0029
15210TIP3   OH267044   1.557   0.063  10.205  0.9846 -0.1021  0.2448
15210TIP3    H167045   1.539   0.132  10.141 -1.3068 -0.1703  0.7583
15210TIP3    H267046   1.614   0.104  10.270 -1.0201  1.6123  0.9959
15211TIP3   OH267047   1.374   1.861  13.132 -0.0963 -0.1316  0.5442
15211TIP3    H167048   1.460   1.866  13.091 -0.8465 -1.2010 -1.2077
15211TIP3    H267049   1.363   1.946  13.177  2.1836 -0.3150  1.4882
15212TIP3   OH267050   0.864   4.730   2.663  0.3705  0.7171 -0.4957
15212TIP3    H167051   0.875   4.736   2.568  2.1395  0.6199 -0.3101
15212TIP3    H267052   0.809   4.805   2.686  2.0489  2.2092 -1.2839
15213TIP3   OH267053   4.553   2.678   1.789 -0.3356 -0.6078 -0.3407
15213TIP3    H167054   4.461   2.654   1.799 -0.5644  0.3516 -0.0811
15213TIP3    H267055   4.561   2.705   1.698 -0.3082 -0.7094 -0.3682
15214TIP3   OH267056   5.697   2.856  15.596  0.0829  0.4464 -0.8011
15214TIP3    H167057   5.621   2.879  15.542  0.4891  1.1265 -1.0914
15214TIP3    H267058   5.737   2.782  15.551 -1.7622 -1.4706  0.6365
15215TIP3   OH267059   6.341   3.067   1.970 -0.4092  0.1303  0.4182
15215TIP3    H167060   6.277   3.133   1.944 -0.6326  0.2132  1.1752
15215TIP3    H267061   6.304   2.984   1.939  0.1563  0.4196 -1.0539
15216TIP3   OH267062   6.638   5.554  11.169 -0.3523  0.1607 -0.2763
15216TIP3    H167063   6.696   5.630  11.159  1.8151 -1.3018  0.6764
15216TIP3    H267064   6.567   5.584  11.225  1.1972  1.1260  1.2025
15217TIP3   OH267065   2.271   2.300   3.381 -0.4415 -0.3283 -0.1560
15217TIP3    H167066   2.186   2.333   3.410 -0.6645  0.7684 -2.0015
15217TIP3    H267067   2.254   2.260   3.296  1.1562  1.3112 -1.2847
15218TIP3   OH267068   5.030   6.747  12.455 -0.0972 -0.7293  0.0867
15218TIP3    H167069   5.003   6.802  12.381  0.6258 -0.8202 -0.2509
15218TIP3    H267070   4.952   6.742  12.511  0.2499  1.7886  0.8338
15219TIP3   OH267071   5.424   6.210   1.207  0.0015 -0.8672  0.3659
15219TIP3    H167072   5.511   6.229   1.171 -0.6229  0.3048 -0.5496
15219TIP3    H267073   5.439   6.139   1.270  1.6368 -0.5746  0.3169
15220TIP3   OH267074   5.952   0.870   0.205  0.2600  0.2682  0.3330
15220TIP3    H167075   5.873   0.912   0.240  0.0394 -0.1976  0.4052
15220TIP3    H267076   5.957   0.787   0.253  0.0897 -0.2670 -0.5791
15221TIP3   OH267077   2.557   0.889  10.868  0.0958  0.6645  0.5524
15221TIP3    H167078   2.556   0.985  10.868 -0.9605  0.6620 -1.0696
15221TIP3    H267079   2.606   0.866  10.788  2.6843 -0.1571  2.2975
15222TIP3   OH267080   4.887   6.065  14.329 -0.0220  0.1997 -0.1730
15222TIP3    H167081   4.881   6.125  14.254  1.3721 -0.1381 -0.5720
15222TIP3    H267082   4.960   6.099  14.380  1.0354 -1.3884 -0.6080
15223TIP3   OH267083   2.879   3.937  12.457  0.7170  0.0725 -0.6882
15223TIP3    H167084   2.795   3.896  12.477  0.3080  0.3177 -1.8612
15223TIP3    H267085   2.887   3.930  12.362  1.9591  0.1852 -0.5994
15224TIP3   OH267086   2.870   3.230  11.206 -0.2139  0.4029  0.3108
15224TIP3    H167087   2.858   3.268  11.119  3.4388  1.1917  0.0928
15224TIP3    H267088   2.860   3.304  11.266  0.0536  0.3822  0.3787
15225TIP3   OH267089   5.034   4.840  10.527  0.8493 -0.0066  0.4925
15225TIP3    H167090   4.966   4.795  10.578 -1.5559  2.0570 -0.7736
15225TIP3    H267091   5.006   4.831  10.436  1.2386  2.4748  0.0784
15226TIP3   OH267092   3.954   4.640  14.210  0.3463  0.1923 -0.0737
15226TIP3    H167093   3.928   4.562  14.259  0.7483  0.1985  0.1525
15226TIP3    H267094   3.875   4.695  14.210  0.6790  0.7077  1.5855
15227TIP3   OH267095   2.886   4.687   6.666  0.4890 -0.1721 -0.1116
15227TIP3    H167096   2.870   4.751   6.596 -0.0217 -0.4197 -0.2198
15227TIP3    H267097   2.830   4.717   6.738 -0.8025 -1.2780 -0.6372
15228TIP3   OH267098   0.130   0.306   1.109 -0.5271  0.4351 -0.1293
15228TIP3    H167099   0.117   0.387   1.059 -1.4273  0.0146 -0.5695
15228TIP3    H267100   0.125   0.334   1.200  2.0340  1.3718 -0.2053
15229TIP3   OH267101   6.310   2.235  16.537 -0.1643 -0.2283 -0.0475
15229TIP3    H167102   6.329   2.230  16.630  0.1599  0.9165 -0.0490
15229TIP3    H267103   6.331   2.147  16.503 -0.4024 -0.6774  0.9700
15230TIP3   OH267104   4.199   4.804   2.751  0.5608  0.4259 -0.0764
15230TIP3    H167105   4.154   4.886   2.773 -0.0468  0.1214 -0.1706
15230TIP3    H267106   4.222   4.814   2.659 -0.8747 -0.1175 -0.5210
15231TIP3   OH267107   6.223   1.311   6.583  0.5048 -0.2042 -0.3530
15231TIP3    H167108   6.275   1.246   6.629  1.0673  1.4784  1.4754
15231TIP3    H267109   6.285   1.381   6.562 -0.6250  1.0265  0.2783
15232TIP3   OH267110   2.601   5.742  11.567 -0.1327 -0.7444 -0.2664
15232TIP3    H167111   2.551   5.790  11.501  1.8887  1.1514 -0.4505
15232TIP3    H267112   2.535   5.707  11.626 -1.6795  1.6524 -0.5477
15233TIP3   OH267113   3.568   2.047   0.959 -0.0879 -0.5404 -0.0822
15233TIP3    H167114   3.571   2.014   0.869 -1.4556 -0.2889 -0.2340
15233TIP3    H267115   3.476   2.068   0.973  0.3714  0.9191  0.8306
15234TIP3   OH267116   6.310   3.993  14.515 -1.2109  0.3662  0.7880
15234TIP3    H167117   6.218   4.016  14.511 -1.2654 -0.1243 -1.5858
15234TIP3    H267118   6.312   3.899  14.497 -0.1383  0.7193 -1.1464
15235TIP3   OH267119   2.870   1.462   4.803  0.1582 -0.1812 -0.3081
15235TIP3    H167120   2.928   1.468   4.727 -0.7512 -0.3234 -1.0103
15235TIP3    H267121   2.907   1.524   4.866 -0.4141  1.6390 -1.7461
15236TIP3   OH267122   6.758   4.553  11.233  0.3126 -0.2453  0.1182
15236TIP3    H167123   6.751   4.467  11.192  0.9105 -0.9136  1.3917
15236TIP3    H267124   6.711   4.544  11.316 -0.7184  1.0330 -0.3145
15237TIP3   OH267125   3.583   3.719  17.067  0.4905  0.0123 -0.2028
15237TIP3    H167126   3.639   3.704  16.991  0.9411  3.5726 -0.6477
15237TIP3    H267127   3.504   3.760  17.032 -0.5707 -1.0250  0.9155
15238TIP3   OH267128   1.235   3.163   0.977 -0.0105  0.2109  0.4760
15238TIP3    H167129   1.227   3.088   1.037 -1.2510 -0.4132 -0.4528
15238TIP3    H267130   1.322   3.198   0.995 -0.1425 -0.3034  2.2576
15239TIP3   OH267131   3.942   5.949  14.137 -0.0507 -0.6908  0.0037
15239TIP3    H167132   4.011   5.943  14.203 -0.5284 -0.7990  0.4942
15239TIP3    H267133   3.862   5.963  14.187 -0.4706 -1.1510 -0.5363
15240TIP3   OH267134   6.527   1.406  10.589  0.4341 -0.0384  0.2719
15240TIP3    H167135   6.574   1.457  10.522  1.9895 -1.1104  0.5126
15240TIP3    H267136   6.514   1.320  10.549  0.8916 -0.5134  1.1497
15241TIP3   OH267137   2.575   1.116  13.986 -0.5610  0.3189  0.3831
15241TIP3    H167138   2.503   1.167  14.024  1.1180  3.3776 -0.4091
15241TIP3    H267139   2.607   1.063  14.059 -3.1106 -0.5434  0.9339
15242TIP3   OH267140   4.844   1.742   0.856 -0.3343 -1.4240  0.1487
15242TIP3    H167141   4.749   1.743   0.862 -0.2487  0.4301  1.4789
15242TIP3    H267142   4.873   1.692   0.932 -0.1842 -0.0875  0.9874
15243TIP3   OH267143   0.315   1.974  13.168 -0.1126 -0.4573  0.1441
15243TIP3    H167144   0.228   1.979  13.208  0.2170  0.6257  0.7650
15243TIP3    H267145   0.306   2.025  13.087 -0.0639 -0.3479  0.2075
15244TIP3   OH267146   6.683   4.528   6.651  0.4476 -0.1268 -0.0988
15244TIP3    H167147   6.708   4.469   6.721 -3.6357 -1.0920  0.6806
15244TIP3    H267148   6.642   4.603   6.695 -1.4727 -0.3886 -1.3321
15245TIP3   OH267149   4.943   1.860  13.132  0.4752  0.3005  0.3599
15245TIP3    H167150   4.970   1.802  13.204  0.1209  1.3901  1.3731
15245TIP3    H267151   4.851   1.881  13.151 -0.1583 -0.7651 -1.3334
15246TIP3   OH267152   1.251   2.769  11.732 -0.5384  0.3826  0.8765
15246TIP3    H167153   1.192   2.811  11.669 -0.8181 -0.8174  0.3221
15246TIP3    H267154   1.240   2.820  11.812 -0.6176  1.5666  0.1296
15247TIP3   OH267155   6.138   4.744   3.519  0.5028 -0.0666 -0.0248
15247TIP3    H167156   6.231   4.767   3.510  0.5602  0.0022  0.6944
15247TIP3    H267157   6.139   4.661   3.567  0.1754  0.2141  0.4653
15248TIP3   OH267158   0.522   4.698  15.694 -0.2725 -0.2582  0.2154
15248TIP3    H167159   0.441   4.739  15.723  1.4940  2.4617  1.5831
15248TIP3    H267160   0.525   4.614  15.740 -1.9166 -0.0449  0.7394
15249TIP3   OH267161   3.982   5.880   3.891 -0.0464  0.0901 -0.2724
15249TIP3    H167162   3.958   5.800   3.843  0.6820  1.6545 -3.3785
15249TIP3    H267163   4.078   5.882   3.888 -0.0379  0.7643  0.3170
15250TIP3   OH267164   5.734   5.209   0.651  0.1426  0.3870  0.0357
15250TIP3    H167165   5.689   5.129   0.624 -0.8317  0.5368  1.1420
15250TIP3    H267166   5.785   5.183   0.728  1.2186  0.4320 -0.6586
15251TIP3   OH267167   4.175   6.011  11.697  0.1075  1.0387  0.2990
15251TIP3    H167168   4.237   5.953  11.652 -0.4206  0.1532  0.6784
15251TIP3    H267169   4.229   6.078  11.738  0.7806  0.5218  0.2668
15252TIP3   OH267170   1.666   5.353  13.964  0.3525  0.3958  0.6383
15252TIP3    H167171   1.577   5.359  13.998  0.7281 -3.1736  2.4844
15252TIP3    H267172   1.656   5.320  13.875 -0.2129  0.9812  0.4826
15253TIP3   OH267173   2.944   4.952   4.317 -0.3798 -0.5830 -0.5591
15253TIP3    H167174   2.910   4.985   4.401  1.0080 -0.3679 -0.0729
15253TIP3    H267175   2.913   5.014   4.252  0.5006  0.5593  0.1003
15254TIP3   OH267176   4.574   2.320  17.094 -0.5281 -0.2111 -0.4766
15254TIP3    H167177   4.666   2.297  17.110 -0.8394 -1.8527 -0.9203
15254TIP3    H267178   4.578   2.396  17.036  0.5537 -0.8537 -1.2685
15255TIP3   OH267179   6.725   0.420   5.937  0.0847 -0.1103  0.2128
15255TIP3    H167180   6.755   0.437   6.026  0.8831 -0.4262  0.0151
15255TIP3    H267181   6.633   0.397   5.946  0.4314 -1.1748  1.0767
15256TIP3   OH267182   3.245   1.441  15.467  0.0086  0.1799 -0.0416
15256TIP3    H167183   3.203   1.366  15.510  1.8716 -1.0398 -0.2777
15256TIP3    H267184   3.316   1.402  15.415  1.8178  2.2241  0.8368
15257TIP3   OH267185   1.337   3.869   2.857 -0.0496 -0.1303 -0.0797
15257TIP3    H167186   1.332   3.826   2.942  0.0732 -2.8114 -1.3743
15257TIP3    H267187   1.423   3.912   2.856  0.4453 -1.1001  0.6538
15258TIP3   OH267188   5.641   3.825  17.033  0.4144 -0.3655 -0.2955
15258TIP3    H167189   5.673   3.863  17.115 -0.6144 -0.3883  0.1184
15258TIP3    H267190   5.549   3.850  17.029  0.7095  0.4986 -1.9567
15259TIP3   OH267191   0.149   1.802  13.488 -0.2269 -0.1059 -0.3644
15259TIP3    H167192   0.063   1.797  13.530 -0.3207 -1.2413 -0.6755
15259TIP3    H267193   0.199   1.863  13.542 -1.4547  1.0879 -0.5797
15260TIP3   OH267194   2.030   5.835   4.398  0.0751  0.2589 -0.2898
15260TIP3    H167195   1.995   5.822   4.310  0.3836  0.2445 -0.4109
15260TIP3    H267196   2.120   5.804   4.393 -0.4892 -1.5925  0.5444
15261TIP3   OH267197   3.593   0.277  11.600 -0.7364 -0.0809 -0.7533
15261TIP3    H167198   3.525   0.334  11.637 -0.6836 -0.1208 -0.5920
15261TIP3    H267199   3.546   0.220  11.539 -0.3427  2.2466 -3.3702
15262TIP3   OH267200   2.279   6.434   3.836 -0.0757 -0.0196  0.0725
15262TIP3    H167201   2.350   6.499   3.841 -0.3033  0.2530 -0.1800
15262TIP3    H267202   2.225   6.452   3.913  0.3405 -0.4763  0.4693
15263TIP3   OH267203   1.337   2.102   0.450  0.1909  0.0004 -0.7113
15263TIP3    H167204   1.373   2.036   0.510 -0.4328  1.6917  1.6170
15263TIP3    H267205   1.411   2.159   0.431  0.4491 -0.6837 -1.7717
15264TIP3   OH267206   3.354   1.114  14.393 -0.0315 -0.1309 -0.8289
15264TIP3    H167207   3.390   1.039  14.440  0.0014 -1.1646 -2.4469
15264TIP3    H267208   3.264   1.088  14.372 -0.4233  0.7971 -0.3016
15265TIP3   OH267209   4.657   2.606   5.791 -0.6328 -0.3888  0.4765
15265TIP3    H167210   4.599   2.556   5.848 -0.1093  1.6324  2.8774
15265TIP3    H267211   4.608   2.686   5.772  0.3978  0.2707  0.5446
15266TIP3   OH267212   3.415   3.973   3.680 -0.0088 -0.2753  0.0925
15266TIP3    H167213   3.420   3.966   3.775 -1.1623 -2.4712  0.0262
15266TIP3    H267214   3.357   4.048   3.665 -0.3757 -0.3435  1.1332
15267TIP3   OH267215   1.355   6.169  12.035 -0.6409 -0.6517  0.1192
15267TIP3    H167216   1.318   6.106  11.973 -0.8287 -0.3453 -0.0792
15267TIP3    H267217   1.448   6.145  12.039 -0.4332 -0.0690 -1.0197
15268TIP3   OH267218   4.619   6.276  11.746  0.0180  0.6155 -0.3347
15268TIP3    H167219   4.576   6.339  11.688  2.0164  1.8948 -0.4682
15268TIP3    H267220   4.713   6.295  11.737  0.6337 -2.1475 -0.0997
15269TIP3   OH267221   5.754   3.728   2.609  0.4424 -0.2857  0.5871
15269TIP3    H167222   5.684   3.671   2.642 -0.4724  0.7902  0.5516
15269TIP3    H267223   5.789   3.771   2.687 -0.9833  1.4331  0.3285
15270TIP3   OH267224   2.562   4.170  12.180 -0.3451 -0.9256  0.1147
15270TIP3    H167225   2.616   4.105  12.135 -1.4295 -0.9717 -1.1319
15270TIP3    H267226   2.601   4.177  12.267  0.7828 -2.0299 -0.2889
15271TIP3   OH267227   2.036   4.736   1.587 -0.3808 -0.0471  0.1928
15271TIP3    H167228   1.989   4.708   1.509  0.9622 -0.3941 -0.5122
15271TIP3    H267229   2.103   4.669   1.601  1.2650  1.4792 -0.0672
15272TIP3   OH267230   4.897   6.183   3.036  0.0345  0.0374  1.0755
15272TIP3    H167231   4.984   6.209   3.006 -0.1360 -0.1540  0.4141
15272TIP3    H267232   4.911   6.150   3.125  0.8192 -1.1260  0.5251
15273TIP3   OH267233   5.987   6.713   0.948 -0.5053  0.0612 -0.6700
15273TIP3    H167234   5.926   6.748   1.013 -0.4992 -1.0306 -0.0498
15273TIP3    H267235   5.967   6.619   0.946  0.6869 -0.1873 -0.9588
15274TIP3   OH267236   0.360   4.776   1.264  1.0646 -0.1538 -0.0401
15274TIP3    H167237   0.311   4.693   1.265  0.9179 -0.0820 -0.7648
15274TIP3    H267238   0.342   4.813   1.177  1.6828  0.3081  0.0257
15275TIP3   OH267239   2.953   6.613  13.034  0.3186  0.1562 -0.0165
15275TIP3    H167240   2.905   6.540  13.073  0.8016  0.8301  1.8971
15275TIP3    H267241   2.975   6.669  13.108 -0.5036  2.5341 -1.5110
15276TIP3   OH267242   2.575   3.886   2.209 -0.5321 -0.0611 -0.2510
15276TIP3    H167243   2.564   3.844   2.124 -1.4454 -0.1371 -0.0979
15276TIP3    H267244   2.509   3.845   2.265  0.7174 -0.7189  0.7573
15277TIP3   OH267245   6.426   3.677   2.050  0.2169  0.2239 -0.2517
15277TIP3    H167246   6.398   3.755   2.097 -1.5820  0.0509 -1.0016
15277TIP3    H267247   6.364   3.609   2.078  0.0695 -0.2510 -1.7092
15278TIP3   OH267248   6.083   0.971   3.910  0.0715  0.1250 -0.4844
15278TIP3    H167249   6.035   0.991   3.830 -1.6482 -1.0964  0.2112
15278TIP3    H267250   6.167   1.015   3.899 -1.1725  2.2976 -1.7628
15279TIP3   OH267251   0.476   2.600   5.912 -0.0271 -0.0014  0.1998
15279TIP3    H167252   0.386   2.575   5.891 -0.9630  1.9267  1.8072
15279TIP3    H267253   0.496   2.551   5.992 -0.0334  0.4173  0.4568
15280TIP3   OH267254   5.750   3.896   0.077 -0.4719 -0.2673 -0.0371
15280TIP3    H167255   5.744   3.847   0.159 -2.1509  0.5506  0.3626
15280TIP3    H267256   5.841   3.925   0.072 -0.0173 -1.5077  0.8284
15281TIP3   OH267257   6.719   6.369  16.323 -0.1871  0.5196 -0.0751
15281TIP3    H167258   6.639   6.400  16.367 -1.6736 -0.3347 -2.1018
15281TIP3    H267259   6.747   6.444  16.270 -0.6699  0.2437 -0.7315
15282TIP3   OH267260   1.029   6.606   2.960 -0.1389  0.2597 -0.6886
15282TIP3    H167261   1.018   6.511   2.948  2.2795 -0.0183 -0.9107
15282TIP3    H267262   1.025   6.619   3.055 -0.6436 -0.0401 -0.6685
15283TIP3   OH267263   4.273   0.576  11.422 -0.0419 -0.2131 -0.7003
15283TIP3    H167264   4.185   0.563  11.457 -0.2696  0.6566 -0.9470
15283TIP3    H267265   4.319   0.495  11.445 -0.3657  0.0728  1.0410
15284TIP3   OH267266   2.049   1.965  12.299  0.2154 -0.1660 -0.1982
15284TIP3    H167267   2.046   1.929  12.211 -1.1639  0.6583 -0.4981
15284TIP3    H267268   2.081   2.054  12.288 -0.7660  0.2202  0.0401
15285TIP3   OH267269   4.262   4.497   4.147  0.2276  0.0584 -0.2736
15285TIP3    H167270   4.177   4.517   4.187  0.6779 -0.4370  0.9647
15285TIP3    H267271   4.267   4.555   4.072  0.4463  2.8396  1.8003
15286TIP3   OH267272   0.553   1.899   4.599 -0.5360  0.0532  0.7085
15286TIP3    H167273   0.575   1.885   4.691 -1.1289  0.1151  0.8649
15286TIP3    H267274   0.544   1.811   4.563 -4.3385 -0.0636  1.7121
15287TIP3   OH267275   0.825   2.053   2.817  0.0621  0.8135  0.0130
15287TIP3    H167276   0.872   2.039   2.735  0.6527 -1.8942  0.7497
15287TIP3    H267277   0.735   2.073   2.790  0.0233 -1.0095 -1.3046
15288TIP3   OH267278   3.381   0.484   1.268  0.3978  0.1188 -0.2233
15288TIP3    H167279   3.470   0.458   1.289 -0.2900 -1.9490  0.2328
15288TIP3    H267280   3.335   0.486   1.352  0.2482  2.1852 -0.3261
15289TIP3   OH267281   2.465   2.357   0.362 -0.3725  0.4333  0.1677
15289TIP3    H167282   2.512   2.305   0.427 -1.3322 -0.7340 -0.0710
15289TIP3    H267283   2.430   2.431   0.412  0.6818  0.6654  0.5758
15290TIP3   OH267284   2.893   0.228   2.735 -0.5387 -0.2141 -0.0679
15290TIP3    H167285   2.897   0.276   2.652 -1.8072  1.7359  0.9642
15290TIP3    H267286   2.801   0.233   2.761 -0.1002 -0.5784  1.5771
15291TIP3   OH267287   3.336   4.075   0.515  0.4275  0.4256 -0.2188
15291TIP3    H167288   3.321   4.084   0.421 -0.2004 -1.8159 -0.3758
15291TIP3    H267289   3.351   3.981   0.528 -0.0654  0.6156  1.9891
15292TIP3   OH267290   6.422   4.839   0.488  0.3296 -0.5437  0.6584
15292TIP3    H167291   6.503   4.838   0.437  0.0173  3.5951 -0.0442
15292TIP3    H267292   6.396   4.747   0.493  4.1207 -1.7767 -0.5703
15293TIP3   OH267293   6.562   5.328  13.626 -0.5146 -0.5453 -0.1380
15293TIP3    H167294   6.605   5.296  13.547 -1.0150 -1.0093 -0.2286
15293TIP3    H267295   6.594   5.271  13.696 -0.0451 -0.1129 -0.0001
15294TIP3   OH267296   1.156   1.520   5.906  0.3519  0.3238 -0.2541
15294TIP3    H167297   1.250   1.534   5.897  0.6287 -0.2485  1.4853
15294TIP3    H267298   1.144   1.498   5.999 -1.1924 -1.9725 -0.9683
15295TIP3   OH267299   6.292   3.637  13.282  0.3238 -0.6851  0.0651
15295TIP3    H167300   6.214   3.693  13.285  0.2605 -0.6650 -1.3781
15295TIP3    H267301   6.267   3.558  13.329 -0.9994 -1.1604 -1.3783
15296TIP3   OH267302   4.507   2.294  15.408 -0.3954  0.4818 -0.0573
15296TIP3    H167303   4.426   2.243  15.416  0.9899 -1.6917  0.7350
15296TIP3    H267304   4.515   2.338  15.493 -1.5310  1.9546 -0.6982
15297TIP3   OH267305   0.231   3.256   3.792  0.0276 -0.2976  0.2155
15297TIP3    H167306   0.173   3.302   3.852 -0.0999  0.0032 -0.1393
15297TIP3    H267307   0.285   3.200   3.849 -2.1587 -2.3283  0.3543
15298TIP3   OH267308   4.671   0.560  13.320  0.6968  0.4955  0.0408
15298TIP3    H167309   4.636   0.621  13.255 -2.3439  0.2857  1.4171
15298TIP3    H267310   4.664   0.607  13.403  1.9218 -0.3018  0.6118
15299TIP3   OH267311   1.737   5.427   4.926 -0.0961 -0.1151  0.2240
15299TIP3    H167312   1.734   5.466   4.839 -0.3134 -0.4292  0.0914
15299TIP3    H267313   1.760   5.335   4.911  0.5455 -0.0090  0.5443
15300TIP3   OH267314   6.532   4.205   2.423  0.4360  0.4161 -0.0175
15300TIP3    H167315   6.468   4.228   2.355 -0.1956  1.0840  0.7984
15300TIP3    H267316   6.570   4.288   2.449  0.6590  0.1619  0.4683
15301TIP3   OH267317   2.174   5.235  15.898  0.0124  0.8170 -0.2925
15301TIP3    H167318   2.214   5.262  15.814 -0.5422 -0.6200 -1.0263
15301TIP3    H267319   2.081   5.253  15.887  0.2671  3.3105  1.0942
15302TIP3   OH267320   4.329   2.023  14.032  0.4321 -0.1492  0.2260
15302TIP3    H167321   4.342   2.089  13.964 -0.7974 -0.1559 -0.0131
15302TIP3    H267322   4.385   1.950  14.005  2.2583  0.9849  0.7939
15303TIP3   OH267323   1.107   1.887   3.300 -0.3083 -0.0831  0.1675
15303TIP3    H167324   1.181   1.931   3.259  0.9987 -0.7553  1.7114
15303TIP3    H267325   1.045   1.957   3.320 -0.2202  0.4498 -1.3912
15304TIP3   OH267326   0.749   6.324   0.223 -0.8496  0.3926 -0.5049
15304TIP3    H167327   0.675   6.311   0.164 -1.0960  0.8509 -0.2998
15304TIP3    H267328   0.725   6.277   0.303 -0.4156 -0.4195 -0.8488
15305TIP3   OH267329   5.629   2.216   4.082  0.0595  0.2156  0.3941
15305TIP3    H167330   5.625   2.311   4.072 -0.6670  0.2841  1.3514
15305TIP3    H267331   5.646   2.202   4.175 -0.6859 -0.6137  0.4092
15306TIP3   OH267332   3.727   4.465   0.237  0.4560 -0.0706  0.0944
15306TIP3    H167333   3.818   4.492   0.247  1.0142 -1.4241 -1.0479
15306TIP3    H267334   3.729   4.371   0.255 -0.6329 -0.1935 -0.4150
15307TIP3   OH267335   6.464   0.625  16.027 -0.0940  0.1075 -0.4716
15307TIP3    H167336   6.551   0.611  15.989  0.8585  0.2146  1.5997
15307TIP3    H267337   6.462   0.718  16.050 -0.7346  0.0942 -0.4534
15308TIP3   OH267338   5.666   3.260  13.154 -0.1433 -0.1762  0.4976
15308TIP3    H167339   5.754   3.242  13.185 -0.2126 -2.0149 -0.3468
15308TIP3    H267340   5.637   3.335  13.207  2.2338  1.0354  0.1609
15309TIP3   OH267341   6.343   5.061  16.048  0.6084 -0.0237  0.9289
15309TIP3    H167342   6.367   4.976  16.012  6.0057  2.3429 -1.6671
15309TIP3    H267343   6.390   5.066  16.131  0.5702  0.5540  0.9158
15310TIP3   OH267344   4.913   3.673  13.578 -0.5873  0.0941  0.0122
15310TIP3    H167345   4.911   3.682  13.673 -2.0446 -0.4807  0.0480
15310TIP3    H267346   5.005   3.655  13.557 -0.7286 -2.7364  1.5849
15311TIP3   OH267347   5.167   1.855  11.536  0.5346 -0.2938 -0.0282
15311TIP3    H167348   5.134   1.900  11.459 -0.2757  0.0754  0.5243
15311TIP3    H267349   5.242   1.908  11.565 -1.2779  1.5411  1.4546
15312TIP3   OH267350   6.657   1.539  14.059 -0.3687 -0.2754  0.8909
15312TIP3    H167351   6.710   1.606  14.102 -1.1525  0.2051  1.1123
15312TIP3    H267352   6.709   1.459  14.067  0.5011  0.2680  0.7652
15313TIP3   OH267353   4.404   2.799  13.853 -0.1122 -0.3485  0.2795
15313TIP3    H167354   4.422   2.772  13.943 -0.9516 -0.5068  0.4051
15313TIP3    H267355   4.333   2.862  13.861  1.3689  1.3944 -0.0745
15314TIP3   OH267356   0.578   5.563   2.102  0.2428  0.4308  0.5187
15314TIP3    H167357   0.484   5.547   2.102  0.4206 -1.0438  3.5713
15314TIP3    H267358   0.589   5.642   2.156  0.6000  1.9231 -1.6984
15315TIP3   OH267359   2.634   3.314  14.398  0.3891 -0.5697  0.2298
15315TIP3    H167360   2.565   3.379  14.388 -0.9220 -1.8448  0.7770
15315TIP3    H267361   2.611   3.266  14.478  1.4837 -1.5061  0.0055
15316TIP3   OH267362   2.201   6.626   0.750 -0.1441 -0.0670  0.3520
15316TIP3    H167363   2.145   6.555   0.717 -1.2949  1.2947 -0.6896
15316TIP3    H267364   2.290   6.598   0.729 -0.6492 -0.8211 -0.8381
15317TIP3   OH267365   5.749   1.791   6.248  0.4515 -0.0396 -0.6739
15317TIP3    H167366   5.731   1.806   6.155  1.9586  0.1525 -0.9510
15317TIP3    H267367   5.776   1.700   6.253 -1.0383 -0.4769 -0.1819
15318TIP3   OH267368   6.269   5.548  10.319  0.1881 -0.1488 -0.1897
15318TIP3    H167369   6.271   5.453  10.321  1.3205 -0.1721 -1.5301
15318TIP3    H267370   6.246   5.570  10.229 -0.1210  0.8487  0.1235
15319TIP3   OH267371   2.347   3.996   1.849  0.3216 -0.1938 -0.5005
15319TIP3    H167372   2.327   4.079   1.804 -0.5518 -1.4556 -2.5228
15319TIP3    H267373   2.434   3.973   1.818 -0.2194 -0.9886 -1.4601
15320TIP3   OH267374   0.308   3.645  12.507 -0.5896 -0.2148  0.3497
15320TIP3    H167375   0.252   3.615  12.579  0.3129 -2.6087  0.0949
15320TIP3    H267376   0.382   3.687  12.550 -0.9759  0.0459  0.7637
15321TIP3   OH267377   5.208   3.643  11.240  0.4236  0.4777  0.4674
15321TIP3    H167378   5.138   3.675  11.297  1.1168  0.1323  1.5199
15321TIP3    H267379   5.254   3.577  11.292 -0.9613 -2.2449 -1.6733
15322TIP3   OH267380   2.364   0.562   5.148 -0.6649 -0.6956 -0.1122
15322TIP3    H167381   2.296   0.630   5.144 -0.1741 -0.1004  1.3086
15322TIP3    H267382   2.344   0.513   5.228  1.1011  0.0721  0.8345
15323TIP3   OH267383   0.731   6.164  15.014  1.1913  0.4053  0.2408
15323TIP3    H167384   0.657   6.120  15.057  0.9082  0.4367 -0.2050
15323TIP3    H267385   0.691   6.239  14.969  1.1427 -0.8375 -1.8633
15324TIP3   OH267386   5.652   4.029   3.190 -0.6327  0.1200 -0.2240
15324TIP3    H167387   5.643   4.054   3.282 -1.7831  0.4594 -0.4319
15324TIP3    H267388   5.656   4.112   3.143 -3.0971 -0.0442 -0.7763
15325TIP3   OH267389   1.082   4.299  11.575 -0.2975  0.3333  0.1403
15325TIP3    H167390   1.102   4.370  11.514 -0.2714  1.3158  1.2668
15325TIP3    H267391   1.125   4.325  11.657  0.1706 -1.2452  0.4250
15326TIP3   OH267392   3.321   3.664  16.360 -0.1985 -0.2297  0.0225
15326TIP3    H167393   3.326   3.673  16.455 -0.8564  3.0496 -0.2014
15326TIP3    H267394   3.353   3.747  16.326 -0.9829 -0.9508 -2.6055
15327TIP3   OH267395   4.948   1.653  15.056  0.3835  0.2292  0.6650
15327TIP3    H167396   5.040   1.664  15.030  0.8386 -1.6135  1.4511
15327TIP3    H267397   4.922   1.740  15.086  2.0349  0.6659  0.9225
15328TIP3   OH267398   4.916   1.149  13.067 -0.6472  0.2173  0.0055
15328TIP3    H167399   4.870   1.087  13.124  1.2874  0.0284  1.4228
15328TIP3    H267400   4.985   1.098  13.026 -0.4990  0.9116 -0.6161
15329TIP3   OH267401   0.519   6.194  14.586 -0.3252 -0.3265  0.0847
15329TIP3    H167402   0.425   6.211  14.580 -0.4709 -0.2987  2.3078
15329TIP3    H267403   0.529   6.104  14.554 -0.7496  0.4940 -2.5532
15330TIP3   OH267404   6.014   5.866  16.457 -0.2931  0.0707 -0.1602
15330TIP3    H167405   5.943   5.914  16.501 -0.9511 -1.0895  0.0666
15330TIP3    H267406   6.091   5.921  16.469 -1.3389  1.7880 -1.1893
15331TIP3   OH267407   4.641   3.596   0.806  0.0253 -0.1275 -0.0572
15331TIP3    H167408   4.555   3.571   0.771 -0.0035  2.0895 -1.6454
15331TIP3    H267409   4.699   3.525   0.778 -0.8333 -0.5114 -0.9285
15332TIP3   OH267410   3.954   6.674  12.668 -0.5262  0.5085 -0.4344
15332TIP3    H167411   3.868   6.635  12.657  0.0931 -1.3238  1.0358
15332TIP3    H267412   3.993   6.628  12.743  1.7237  1.2921 -1.0628
15333TIP3   OH267413   5.961   3.998  15.567 -0.4571  0.2548  0.5136
15333TIP3    H167414   5.976   3.951  15.485 -2.0987 -0.5316  0.6522
15333TIP3    H267415   6.038   3.978  15.620 -0.0834 -0.4388 -0.2770
15334TIP3   OH267416   3.616   2.924  17.175 -0.0804  0.5253 -0.2633
15334TIP3    H167417   3.554   2.927  17.102 -0.6683  2.0178  0.2680
15334TIP3    H267418   3.563   2.901  17.251  0.3537 -0.0606 -0.1374
15335TIP3   OH267419   0.258   2.152   3.973  0.5427  0.6437  0.1254
15335TIP3    H167420   0.296   2.067   3.950  2.5904  1.6432 -0.3031
15335TIP3    H267421   0.275   2.161   4.066 -1.1686 -0.1202  0.5431
15336TIP3   OH267422   5.106   1.443  14.831  0.5656  0.1282 -0.1800
15336TIP3    H167423   5.119   1.525  14.784  0.0497 -0.5156 -1.4681
15336TIP3    H267424   5.190   1.427  14.874  1.7082 -0.2554 -2.4853
15337TIP3   OH267425   5.521   3.395  11.794  0.0226 -0.0621  0.4403
15337TIP3    H167426   5.485   3.481  11.772  0.2992 -0.3399 -1.1900
15337TIP3    H267427   5.447   3.335  11.786  0.3556 -0.3262 -0.8960
15338TIP3   OH267428   6.216   2.320  13.058  0.6015 -0.6497  0.2907
15338TIP3    H167429   6.191   2.233  13.090  0.0731 -0.4095  0.5363
15338TIP3    H267430   6.165   2.381  13.112 -0.2456 -0.2294 -0.9776
15339TIP3   OH267431   3.486   4.977   4.676  0.0341 -0.2152  0.1149
15339TIP3    H167432   3.450   4.892   4.704 -0.0609 -0.4399 -0.6638
15339TIP3    H267433   3.492   5.028   4.756 -1.4298 -0.4033  0.3732
15340TIP3   OH267434   4.240   4.511  14.350  0.1924 -0.1079 -0.3967
15340TIP3    H167435   4.160   4.463  14.329 -0.5845  1.1327 -0.3140
15340TIP3    H267436   4.291   4.512  14.269 -1.1575  1.5234 -1.2543
15341TIP3   OH267437   1.778   3.353   5.927 -0.1047  0.1469  0.6206
15341TIP3    H167438   1.769   3.298   6.005 -0.2278 -1.0987 -0.2466
15341TIP3    H267439   1.830   3.300   5.867  0.0621  1.1325 -0.1158
15342TIP3   OH267440   3.667   5.585  12.934 -0.4379  0.0910 -0.7755
15342TIP3    H167441   3.644   5.672  12.900 -0.5025  0.4261  0.1238
15342TIP3    H267442   3.708   5.602  13.018 -0.8337 -0.7785 -0.4016
15343TIP3   OH267443   2.165   5.739  13.853  0.3493  0.1171 -0.1819
15343TIP3    H167444   2.148   5.815  13.797 -1.8142  0.8334  1.3825
15343TIP3    H267445   2.095   5.678  13.831  1.1319 -0.7609 -0.2457
15344TIP3   OH267446   6.286   2.626   4.164 -0.3027  0.7333 -0.4655
15344TIP3    H167447   6.193   2.645   4.178 -0.8262 -2.4116  0.7135
15344TIP3    H267448   6.311   2.574   4.240  2.2553  0.9780 -1.1164
15345TIP3   OH267449   6.548   6.273  13.385  0.3646  0.5379  0.1005
15345TIP3    H167450   6.568   6.345  13.325 -0.0768  0.4918 -0.1043
15345TIP3    H267451   6.581   6.195  13.340 -1.1536  0.3384 -0.6904
15346TIP3   OH267452   3.488   4.603   4.571 -0.2833 -0.1200  0.1946
15346TIP3    H167453   3.581   4.606   4.592 -0.1523 -1.6130 -0.1254
15346TIP3    H267454   3.445   4.580   4.654 -0.2538 -0.6912  0.0507
15347TIP3   OH267455   3.450   0.528  16.122 -0.0758 -0.4340  0.4876
15347TIP3    H167456   3.381   0.463  16.134 -0.2080 -0.3128  0.3816
15347TIP3    H267457   3.514   0.508  16.190 -0.9911  0.4641  1.6330
15348TIP3   OH267458   3.794   3.717   4.094 -0.2735 -0.3192 -0.0102
15348TIP3    H167459   3.849   3.787   4.129 -0.6095 -0.4464  0.7815
15348TIP3    H267460   3.720   3.713   4.154  0.3444 -2.1974  0.6503
15349TIP3   OH267461   1.568   6.528  14.185 -0.2068 -0.6500  0.2683
15349TIP3    H167462   1.593   6.455  14.128  0.7960 -0.3021  0.2568
15349TIP3    H267463   1.510   6.582  14.131  1.6784  0.3034 -0.8283
15350TIP3   OH267464   2.550   2.444   4.031  0.1063 -0.0090  0.8135
15350TIP3    H167465   2.528   2.521   4.082  1.0907 -0.6315  2.2300
15350TIP3    H267466   2.468   2.396   4.022 -0.4579  1.0941  0.1114
15351TIP3   OH267467   5.866   0.075   2.259 -0.3716  0.1499 -0.4330
15351TIP3    H167468   5.917   0.155   2.244  1.0335 -0.6379 -0.0035
15351TIP3    H267469   5.895   0.016   2.189 -0.1475 -0.5499  0.2352
15352TIP3   OH267470   5.673   1.336  15.628  0.0422  0.6908  0.2347
15352TIP3    H167471   5.697   1.367  15.715  0.1417  1.3019 -0.0047
15352TIP3    H267472   5.686   1.242  15.631  0.2407  0.7387  0.8215
15353TIP3   OH267473   3.666   5.870  12.988 -0.0895 -0.4386 -0.1880
15353TIP3    H167474   3.754   5.883  12.952 -0.6821  1.4387 -1.0071
15353TIP3    H267475   3.607   5.891  12.916 -1.2243 -1.7421  0.3415
15354TIP3   OH267476   1.697   4.882   1.435 -0.3881 -0.2334  0.2458
15354TIP3    H167477   1.749   4.879   1.355 -0.6821 -3.5963  0.0919
15354TIP3    H267478   1.607   4.865   1.407 -0.9066  1.2086  0.9989
15355TIP3   OH267479   2.198   2.535   1.700  0.0921 -0.4952 -0.4608
15355TIP3    H167480   2.166   2.529   1.610 -1.5353  1.6422 -0.0527
15355TIP3    H267481   2.218   2.628   1.713  0.1231 -0.7446  1.4572
15356TIP3   OH267482   2.963   4.443   5.985 -0.3275  0.1151  0.6554
15356TIP3    H167483   2.899   4.426   6.054  0.0862  0.4290  1.1232
15356TIP3    H267484   2.966   4.362   5.934 -3.1767  1.0525 -1.0924
15357TIP3   OH267485   5.924   0.390  13.107  0.6953  0.6287 -0.3489
15357TIP3    H167486   5.885   0.419  13.025  1.2061 -1.1574 -1.2735
15357TIP3    H267487   6.012   0.361  13.082 -0.3617 -3.3085  0.1015
15358TIP3   OH267488   6.032   4.565   0.572 -0.5455  0.3825  0.3774
15358TIP3    H167489   6.061   4.517   0.494 -1.2572 -0.5560  0.6776
15358TIP3    H267490   5.969   4.629   0.539  2.6016  3.1410 -0.4155
15359TIP3   OH267491   1.289   4.920   1.734 -0.5387  0.3080  0.1692
15359TIP3    H167492   1.213   4.959   1.691 -0.9016 -1.0833 -0.5088
15359TIP3    H267493   1.251   4.850   1.789  0.2139 -0.1890  0.0587
15360TIP3   OH267494   5.919   1.965   4.625  0.2261 -0.0355  0.0698
15360TIP3    H167495   5.864   1.901   4.580  0.8384 -0.7937  0.3877
15360TIP3    H267496   5.958   2.016   4.554 -2.3149  1.7362 -0.1017
15361TIP3   OH267497   6.546   4.836   3.272 -0.4764  0.3594  0.0710
15361TIP3    H167498   6.576   4.926   3.281 -2.6460  0.9377  1.8204
15361TIP3    H267499   6.488   4.837   3.196  1.2916 -0.0921 -1.3324
15362TIP3   OH267500   4.640   2.112   0.484  0.3992  0.3694 -0.0071
15362TIP3    H167501   4.712   2.101   0.545  0.3817 -2.3682 -0.4421
15362TIP3    H267502   4.616   2.023   0.458 -1.1169  1.3702 -2.2093
15363TIP3   OH267503   3.708   0.134  16.752 -0.0260  0.0089  0.6810
15363TIP3    H167504   3.625   0.088  16.763 -0.5752  0.9049  0.3886
15363TIP3    H267505   3.749   0.092  16.677  0.0474 -0.8238  1.1887
15364TIP3   OH267506   3.698   4.255  16.847  0.3720 -0.4243 -0.0797
15364TIP3    H167507   3.677   4.295  16.932 -0.5864 -1.8641  0.3693
15364TIP3    H267508   3.634   4.293  16.787  0.2337 -0.3679  0.1004
15365TIP3   OH267509   6.499   1.745   0.683 -0.2562 -0.0291 -0.8330
15365TIP3    H167510   6.415   1.749   0.730  0.7319 -1.0981  1.0546
15365TIP3    H267511   6.537   1.661   0.708  1.3389  0.3876 -1.7815
15366TIP3   OH267512   5.451   4.711   0.134  0.1546 -0.2756  0.2127
15366TIP3    H167513   5.449   4.626   0.091 -1.3101  0.3583 -1.0221
15366TIP3    H267514   5.367   4.751   0.113  0.1841  0.8294  2.1246
15367TIP3   OH267515   0.827   3.413  11.896  0.2021 -0.0556 -0.5324
15367TIP3    H167516   0.738   3.380  11.879 -0.2849  1.1371 -0.3562
15367TIP3    H267517   0.880   3.379  11.824  0.0828 -2.6213  0.5179
15368TIP3   OH267518   5.601   3.779   4.525 -0.9332 -0.6804 -0.4261
15368TIP3    H167519   5.600   3.754   4.617 -2.2076  1.2340  0.0976
15368TIP3    H267520   5.582   3.697   4.478 -2.2726 -1.2754  1.1157
15369TIP3   OH267521   1.478   1.370  12.836 -0.1109 -0.1678  0.2003
15369TIP3    H167522   1.387   1.386  12.810 -0.2682 -0.0418  0.8176
15369TIP3    H267523   1.472   1.341  12.927  0.3570 -1.5416 -0.2006
15370TIP3   OH267524   1.105   3.867   5.874 -0.4050 -0.5066  0.2757
15370TIP3    H167525   1.127   3.894   5.964 -0.3899 -0.1532  0.1686
15370TIP3    H267526   1.029   3.809   5.884 -1.3074  0.6701  0.4085
15371TIP3   OH267527   5.281   5.845   0.058 -0.1072  0.0060 -0.2166
15371TIP3    H167528   5.304   5.936   0.077  0.0256  0.2244 -1.3582
15371TIP3    H267529   5.364   5.798   0.058 -0.3595 -0.4976  2.2508
15372TIP3   OH267530   4.662   2.720  16.517 -0.2718  0.1585 -0.1726
15372TIP3    H167531   4.702   2.785  16.575 -2.2690  0.4474  0.9314
15372TIP3    H267532   4.683   2.750  16.429 -0.3435  1.7787  0.3450
15373TIP3   OH267533   1.134   1.006  16.171  0.6775 -0.4794 -0.4117
15373TIP3    H167534   1.210   0.953  16.197  2.0492  1.0495 -1.2602
15373TIP3    H267535   1.161   1.052  16.092 -1.1985 -0.0261 -0.8301
15374TIP3   OH267536   1.217   6.431  14.276 -0.0055 -0.4898 -0.2384
15374TIP3    H167537   1.179   6.352  14.316  1.3061 -1.4824 -0.9034
15374TIP3    H267538   1.300   6.443  14.322  0.3569 -0.2068 -0.9684
15375TIP3   OH267539   3.224   5.562   5.104  0.0406 -0.1308 -0.6610
15375TIP3    H167540   3.299   5.535   5.158  1.4399  0.0858 -2.4703
15375TIP3    H267541   3.225   5.504   5.029 -1.0480  0.5025 -1.1903
15376TIP3   OH267542   1.623   1.020  14.511 -0.1584 -0.1301  0.4155
15376TIP3    H167543   1.651   0.931  14.530 -2.2050 -0.9457 -0.2574
15376TIP3    H267544   1.682   1.050  14.442 -0.2223 -1.4004 -0.1988
15377TIP3   OH267545   6.015   3.799  14.629  0.3798  0.4281 -0.3057
15377TIP3    H167546   6.032   3.785  14.722 -0.1802  0.0101 -0.2629
15377TIP3    H267547   5.975   3.886  14.625 -0.6102 -0.0077 -0.0291
15378TIP3   OH267548   3.558   2.610   3.207  0.6334  0.2184  0.3027
15378TIP3    H167549   3.611   2.539   3.170 -1.0936  0.4060 -2.7033
15378TIP3    H267550   3.486   2.566   3.251 -2.4741 -0.0179 -4.6678
15379TIP3   OH267551   4.181   3.351  11.348  0.0952  0.1017 -0.0226
15379TIP3    H167552   4.154   3.301  11.426  0.4247 -1.2771 -0.7843
15379TIP3    H267553   4.216   3.433  11.384 -2.3733  0.7102  1.1395
15380TIP3   OH267554   4.257   5.451   1.502  0.1608  1.0255 -0.3316
15380TIP3    H167555   4.207   5.531   1.517 -0.2724  0.8865 -1.0291
15380TIP3    H267556   4.346   5.481   1.484  0.2170  1.2980  0.3752
15381TIP3   OH267557   1.151   4.185  14.705  0.1545  0.4450 -0.5928
15381TIP3    H167558   1.207   4.108  14.698  0.9446  1.0911 -1.7108
15381TIP3    H267559   1.147   4.204  14.799 -0.8349 -1.5019 -0.2354
15382TIP3   OH267560   6.250   4.453  16.862  0.5779 -0.1100 -0.5172
15382TIP3    H167561   6.157   4.431  16.865  0.7880 -1.0351 -0.4905
15382TIP3    H267562   6.263   4.491  16.775 -0.4079  2.8148  0.5437
15383TIP3   OH267563   0.774   3.974   0.740 -0.6068  0.2001  0.6350
15383TIP3    H167564   0.770   4.051   0.796 -1.2737  0.6956 -0.0841
15383TIP3    H267565   0.683   3.948   0.728 -0.5713  0.8921 -1.2931
15384TIP3   OH267566   0.194   5.820  14.236 -0.4922  0.5647  0.6275
15384TIP3    H167567   0.178   5.912  14.212  1.1192  1.0772  1.4389
15384TIP3    H267568   0.245   5.785  14.164 -1.7573  0.0794 -0.0422
15385TIP3   OH267569   4.309   1.421   6.524  0.2728 -0.5851  0.7049
15385TIP3    H167570   4.347   1.399   6.439 -1.7724 -0.8808 -0.1713
15385TIP3    H267571   4.384   1.436   6.581  1.6826 -0.0098 -1.2436
15386TIP3   OH267572   0.277   5.780   0.725  0.2271 -0.3834  0.4980
15386TIP3    H167573   0.242   5.721   0.658 -0.6237 -0.0373  0.6289
15386TIP3    H267574   0.296   5.861   0.677 -1.2862  0.1935  0.8325
15387TIP3   OH267575   6.045   3.167  14.318 -0.2790 -0.0530  0.1809
15387TIP3    H167576   6.013   3.205  14.400  1.2438 -1.6317  1.5626
15387TIP3    H267577   6.064   3.243  14.263 -1.6330  1.0328  1.1631
15388TIP3   OH267578   5.984   4.481   4.753 -0.2269  0.4723  0.6087
15388TIP3    H167579   6.033   4.458   4.832 -1.2794  1.4007  1.5400
15388TIP3    H267580   5.966   4.574   4.762  1.3659  1.0384 -1.6968
15389TIP3   OH267581   5.001   2.331   2.516 -0.1614 -0.0222  0.4888
15389TIP3    H167582   5.020   2.361   2.427  0.6136  0.9770  0.9679
15389TIP3    H267583   4.955   2.404   2.557  1.2158  0.3080  1.4986
15390TIP3   OH267584   0.937   3.794   3.340 -0.1175 -0.5684  0.5667
15390TIP3    H167585   0.915   3.719   3.395  0.9165 -1.2185  0.1268
15390TIP3    H267586   0.853   3.835   3.320 -0.8176 -2.2853 -0.1135
15391TIP3   OH267587   1.676   2.526   1.647  0.3568 -0.1069 -0.0757
15391TIP3    H167588   1.706   2.604   1.600 -0.7342  0.2430 -0.2029
15391TIP3    H267589   1.748   2.464   1.639  1.1412  0.8077 -0.1743
15392TIP3   OH267590   2.305   2.645   5.084 -0.1425  0.7626  0.4745
15392TIP3    H167591   2.355   2.727   5.084  0.5658  0.3313 -0.0219
15392TIP3    H267592   2.237   2.659   5.017  0.0700  0.8891  0.2843
15393TIP3   OH267593   4.064   1.287   5.617  0.0431 -0.0084  0.0204
15393TIP3    H167594   4.038   1.204   5.577 -0.5595  0.5334 -0.7247
15393TIP3    H267595   4.159   1.285   5.617  0.0329 -0.8971  0.4231
15394TIP3   OH267596   0.320   0.709  14.444 -0.2802 -0.5480 -0.1176
15394TIP3    H167597   0.368   0.787  14.416  0.0219 -0.4991  0.5358
15394TIP3    H267598   0.377   0.636  14.419 -0.3743 -0.5412 -0.3526
15395TIP3   OH267599   1.106   6.099  13.301  0.1356 -0.6029 -0.1383
15395TIP3    H167600   1.090   6.085  13.207  0.1365  0.7781 -0.3622
15395TIP3    H267601   1.066   6.184  13.319  0.8895 -0.4646  0.9149
15396TIP3   OH267602   3.220   5.612   1.996  0.0290 -0.5050  0.5577
15396TIP3    H167603   3.283   5.585   1.929 -0.2007 -1.2098  0.6312
15396TIP3    H267604   3.135   5.611   1.952  0.0025 -0.0250  0.5936
15397TIP3   OH267605   5.728   4.198   4.243  0.4414  0.4117 -0.4471
15397TIP3    H167606   5.696   4.158   4.162  0.2834  0.1429 -0.2525
15397TIP3    H267607   5.672   4.161   4.312 -0.5261  1.8864 -0.4148
15398TIP3   OH267608   2.981   3.704   0.113  0.2614 -0.2550 -0.6631
15398TIP3    H167609   2.897   3.687   0.156  0.3152 -0.3264 -0.5872
15398TIP3    H267610   3.034   3.627   0.134  1.0861  0.7628  1.0868
15399TIP3   OH267611   4.357   6.658  15.613 -0.8386 -0.1088  0.3274
15399TIP3    H167612   4.322   6.716  15.680  0.0481  0.8761 -0.0545
15399TIP3    H267613   4.300   6.581  15.616 -1.7511  0.5871  1.1366
15400TIP3   OH267614   4.856   0.078  13.221  0.1770 -0.4210  0.1657
15400TIP3    H167615   4.892  -0.000  13.179 -0.0593  0.7087 -2.2406
15400TIP3    H267616   4.769   0.088  13.181 -0.7930 -0.2822  2.2322
15401TIP3   OH267617   5.078   5.726   5.646  0.1028  0.0076 -0.1861
15401TIP3    H167618   5.089   5.684   5.560 -0.3717  0.5818 -0.5276
15401TIP3    H267619   5.122   5.811   5.636  0.1181  0.0391  0.1678
15402TIP3   OH267620   3.400   6.297  13.426 -0.0677 -0.4901 -0.9252
15402TIP3    H167621   3.368   6.207  13.423 -0.5359 -0.3918  0.5796
15402TIP3    H267622   3.326   6.350  13.396 -1.1869 -0.3177  1.9371
15403TIP3   OH267623   2.571   4.440  11.817  0.7469  0.3079 -0.0414
15403TIP3    H167624   2.644   4.496  11.843  0.3895  1.0703 -0.6459
15403TIP3    H267625   2.600   4.398  11.736  0.9090 -0.1815  0.2665
15404TIP3   OH267626   6.532   2.464  13.758 -0.0742 -0.0105  0.5313
15404TIP3    H167627   6.615   2.471  13.713 -0.2154 -0.4339  0.2067
15404TIP3    H267628   6.483   2.542  13.731 -0.2135 -0.3328 -0.1566
15405TIP3   OH267629   3.317   0.863   5.281  0.0583  0.2503  0.6416
15405TIP3    H167630   3.325   0.863   5.377  0.7261 -0.4277  0.5931
15405TIP3    H267631   3.267   0.784   5.261  0.0848  0.2911  0.4176
15406TIP3   OH267632   6.479   4.513  10.392  0.5529 -0.3864 -0.5053
15406TIP3    H167633   6.395   4.558  10.385  0.4963 -0.4507 -0.2396
15406TIP3    H267634   6.457   4.420  10.391  0.6278 -0.4048 -0.5233
15407TIP3   OH267635   2.335   3.928   5.157  0.0230  0.0582  0.0457
15407TIP3    H167636   2.268   3.965   5.101 -0.0521  0.9457  0.7121
15407TIP3    H267637   2.303   3.943   5.246  0.6636 -0.3422  0.3523
15408TIP3   OH267638   5.523   3.675   6.610  0.2810  0.1592  0.6660
15408TIP3    H167639   5.500   3.587   6.640  1.0624 -0.4315 -0.4150
15408TIP3    H267640   5.616   3.669   6.588  0.4133  1.3434  0.8572
15409TIP3   OH267641   5.212   4.936   1.062 -0.6117 -0.2265 -0.7420
15409TIP3    H167642   5.237   5.028   1.075 -0.8139 -0.2855  0.1089
15409TIP3    H267643   5.120   4.939   1.038 -1.2126 -0.3183  1.4248
15410TIP3   OH267644   6.293   1.553  12.889  0.2970  0.4574  0.2419
15410TIP3    H167645   6.351   1.562  12.813 -1.7998  2.2050 -1.2130
15410TIP3    H267646   6.250   1.468  12.875 -0.3130  0.9108 -0.7325
15411TIP3   OH267647   5.302   0.194   2.086 -0.2720  0.2343 -0.1206
15411TIP3    H167648   5.310   0.100   2.070 -0.2008  0.3822 -0.9816
15411TIP3    H267649   5.279   0.231   2.001 -0.9441  0.9234  0.3477
15412TIP3   OH267650   2.987   4.073   1.917  0.0956  0.1731 -0.8344
15412TIP3    H167651   3.000   4.164   1.943  0.1868 -0.3091  0.8483
15412TIP3    H267652   2.941   4.033   1.990 -0.8005 -0.9137 -1.9738
15413TIP3   OH267653   2.570   5.561  16.946 -0.0337  0.8464  0.6831
15413TIP3    H167654   2.487   5.533  16.907  1.1269 -0.1504 -1.1470
15413TIP3    H267655   2.572   5.519  17.032 -0.5501 -0.7131 -0.0520
15414TIP3   OH267656   1.097   4.329  10.864 -0.3858 -0.2750  0.4437
15414TIP3    H167657   1.089   4.275  10.785  1.9010 -0.6455  0.4122
15414TIP3    H267658   1.008   4.357  10.884 -0.9945 -0.1412 -2.2947
15415TIP3   OH267659   1.397   5.227   1.668  0.0066  0.4054 -0.3024
15415TIP3    H167660   1.354   5.311   1.684 -0.4572 -0.1714  1.5711
15415TIP3    H267661   1.327   5.162   1.675  0.9309 -0.4357  1.5778
15416TIP3   OH267662   6.599   1.476  12.108 -0.0076  0.2235  0.3792
15416TIP3    H167663   6.620   1.476  12.015 -1.3875  1.0746  0.0652
15416TIP3    H267664   6.512   1.435  12.113 -0.5395  1.4187  1.1459
15417TIP3   OH267665   4.474   5.591   1.449 -0.3136 -0.1430  0.6648
15417TIP3    H167666   4.561   5.590   1.409 -0.1445 -0.9119  1.0366
15417TIP3    H267667   4.426   5.658   1.400  0.4021  0.1004  0.2833
15418TIP3   OH267668   6.083   1.598   2.379  0.3397  0.0800 -0.0844
15418TIP3    H167669   6.061   1.507   2.402 -0.0174  0.5433  1.4776
15418TIP3    H267670   6.164   1.591   2.329 -1.3040 -1.3504 -2.7104
15419TIP3   OH267671   4.276   2.397  16.771  0.2772  0.1571  0.2374
15419TIP3    H167672   4.207   2.387  16.706 -0.0077 -0.1541  0.5849
15419TIP3    H267673   4.306   2.487  16.762 -0.6156  0.4862  0.5261
15420TIP3   OH267674   3.214   0.344   4.773 -0.0428 -0.6812 -0.2745
15420TIP3    H167675   3.187   0.259   4.739  0.3861 -0.8342 -0.2331
15420TIP3    H267676   3.255   0.387   4.698 -1.9104  0.2193 -0.8038
15421TIP3   OH267677   1.319   3.919   1.064 -0.0203  0.4728 -0.0272
15421TIP3    H167678   1.285   3.927   1.153 -0.1327 -2.2622  0.2328
15421TIP3    H267679   1.251   3.872   1.016  0.5726  0.8172 -1.2228
15422TIP3   OH267680   4.357   2.142  16.722 -0.0739 -0.0987 -0.0876
15422TIP3    H167681   4.311   2.223  16.745 -2.1757 -0.1483 -3.7173
15422TIP3    H267682   4.437   2.171  16.678 -0.3184  0.0172 -0.4579
15423TIP3   OH267683   1.450   5.504   1.725  0.2708  0.1528 -0.1930
15423TIP3    H167684   1.477   5.568   1.791 -0.4716  1.5779 -1.2327
15423TIP3    H267685   1.532   5.466   1.693  0.5892 -1.1636  2.1275
15424TIP3   OH267686   5.571   0.050  16.188  0.1515 -0.4061 -0.5153
15424TIP3    H167687   5.485   0.033  16.148  0.5548 -0.2772 -1.4443
15424TIP3    H267688   5.631  -0.007  16.140  0.8925  0.8654 -1.1038
15425TIP3   OH267689   2.635   1.621  11.407  0.0772 -0.0176  0.2451
15425TIP3    H167690   2.556   1.665  11.375 -1.0492  0.2101  3.1410
15425TIP3    H267691   2.695   1.692  11.428 -0.1789 -0.0339  1.0523
15426TIP3   OH267692   2.232   2.878  17.124  0.3182  0.2107 -0.0297
15426TIP3    H167693   2.240   2.946  17.057 -0.4179 -0.9307 -1.2803
15426TIP3    H267694   2.144   2.843  17.113 -0.4106  1.0966  2.5997
15427TIP3   OH267695   4.598   1.338  17.065 -0.0576 -0.2862  0.4213
15427TIP3    H167696   4.582   1.265  17.005  2.0818  0.4468 -1.1173
15427TIP3    H267697   4.511   1.368  17.090 -0.9729 -2.3602 -0.1474
15428TIP3   OH267698   4.945   0.775   3.206  0.1164 -0.1546 -0.0987
15428TIP3    H167699   4.944   0.862   3.244  1.1789 -0.4689  0.6713
15428TIP3    H267700   4.855   0.743   3.216 -0.0810  0.5383  0.3559
15429TIP3   OH267701   1.382   1.920   5.188 -0.0844  0.6708  0.3838
15429TIP3    H167702   1.288   1.907   5.181  0.1855 -1.8460  0.6761
15429TIP3    H267703   1.413   1.842   5.236  2.4378  0.1043 -2.0299
15430TIP3   OH267704   6.236   5.444  16.129 -0.2235 -0.1877 -0.3645
15430TIP3    H167705   6.173   5.484  16.069  0.6044 -0.4952 -1.4554
15430TIP3    H267706   6.322   5.472  16.096  0.2286 -0.0341  0.9147
15431TIP3   OH267707   4.954   0.537   4.369 -0.4623 -0.2416 -0.5424
15431TIP3    H167708   4.871   0.538   4.417 -0.8868  0.9429 -1.2918
15431TIP3    H267709   4.962   0.625   4.332  0.6758 -0.6324 -1.2527
15432TIP3   OH267710   4.212   5.390   2.609 -0.8721  0.5521  1.0502
15432TIP3    H167711   4.262   5.384   2.528 -0.0565 -0.6912  1.6284
15432TIP3    H267712   4.250   5.322   2.666 -4.3149 -1.6534  0.8896
15433TIP3   OH267713   6.132   4.487  14.290  0.7125 -0.1445  0.5965
15433TIP3    H167714   6.039   4.500  14.271  0.7153  1.2505  1.4253
15433TIP3    H267715   6.150   4.547  14.362  2.7961  1.3397 -1.0955
15434TIP3   OH267716   2.610   3.957   1.807  0.0760 -0.4688 -0.2949
15434TIP3    H167717   2.660   3.884   1.844  0.1942 -0.4503 -0.4158
15434TIP3    H267718   2.675   4.008   1.758  0.4213  0.9189  1.5632
15435TIP3   OH267719   2.586   5.847   2.322  0.4478 -0.2666 -0.1390
15435TIP3    H167720   2.576   5.927   2.374 -0.5395 -0.4559 -0.0271
15435TIP3    H267721   2.558   5.777   2.380  2.3072 -0.8098  0.1121
15436TIP3   OH267722   1.809   2.317  10.711 -0.3064 -0.5229  0.8207
15436TIP3    H167723   1.883   2.275  10.666 -1.3478 -0.6755 -0.8079
15436TIP3    H267724   1.813   2.408  10.682 -0.9679 -0.6134  0.4521
15437TIP3   OH267725   0.359   6.667  10.303 -0.2745  1.0480 -0.0421
15437TIP3    H167726   0.372   6.762  10.302  2.4608  0.7161  0.1957
15437TIP3    H267727   0.445   6.631  10.282 -1.4936 -1.3794 -1.0161
15438TIP3   OH267728   1.429   0.486  16.362  0.2168  0.3399 -0.0758
15438TIP3    H167729   1.397   0.403  16.397  0.0814 -0.3981 -1.8985
15438TIP3    H267730   1.510   0.502  16.411 -0.1798 -0.4595  0.8603
15439TIP3   OH267731   6.703   6.265   2.589 -0.7790  0.3075 -0.1576
15439TIP3    H167732   6.665   6.338   2.638 -0.8803  1.1685 -1.4852
15439TIP3    H267733   6.656   6.188   2.619 -1.2132  0.8988  0.6938
15440TIP3   OH267734   3.553   4.418   4.383  0.3557  0.1293 -0.0875
15440TIP3    H167735   3.477   4.391   4.332  0.0445 -0.3331  0.6084
15440TIP3    H267736   3.524   4.496   4.431  0.4686  0.2307 -0.1857
15441TIP3   OH267737   5.953   1.559  13.571 -0.3432  0.4674 -0.3092
15441TIP3    H167738   6.008   1.601  13.505  0.1770  0.3251  0.0324
15441TIP3    H267739   6.015   1.521  13.634 -0.7665 -2.1604 -1.4269
15442TIP3   OH267740   5.940   3.663  12.701  0.2980 -0.2644  0.1999
15442TIP3    H167741   5.876   3.592  12.708 -0.2682  0.1921 -0.2872
15442TIP3    H267742   5.938   3.706  12.787  1.2462 -1.3501  0.7661
15443TIP3   OH267743   2.041   6.059   5.424 -0.1365 -0.3143  0.2937
15443TIP3    H167744   2.022   6.127   5.489  0.3835 -1.0941  1.2723
15443TIP3    H267745   1.971   5.995   5.435  0.7140 -1.1381  1.0651
15444TIP3   OH267746   4.764   1.624  15.687 -0.2732  0.1318  0.2043
15444TIP3    H167747   4.832   1.660  15.629  0.3055 -1.0102  0.1620
15444TIP3    H267748   4.753   1.691  15.754  0.1539  0.7923 -0.3662
15445TIP3   OH267749   2.257   3.108  16.955 -0.1590 -0.2640 -0.0529
15445TIP3    H167750   2.211   3.158  16.888 -0.8876  1.3870  1.6411
15445TIP3    H267751   2.328   3.165  16.983 -1.2857  0.0702  2.2444
15446TIP3   OH267752   4.534   4.425   5.798 -0.3276  0.2678  0.0207
15446TIP3    H167753   4.446   4.450   5.826 -0.6720 -0.8697 -0.0079
15446TIP3    H267754   4.581   4.407   5.879  0.3017  2.2207  0.0999
15447TIP3   OH267755   3.461   1.352   5.877 -0.2052  0.9450  0.6875
15447TIP3    H167756   3.396   1.289   5.846 -0.6436  1.9350 -0.4136
15447TIP3    H267757   3.424   1.387   5.958 -1.1408  1.6400 -0.0290
15448TIP3   OH267758   5.423   4.941   5.680 -0.3528  0.6646  0.1426
15448TIP3    H167759   5.422   4.872   5.747  0.5156 -0.6597 -1.1744
15448TIP3    H267760   5.493   4.915   5.621 -0.5968  2.2437 -0.8564
15449TIP3   OH267761   4.614   4.325  16.952  0.7078  0.6438 -0.4089
15449TIP3    H167762   4.685   4.382  16.982  0.5876  0.9772 -0.7568
15449TIP3    H267763   4.564   4.304  17.031  1.4847 -0.0019 -0.0815
15450TIP3   OH267764   6.131   4.934   1.616 -0.5551  0.0342 -0.7348
15450TIP3    H167765   6.222   4.965   1.617 -0.8219  0.8940 -2.0202
15450TIP3    H267766   6.095   4.964   1.700  0.1228  0.3875 -0.5649
15451TIP3   OH267767   0.373   0.577   4.761  0.5755  0.0460 -0.0739
15451TIP3    H167768   0.453   0.594   4.811  0.0428 -0.1565  0.8753
15451TIP3    H267769   0.334   0.501   4.805 -0.5317  0.6215 -0.0337
15452TIP3   OH267770   6.526   4.660   5.586 -0.3121  0.1530  0.2148
15452TIP3    H167771   6.538   4.644   5.493 -0.3300  1.5194 -0.0263
15452TIP3    H267772   6.438   4.628   5.605 -1.3485  2.3408 -0.8115
15453TIP3   OH267773   2.438   4.162   0.481  0.5328  0.2304 -0.0295
15453TIP3    H167774   2.386   4.089   0.447  1.0051 -0.4151  0.6143
15453TIP3    H267775   2.486   4.195   0.405 -0.2260  0.3351 -0.4673
15454TIP3   OH267776   2.899   4.202   2.860 -0.0889  0.5347 -0.0137
15454TIP3    H167777   2.935   4.156   2.784  0.1768  1.0853 -0.2193
15454TIP3    H267778   2.973   4.252   2.895 -0.1572  0.1364  0.7224
15455TIP3   OH267779   4.602   6.182   1.839  0.4015  0.3336  0.2567
15455TIP3    H167780   4.682   6.178   1.890 -1.2714 -0.5111  2.8860
15455TIP3    H267781   4.555   6.101   1.860 -1.3768  1.0462 -0.8197
15456TIP3   OH267782   6.045   4.825  10.340 -0.1882 -0.7414  0.3036
15456TIP3    H167783   5.984   4.842  10.268  1.5203 -0.9059 -1.2353
15456TIP3    H267784   6.045   4.906  10.392  0.4862  0.3513 -1.3573
15457TIP3   OH267785   6.165   3.386  13.869 -0.2051 -0.8567  0.5971
15457TIP3    H167786   6.128   3.440  13.799  0.3359  1.6778  2.2021
15457TIP3    H267787   6.252   3.363  13.837  0.3413  0.9316  0.7083
15458TIP3   OH267788   1.236   4.047   0.466  0.2397 -0.2535  0.2651
15458TIP3    H167789   1.275   4.131   0.441  1.1237 -0.4387  1.0127
15458TIP3    H267790   1.147   4.070   0.492  0.2666  0.3639 -0.1644
15459TIP3   OH267791   1.252   5.087   6.117  0.3507  0.6194 -0.3248
15459TIP3    H167792   1.169   5.065   6.074  1.1044  0.3400 -1.6473
15459TIP3    H267793   1.231   5.085   6.210 -1.1039  0.4231 -0.6376
15460TIP3   OH267794   5.039   3.422   5.887  0.2338  0.3414  0.4981
15460TIP3    H167795   5.112   3.365   5.863 -0.4302 -0.0340 -0.7181
15460TIP3    H267796   5.002   3.383   5.966 -0.2403 -0.9548 -0.3535
15461TIP3   OH267797   4.783   4.942  15.573  0.2220  0.1891 -0.4733
15461TIP3    H167798   4.876   4.918  15.577  0.4057  0.9406 -0.1470
15461TIP3    H267799   4.744   4.876  15.517  0.7630 -0.7463  0.2328
15462TIP3   OH267800   1.711   4.185   5.370 -0.1899 -0.5267  0.2038
15462TIP3    H167801   1.735   4.145   5.453 -1.6171 -0.1556  0.8030
15462TIP3    H267802   1.640   4.130   5.336  0.3526 -0.6485 -0.7431
15463TIP3   OH267803   4.296   4.551  13.633  0.1953 -0.2130 -0.4701
15463TIP3    H167804   4.229   4.488  13.659  0.9298 -1.7089 -2.1294
15463TIP3    H267805   4.305   4.539  13.539  1.9769  0.7996 -0.4458
15464TIP3   OH267806   5.817   2.529  13.264  0.6110  0.1614  0.1320
15464TIP3    H167807   5.828   2.538  13.169 -1.1882  0.4508 -0.0649
15464TIP3    H267808   5.860   2.606  13.301  0.9199  0.2828 -0.4752
15465TIP3   OH267809   5.409   5.477  15.166 -0.0203 -0.1408  0.2812
15465TIP3    H167810   5.457   5.438  15.094  0.6732 -0.2681  0.8053
15465TIP3    H267811   5.477   5.502  15.230 -0.6179 -0.0452  0.8889
15466TIP3   OH267812   6.513   3.157  16.186  0.2571  0.5139 -0.2237
15466TIP3    H167813   6.490   3.090  16.122  0.9718 -0.1371  0.2014
15466TIP3    H267814   6.434   3.211  16.193 -0.6805 -0.8881  0.2123
15467TIP3   OH267815   1.477   5.893   4.788 -0.0621  0.5647 -0.0548
15467TIP3    H167816   1.496   5.905   4.695 -0.3610 -2.3264 -0.5471
15467TIP3    H267817   1.395   5.940   4.802 -1.8394 -1.7653 -2.1197
15468TIP3   OH267818   4.792   6.776   0.303  0.6684 -0.2235 -0.3977
15468TIP3    H167819   4.703   6.812   0.300  0.5844 -0.1269  1.9882
15468TIP3    H267820   4.793   6.707   0.237 -1.6018 -1.1446  0.4948
15469TIP3   OH267821   4.770   2.988   2.797 -0.0752  0.3204  0.0112
15469TIP3    H167822   4.798   2.946   2.716 -0.5296 -0.5310  0.2959
15469TIP3    H267823   4.826   2.950   2.865 -0.4113  0.2593  0.2527
15470TIP3   OH267824   5.789   3.391  15.050  0.1533 -0.2062 -0.6294
15470TIP3    H167825   5.721   3.459  15.058  1.5095  1.3670 -2.2597
15470TIP3    H267826   5.755   3.331  14.983 -0.9275 -1.0317  0.6290
15471TIP3   OH267827   3.580   6.416  16.697  0.0716  0.0609 -0.1563
15471TIP3    H167828   3.659   6.395  16.747 -1.1100  1.6289  2.4681
15471TIP3    H267829   3.576   6.348  16.630  2.9742 -0.7566  0.4167
15472TIP3   OH267830   6.325   5.019  16.853  0.3913  0.4688 -0.0985
15472TIP3    H167831   6.350   5.086  16.789 -1.0490 -0.7889 -2.0241
15472TIP3    H267832   6.404   4.965  16.864  1.1662  1.7068  0.5079
15473TIP3   OH267833   2.716   4.718   4.777 -0.4614 -0.0409 -0.8322
15473TIP3    H167834   2.653   4.669   4.724  1.1394 -1.9998 -0.9389
15473TIP3    H267835   2.792   4.730   4.720  0.0600  0.5599 -0.0254
15474TIP3   OH267836   0.267   1.211   0.837 -0.1747 -0.5518 -0.0373
15474TIP3    H167837   0.277   1.203   0.742 -2.0061 -0.5810 -0.2491
15474TIP3    H267838   0.172   1.208   0.852  0.0400  0.3024  1.7101
15475TIP3   OH267839   1.470   1.513   2.794  0.2299 -0.1975  0.1346
15475TIP3    H167840   1.393   1.462   2.821 -1.3061  2.6858  1.5034
15475TIP3    H267841   1.443   1.555   2.712  1.8409 -2.3291 -1.5107
15476TIP3   OH267842   3.574   2.124   0.147  0.5160 -0.0731 -0.4879
15476TIP3    H167843   3.648   2.064   0.152  0.6947  0.2515  1.2387
15476TIP3    H267844   3.555   2.147   0.239  0.2965  2.2898 -1.0718
15477TIP3   OH267845   3.090   4.388   3.745 -0.5810  0.6015 -0.2219
15477TIP3    H167846   3.155   4.452   3.715  0.6222  0.4120  1.9284
15477TIP3    H267847   3.052   4.427   3.824 -0.2969 -1.0477  0.7457
15478TIP3   OH267848   0.936   6.226  12.062 -0.1885  0.7240 -0.1062
15478TIP3    H167849   0.986   6.273  12.129 -0.2864  1.6038 -0.6418
15478TIP3    H267850   0.914   6.293  11.998  0.3814 -0.2256 -1.3049
15479TIP3   OH267851   0.229   4.140  10.704  0.6204 -0.7638  0.0257
15479TIP3    H167852   0.270   4.217  10.663  1.1466 -1.6593 -1.1543
15479TIP3    H267853   0.162   4.177  10.762  0.1634  0.5471 -1.3070
15480TIP3   OH267854   1.436   4.758  15.386  0.3271  0.2924 -0.4576
15480TIP3    H167855   1.342   4.739  15.395  0.0330  1.5788 -0.6308
15480TIP3    H267856   1.478   4.701  15.450 -0.7324  0.8254  0.7593
15481TIP3   OH267857   0.488   5.001  16.797  0.4503 -0.4345 -0.1462
15481TIP3    H167858   0.393   4.999  16.810  0.5822 -0.0243  0.9410
15481TIP3    H267859   0.523   4.941  16.863  1.0774  1.0118  0.8846
15482TIP3   OH267860   3.244   1.504   4.161  0.6379  0.5477 -0.0628
15482TIP3    H167861   3.287   1.514   4.246  0.7541  3.1869 -0.3850
15482TIP3    H267862   3.171   1.566   4.164 -0.5054 -0.7166 -1.1836
15483TIP3   OH267863   0.949   4.012  17.159 -0.7395  0.8376 -0.6945
15483TIP3    H167864   1.033   3.966  17.168 -1.1735  0.2771  0.5912
15483TIP3    H267865   0.968   4.085  17.100 -0.2450 -1.4634 -3.4892
15484TIP3   OH267866   0.656   3.920  17.125  0.3898  0.0263  0.2716
15484TIP3    H167867   0.586   3.969  17.169 -0.2200  0.0973 -0.7444
15484TIP3    H267868   0.733   3.935  17.178 -0.6818 -1.2498  2.2360
15485TIP3   OH267869   1.905   1.950  15.235  0.3532  0.1487  0.2013
15485TIP3    H167870   1.957   1.922  15.311 -0.7630 -2.4960  0.0598
15485TIP3    H267871   1.966   1.945  15.162  1.3183  2.2884  0.8388
15486TIP3   OH267872   2.971   1.714  10.621  0.2299  0.2701  0.0871
15486TIP3    H167873   2.945   1.625  10.598 -2.4200  0.7904  0.8059
15486TIP3    H267874   3.014   1.747  10.542 -1.7849 -0.5508 -1.4281
15487TIP3   OH267875   5.583   3.472   3.978  0.5490 -0.5332  0.0072
15487TIP3    H167876   5.618   3.388   3.948  0.5879 -0.1663 -0.9839
15487TIP3    H267877   5.545   3.452   4.064  2.0034 -1.2097  0.5137
15488TIP3   OH267878   4.499   2.298   3.219  0.0629 -0.3284 -0.6288
15488TIP3    H167879   4.552   2.246   3.279  0.8503  0.3722 -0.7167
15488TIP3    H267880   4.435   2.342   3.275  1.0831  0.6778 -0.2548
15489TIP3   OH267881   6.681   0.167  14.820 -0.0561 -0.1273 -0.3649
15489TIP3    H167882   6.662   0.169  14.914 -2.4808  0.2271 -0.8239
15489TIP3    H267883   6.620   0.102  14.785  0.5343  0.0512 -1.7466
15490TIP3   OH267884   1.312   1.206   2.694  0.6573  0.1613 -0.1567
15490TIP3    H167885   1.271   1.169   2.616 -2.1357 -1.2588  1.8846
15490TIP3    H267886   1.275   1.294   2.700  1.6714  0.6543 -0.9733
15491TIP3   OH267887   5.394   0.255  13.709  0.1679 -0.4075 -0.0290
15491TIP3    H167888   5.403   0.165  13.741  1.5858 -0.2218  0.0938
15491TIP3    H267889   5.423   0.252  13.618  0.9013  0.0662  0.1861
15492TIP3   OH267890   4.376   5.326   2.007 -0.0298 -0.9075  0.0884
15492TIP3    H167891   4.442   5.383   1.967 -0.7367 -0.2024 -0.0737
15492TIP3    H267892   4.346   5.374   2.084  0.4793 -1.7460  0.8223
15493TIP3   OH267893   4.700   3.067   1.160  0.1507  0.0107 -0.2340
15493TIP3    H167894   4.760   3.130   1.199 -0.4463 -0.1110  0.9096
15493TIP3    H267895   4.721   3.068   1.066  2.6145 -0.7647  0.2651
15494TIP3   OH267896   0.664   0.017  13.644  0.3992  0.4736  0.2155
15494TIP3    H167897   0.736  -0.045  13.656  2.4659  2.8420  0.3435
15494TIP3    H267898   0.673   0.047  13.554 -1.2811 -0.1756 -0.2050
15495TIP3   OH267899   0.064   5.744  12.122  0.4884 -0.0054 -0.6840
15495TIP3    H167900   0.040   5.654  12.097  1.1440 -0.9878  2.0831
15495TIP3    H267901  -0.017   5.794  12.108  0.2379 -0.8878 -2.6874
15496TIP3   OH267902   4.031   0.129   1.456  0.3057  0.1988 -0.1351
15496TIP3    H167903   4.103   0.153   1.514 -0.1091  2.0470 -0.3701
15496TIP3    H267904   4.073   0.114   1.371  0.5983 -0.2331  0.0793
15497TIP3   OH267905   6.081   4.437   1.272  0.3693  0.0184 -0.1649
15497TIP3    H167906   6.073   4.512   1.332 -0.7554 -0.3507  0.1606
15497TIP3    H267907   6.173   4.410   1.279  0.4598  0.5331  0.7231
15498TIP3   OH267908   6.701   1.066  12.931 -0.1518 -0.5664  0.1775
15498TIP3    H167909   6.761   1.136  12.905  0.3928 -0.9608  0.3786
15498TIP3    H267910   6.615   1.108  12.929  0.2456  0.3267  1.0436
15499TIP3   OH267911   4.780   4.055  13.912  0.2272 -0.3739 -0.2031
15499TIP3    H167912   4.726   4.059  13.833 -1.1200  1.4330  0.7851
15499TIP3    H267913   4.804   4.146  13.930  3.1569 -1.0799 -0.2844
15500TIP3   OH267914   5.095   5.962  17.016  0.2099 -0.0662  0.3266
15500TIP3    H167915   5.052   5.918  16.943 -0.8653 -0.1278  0.9913
15500TIP3    H267916   5.185   5.929  17.014  0.6121  1.0393 -1.8705
15501TIP3   OH267917   6.199   1.975  14.120 -0.2642  0.0155 -0.4904
15501TIP3    H167918   6.147   1.992  14.199 -0.0424 -2.4299  0.2255
15501TIP3    H267919   6.152   2.021  14.051 -2.6933 -1.0751  0.3751
15502TIP3   OH267920   5.793   3.860   2.117  0.4083 -0.1985 -0.0512
15502TIP3    H167921   5.753   3.831   2.199 -2.1490  0.9388 -0.8801
15502TIP3    H267922   5.743   3.937   2.091  1.3135 -0.4415 -2.6168
15503TIP3   OH267923   6.758   1.467   5.549  0.5469 -0.2647 -0.0382
15503TIP3    H167924   6.705   1.510   5.481 -0.1931 -0.5653  0.3462
15503TIP3    H267925   6.703   1.469   5.627  0.8409 -1.1786  0.1908
15504TIP3   OH267926   2.402   3.573   4.031  0.2439 -0.2077  0.5828
15504TIP3    H167927   2.476   3.589   3.972 -1.8084  0.1914 -1.9235
15504TIP3    H267928   2.333   3.538   3.975 -1.9881  0.7837  2.6219
15505TIP3   OH267929   0.993   6.703   3.934  0.2372  0.0878 -0.1115
15505TIP3    H167930   1.014   6.611   3.921  0.5652  0.0391  0.7187
15505TIP3    H267931   1.021   6.745   3.853  0.1796 -0.5244 -0.4534
15506TIP3   OH267932   5.236   6.062  14.820 -0.3309 -0.1069 -0.1064
15506TIP3    H167933   5.317   6.023  14.852 -0.4974  0.3563  0.9136
15506TIP3    H267934   5.187   6.083  14.900 -1.5154 -0.5163 -0.7146
15507TIP3   OH267935   5.040   0.041   3.884  0.3430 -0.0771 -0.1036
15507TIP3    H167936   5.018   0.123   3.840  0.6910  0.8278  1.3777
15507TIP3    H267937   5.122   0.013   3.843 -0.0081  0.0662 -0.9241
15508TIP3   OH267938   2.794   4.194   4.386  0.1731 -0.6961 -0.2432
15508TIP3    H167939   2.806   4.107   4.350  3.0769  0.0585 -1.2191
15508TIP3    H267940   2.780   4.180   4.480 -0.1540 -2.2267 -0.5085
15509TIP3   OH267941   5.018   1.724   3.323  0.1868  0.0043  0.4051
15509TIP3    H167942   5.061   1.766   3.248 -0.1339 -0.7099 -0.1785
15509TIP3    H267943   5.077   1.741   3.396  1.0012 -0.1627 -0.2054
15510TIP3   OH267944   3.765   6.216   5.644  0.9240  1.2941  0.1136
15510TIP3    H167945   3.748   6.191   5.735 -1.2615 -1.1263 -0.8783
15510TIP3    H267946   3.692   6.273   5.622  0.9042  1.0550 -0.4296
15511TIP3   OH267947   6.282   6.518   2.771 -0.4792 -0.0922 -0.0632
15511TIP3    H167948   6.246   6.595   2.815  0.9256  0.0314  0.8951
15511TIP3    H267949   6.254   6.527   2.680 -2.3448  0.3125  0.5218
15512TIP3   OH267950   5.614   5.436   2.783 -0.3823  0.5218 -0.1125
15512TIP3    H167951   5.600   5.528   2.805 -1.5641  0.7575 -1.7581
15512TIP3    H267952   5.707   5.430   2.763  0.0969  0.9309  1.9470
15513TIP3   OH267953   0.619   1.714   0.784  0.3164  0.2727  0.1232
15513TIP3    H167954   0.529   1.736   0.808  0.0662  0.6462 -1.0994
15513TIP3    H267955   0.617   1.709   0.688  1.5352 -0.0031  0.1077
15514TIP3   OH267956   5.866   1.365  16.167 -0.6763 -0.6739  0.3414
15514TIP3    H167957   5.884   1.284  16.119  2.0789  0.3901 -0.4974
15514TIP3    H267958   5.947   1.416  16.160 -1.9726  1.6817  1.8255
15515TIP3   OH267959   2.509   6.220  16.722  0.5450 -0.3143 -0.7809
15515TIP3    H167960   2.522   6.187  16.633 -1.2561  0.2103 -1.2538
15515TIP3    H267961   2.484   6.312  16.711  0.8229 -0.0989  0.2969
15516TIP3   OH267962   4.479   4.423   3.657 -0.2699 -0.3458  0.4883
15516TIP3    H167963   4.388   4.392   3.663 -0.4438  0.3300  1.6305
15516TIP3    H267964   4.478   4.506   3.705  0.9210 -0.2443  0.3418
15517TIP3   OH267965   4.683   0.578   6.344 -0.1725 -0.7042  0.2614
15517TIP3    H167966   4.648   0.660   6.310  3.6027  0.5762 -0.7901
15517TIP3    H267967   4.757   0.558   6.286  1.0252 -3.0726  2.5084
15518TIP3   OH267968   4.547   1.591  13.222 -0.0172  0.0686 -0.4873
15518TIP3    H167969   4.459   1.555  13.209  0.5767 -0.7455 -2.5448
15518TIP3    H267970   4.602   1.513  13.232  0.6125  0.5510 -0.2158
15519TIP3   OH267971   4.762   5.654   4.751 -0.3429  0.5558  0.7030
15519TIP3    H167972   4.771   5.559   4.750  1.7251  0.7149  1.3284
15519TIP3    H267973   4.830   5.686   4.693 -1.9157  1.6281 -0.6075
15520TIP3   OH267974   3.912   5.179  16.218 -0.1678 -0.1972 -0.0068
15520TIP3    H167975   3.921   5.180  16.123  0.6221 -2.4712  0.0124
15520TIP3    H267976   3.826   5.217  16.235  0.0886  1.1052 -1.5593
15521TIP3   OH267977   5.081   5.166   0.774  1.0672 -0.1082  0.6683
15521TIP3    H167978   5.071   5.149   0.680  0.1323  2.6782  0.2277
15521TIP3    H267979   5.030   5.096   0.816 -0.5728  0.0573 -0.9787
15522TIP3   OH267980   5.230   3.701   0.717 -1.3491  0.2993 -0.7314
15522TIP3    H167981   5.262   3.772   0.772 -0.5274  0.8864 -1.9681
15522TIP3    H267982   5.221   3.627   0.777  2.3063  0.1002 -0.3430
15523TIP3   OH267983   3.918   2.973  11.958  0.3629 -0.4558  0.1308
15523TIP3    H167984   3.870   3.055  11.942 -1.7878 -1.2236  2.2887
15523TIP3    H267985   3.874   2.909  11.903  0.0825 -0.7917  0.7462
15524TIP3   OH267986   3.946   1.464  15.025 -0.3671  0.5648 -0.0847
15524TIP3    H167987   4.041   1.454  15.017 -0.5781 -1.2252 -0.6841
15524TIP3    H267988   3.927   1.435  15.114 -0.3999  0.4140 -0.1404
15525TIP3   OH267989   6.257   1.771  12.585 -0.1091 -0.0046  0.5595
15525TIP3    H167990   6.312   1.709  12.632 -1.5674 -1.6510  0.1257
15525TIP3    H267991   6.319   1.829  12.542  1.3106 -1.7641  0.1683
15526TIP3   OH267992   3.540   5.201  14.650  0.9894  0.2341  0.0450
15526TIP3    H167993   3.566   5.181  14.739  1.9994 -0.6302 -0.4356
15526TIP3    H267994   3.461   5.254  14.659 -0.2736 -1.8447  1.4024
15527TIP3   OH267995   5.588   0.730   3.810  0.2226  0.0358 -0.2167
15527TIP3    H167996   5.646   0.729   3.733  0.0930 -1.9658 -0.3244
15527TIP3    H267997   5.607   0.813   3.853  0.5976  1.0130 -2.1872
15528TIP3   OH267998   1.345   1.620   2.578 -0.8710  0.3397 -0.2016
15528TIP3    H167999   1.370   1.695   2.525  3.0744  1.5108  3.0861
15528TIP3    H268000   1.285   1.656   2.644 -0.2806  0.3164  0.3564
15529TIP3   OH268001   6.696   5.007   4.269 -0.1612  0.4727  0.0089
15529TIP3    H168002   6.676   4.989   4.361  1.6288  1.5082  0.6316
15529TIP3    H268003   6.701   5.103   4.264 -0.9695  0.4647 -1.3424
15530TIP3   OH268004   0.072   3.416   3.348  0.1151 -0.2916  0.4470
15530TIP3    H168005   0.019   3.461   3.281  0.0282 -0.6227  0.2915
15530TIP3    H268006   0.067   3.474   3.424  2.6007  1.5499 -0.7205
15531TIP3   OH268007   5.157   4.519   3.021 -0.3758 -0.0662  0.3980
15531TIP3    H168008   5.127   4.471   2.944  1.9315 -0.1167 -0.5009
15531TIP3    H268009   5.201   4.597   2.985  0.9305 -0.2162  1.6268
15532TIP3   OH268010   0.762   4.374  13.851  0.0646  0.8929 -0.0215
15532TIP3    H168011   0.692   4.439  13.857 -0.9677 -0.2365  0.2386
15532TIP3    H268012   0.726   4.295  13.890  0.9582 -0.1509 -1.2471
15533TIP3   OH268013   2.424   6.212  10.323  0.2710  0.3632  0.4137
15533TIP3    H168014   2.354   6.178  10.380  0.1182  0.6508  0.4010
15533TIP3    H268015   2.446   6.297  10.361 -0.3362  0.8867 -0.3699
15534TIP3   OH268016   0.738   2.114   4.098  0.3568 -0.4662 -0.1998
15534TIP3    H168017   0.679   2.182   4.065  0.3677 -0.5091 -0.3085
15534TIP3    H268018   0.719   2.109   4.192  0.8794  0.2070 -0.0535
15535TIP3   OH268019   0.644   0.948  14.596 -0.0420 -0.4116  0.1139
15535TIP3    H168020   0.635   0.868  14.647 -0.0337  0.2397  1.1446
15535TIP3    H268021   0.598   0.930  14.514  1.0791 -1.9243 -0.1835
15536TIP3   OH268022   4.917   1.116   5.999 -0.0909  0.3750  0.3077
15536TIP3    H168023   4.898   1.045   5.937  0.2199 -0.0830  0.7269
15536TIP3    H268024   4.999   1.089   6.040 -0.0695  0.8939  0.5986
15537TIP3   OH268025   6.535   3.789  12.898  0.6464 -0.3372  1.2632
15537TIP3    H168026   6.609   3.734  12.924  1.1231  0.0328  0.7106
15537TIP3    H268027   6.473   3.728  12.859  1.3473 -0.4447  0.2750
15538TIP3   OH268028   3.422   0.310  13.358  0.2666  0.3187  0.0692
15538TIP3    H168029   3.350   0.248  13.345  0.0341  0.0371  2.5049
15538TIP3    H268030   3.405   0.349  13.444  1.9876  1.6578 -0.1745
15539TIP3   OH268031   0.084   5.031   2.025 -0.2414 -0.2570  0.1542
15539TIP3    H168032   0.124   5.115   2.003 -0.3420 -0.2178  0.1256
15539TIP3    H268033  -0.005   5.053   2.054 -0.9779 -0.5424 -1.8156
15540TIP3   OH268034   3.557   1.108   2.854  0.0389  0.0921  0.3589
15540TIP3    H168035   3.483   1.047   2.847  0.0389  0.1855 -0.3854
15540TIP3    H268036   3.534   1.164   2.928  1.2753 -2.5361  2.8631
15541TIP3   OH268037   1.296   6.508  14.640 -0.0012 -0.1568 -0.6790
15541TIP3    H168038   1.214   6.557  14.624 -0.8070 -1.4004 -0.4063
15541TIP3    H268039   1.335   6.499  14.553  0.3203  1.2374 -0.6975
15542TIP3   OH268040   0.151   4.316   4.291  0.3622 -0.5719 -0.0035
15542TIP3    H168041   0.174   4.405   4.317 -1.0643 -0.6040  1.4159
15542TIP3    H268042   0.063   4.303   4.326  0.7638 -2.7210  0.2421
15543TIP3   OH268043   6.449   0.376   6.010 -0.5472 -0.1759 -0.7411
15543TIP3    H168044   6.380   0.417   6.061  1.6517 -0.1380  2.3659
15543TIP3    H268045   6.426   0.283   6.007 -1.3750  0.0346 -0.7768
15544TIP3   OH268046   6.214   2.244  10.397 -0.8085 -0.1641 -0.0264
15544TIP3    H168047   6.249   2.180  10.459  2.5627  0.0075 -1.6743
15544TIP3    H268048   6.183   2.192  10.323  1.6137  0.0158 -1.2129
15545TIP3   OH268049   4.217   2.792   2.821 -0.1080 -0.1454 -0.2603
15545TIP3    H168050   4.190   2.779   2.911  0.0344 -1.4039 -0.3866
15545TIP3    H268051   4.311   2.808   2.827 -0.1920  0.2940 -0.1399
15546TIP3   OH268052   6.540   5.896   4.959  0.1157  0.4229  0.0807
15546TIP3    H168053   6.619   5.847   4.936  0.7881  1.2423  0.6282
15546TIP3    H268054   6.564   5.948   5.035 -1.2244  0.0090  0.8112
15547TIP3   OH268055   2.891   2.896  15.484 -0.0604  0.3484  0.0684
15547TIP3    H168056   2.915   2.938  15.566 -0.2572  0.1989  0.2038
15547TIP3    H268057   2.856   2.967  15.429 -0.7858  0.2898  0.4498
15548TIP3   OH268058   1.643   2.998   6.930 -0.0325  0.4459  0.6460
15548TIP3    H168059   1.649   2.903   6.917 -0.0198  0.2618  1.9563
15548TIP3    H268060   1.731   3.030   6.910  0.2760  0.0381  1.3490
15549TIP3   OH268061   4.342   4.091   4.666  0.8135 -0.6576  0.5488
15549TIP3    H168062   4.406   4.050   4.608 -0.4217 -1.3905 -0.3281
15549TIP3    H268063   4.303   4.161   4.612 -1.5205 -2.4047 -0.1246
15550TIP3   OH268064   0.222   2.645   0.968 -0.1515  0.4508 -0.2216
15550TIP3    H168065   0.168   2.719   0.997  0.5432  1.1811 -0.7617
15550TIP3    H268066   0.309   2.665   1.001 -0.2078 -0.7576  0.6934
15551TIP3   OH268067   2.831   2.676   5.844  0.2668 -1.2567  0.1539
15551TIP3    H168068   2.885   2.684   5.923  0.2230 -1.3630  0.1940
15551TIP3    H268069   2.862   2.746   5.786  0.7989 -1.6391 -0.0281
15552TIP3   OH268070   3.154   4.569  11.025 -0.3468 -0.0882 -0.3427
15552TIP3    H168071   3.105   4.488  11.043 -0.6253 -0.1082 -1.1973
15552TIP3    H268072   3.213   4.546  10.954  0.9989 -0.0923  0.7398
15553TIP3   OH268073   4.094   2.048  13.478 -0.6904 -0.2423  0.1051
15553TIP3    H168074   4.179   2.015  13.505 -0.5084 -0.7469 -1.0643
15553TIP3    H268075   4.104   2.068  13.385 -1.8884 -0.4307 -0.0729
15554TIP3   OH268076   5.625   0.616   4.441  0.4205  0.2787  0.1039
15554TIP3    H168077   5.564   0.597   4.370  2.1337  0.2325 -1.3962
15554TIP3    H268078   5.610   0.546   4.505 -0.7862  0.0394 -0.4290
15555TIP3   OH268079   0.805   1.702  14.215  0.1823 -0.4273 -0.1986
15555TIP3    H168080   0.768   1.771  14.269 -1.3497 -0.3369 -1.3258
15555TIP3    H268081   0.858   1.748  14.149 -1.4237 -0.2660 -1.3951
15556TIP3   OH268082   4.436   5.991  11.346 -0.1379 -0.3277  0.2761
15556TIP3    H168083   4.383   5.962  11.420  0.6811 -1.4524  0.4345
15556TIP3    H268084   4.397   5.949  11.269 -1.4843  1.4884 -0.0514
15557TIP3   OH268085   4.368   2.313   0.034  0.0614  0.4916  0.4136
15557TIP3    H168086   4.367   2.218   0.043 -0.0007  0.2531 -1.7561
15557TIP3    H268087   4.448   2.332  -0.016 -0.1379  1.5498  0.4656
15558TIP3   OH268088   2.578   1.493   5.061  0.2443 -0.1946  0.2945
15558TIP3    H168089   2.640   1.564   5.045 -2.0876  1.7833 -0.1972
15558TIP3    H268090   2.623   1.435   5.122  3.6757 -0.3140 -2.2186
15559TIP3   OH268091   1.502   5.728   2.170 -0.5891  0.1896 -0.1937
15559TIP3    H168092   1.587   5.758   2.138 -1.1480  0.5935 -1.2896
15559TIP3    H268093   1.524   5.667   2.241  0.6318 -0.2168 -0.9160
15560TIP3   OH268094   3.050   5.454  11.227 -0.1861  0.0678  1.1356
15560TIP3    H168095   3.069   5.365  11.256  0.9403  0.0288  0.2832
15560TIP3    H268096   3.117   5.474  11.162 -1.3110  1.0009  0.2303
15561TIP3   OH268097   1.014   4.761   3.188 -0.3032 -0.1834  0.0211
15561TIP3    H168098   1.000   4.671   3.218 -0.8599  0.1344  0.7185
15561TIP3    H268099   1.000   4.815   3.266  0.6777  0.4573 -0.2400
15562TIP3   OH268100   0.699   0.050  16.880 -0.5596 -0.2029  0.6233
15562TIP3    H168101   0.754   0.071  16.956 -2.2527  1.8848  1.3321
15562TIP3    H268102   0.618   0.017  16.918 -0.4340 -1.6796 -0.3676
15563TIP3   OH268103   2.478   0.663  15.255 -0.0141 -0.0262 -0.4590
15563TIP3    H168104   2.570   0.677  15.279 -0.1935  0.4602 -0.0458
15563TIP3    H268105   2.473   0.569  15.236 -0.0027 -0.5947  2.1116
15564TIP3   OH268106   4.148   6.237  11.486 -0.0266 -0.2123  0.4507
15564TIP3    H168107   4.189   6.201  11.564  1.4910  3.5580  1.4991
15564TIP3    H268108   4.109   6.319  11.515  0.5968  1.2861 -2.7387
15565TIP3   OH268109   6.130   4.295   5.889 -0.4044  0.4845 -0.1891
15565TIP3    H168110   6.102   4.370   5.941  0.2064 -1.2713  2.8319
15565TIP3    H268111   6.085   4.220   5.929  0.6338 -1.0179 -1.7703
15566TIP3   OH268112   0.787   3.240   5.526 -0.1743 -0.0445 -0.2670
15566TIP3    H168113   0.752   3.158   5.561  1.7909 -0.4426  0.8214
15566TIP3    H268114   0.729   3.308   5.561 -0.1082 -0.7242  1.1649
15567TIP3   OH268115   5.882   2.611   2.703  0.0358 -0.3291 -0.4310
15567TIP3    H168116   5.810   2.675   2.704  1.0037  0.7689 -0.0156
15567TIP3    H268117   5.916   2.615   2.614  0.0411 -0.3415 -0.4294
15568TIP3   OH268118   2.470   6.519   5.081  0.6234 -0.0090 -0.2639
15568TIP3    H168119   2.435   6.608   5.077  2.2472  0.6517 -0.2428
15568TIP3    H268120   2.463   6.486   4.992  0.8999  0.4931 -0.4712
15569TIP3   OH268121   4.074   3.195   4.583 -0.0563  0.2654 -0.0136
15569TIP3    H168122   3.989   3.173   4.621 -0.8512  0.4311 -1.6269
15569TIP3    H268123   4.053   3.243   4.503  1.6057  2.4380  0.7969
15570TIP3   OH268124   0.409   3.179   2.174 -0.2967  0.1444  0.1117
15570TIP3    H168125   0.413   3.271   2.151  0.0656 -0.1596 -1.0908
15570TIP3    H268126   0.500   3.155   2.194 -0.5158  0.2513  1.2825
15571TIP3   OH268127   1.003   3.074   2.833  1.0403 -0.2754 -0.1481
15571TIP3    H168128   1.037   3.035   2.753  1.4254 -0.1466 -0.0460
15571TIP3    H268129   1.017   3.006   2.900 -0.3404 -0.8480 -0.4118
15572TIP3   OH268130   4.354   0.863   5.512  0.0895 -0.1003  0.0128
15572TIP3    H168131   4.406   0.880   5.434 -0.7633 -1.4082 -0.8663
15572TIP3    H268132   4.264   0.856   5.480 -0.2390 -0.9100  1.0585
15573TIP3   OH268133   3.243   4.049   5.778  0.2374  0.2105 -0.2311
15573TIP3    H168134   3.158   4.092   5.784 -0.2141 -0.6642 -0.1928
15573TIP3    H268135   3.245   4.011   5.690 -0.1434 -1.2387  0.3657
15574TIP3   OH268136   1.055   1.372  14.941  0.0133  0.2996  0.1326
15574TIP3    H168137   1.022   1.335  15.022 -1.5609  0.3982 -0.4469
15574TIP3    H268138   1.142   1.334  14.931 -1.0050 -2.1389  0.2570
15575TIP3   OH268139   6.466   0.481  16.246 -0.0336 -0.1699  0.5947
15575TIP3    H168140   6.435   0.558  16.198  0.3270  0.3347  1.1707
15575TIP3    H268141   6.461   0.410  16.182  0.9768  0.6124 -0.3833
15576TIP3   OH268142   3.292   6.049  15.962  0.2577 -0.7525  0.0902
15576TIP3    H168143   3.271   6.116  15.897 -0.9759 -0.4086  0.8297
15576TIP3    H268144   3.383   6.025  15.943  0.7174  1.1090 -0.1917
15577TIP3   OH268145   2.321   0.015  11.368 -0.2660  0.4855 -0.0893
15577TIP3    H168146   2.336   0.054  11.282  0.5541 -0.1890 -0.2585
15577TIP3    H268147   2.250   0.067  11.406 -0.8610  0.5829 -1.3043
15578TIP3   OH268148   1.800   1.814   3.332 -0.2014 -0.5500  0.0164
15578TIP3    H168149   1.796   1.907   3.309 -1.9103 -0.7544 -0.6191
15578TIP3    H268150   1.710   1.782   3.320  0.4035 -2.3392 -0.0093
15579TIP3   OH268151   6.703   3.088   1.156  0.2723 -0.3887  0.6486
15579TIP3    H168152   6.698   3.072   1.251 -1.4763  1.3009  0.8769
15579TIP3    H268153   6.791   3.125   1.144  0.6604 -0.9820  1.5472
15580TIP3   OH268154   6.158   1.953   3.936  0.8187  0.2695 -0.5786
15580TIP3    H168155   6.090   1.905   3.890  0.5580  0.1539 -0.0702
15580TIP3    H268156   6.233   1.951   3.876  0.1086  1.1632 -1.5306
15581TIP3   OH268157   2.619   0.080   1.006  0.2119  0.1671  0.0681
15581TIP3    H168158   2.545   0.087   0.946  0.8579 -1.4597 -0.9706
15581TIP3    H268159   2.583   0.037   1.084  0.7390 -4.0597 -1.8525
15582TIP3   OH268160   2.362   4.054   6.438  0.0669 -0.4216  0.2713
15582TIP3    H168161   2.370   4.095   6.352  2.6725 -0.2033  0.5747
15582TIP3    H268162   2.329   4.124   6.495  0.3868  0.0352 -0.1010
15583TIP3   OH268163   6.198   5.404  12.944 -0.2239  0.2962  0.0019
15583TIP3    H168164   6.200   5.484  12.890 -1.1556  0.3185 -0.0235
15583TIP3    H268165   6.105   5.391  12.962  0.1110  0.4957  1.9287
15584TIP3   OH268166   3.274   4.387  12.382 -0.2878  0.3333 -0.8361
15584TIP3    H168167   3.289   4.459  12.321  0.3179  1.6428  0.8231
15584TIP3    H268168   3.359   4.371  12.422 -1.4285  2.1987  2.5414
15585TIP3   OH268169   2.149   1.143  11.919 -0.4602  0.7985 -0.3871
15585TIP3    H168170   2.214   1.073  11.926 -0.2957  1.0166  0.3051
15585TIP3    H268171   2.191   1.210  11.865  0.1103  1.1728  0.4975
15586TIP3   OH268172   0.044   2.652  15.270 -0.1214 -0.1345  0.3288
15586TIP3    H168173   0.051   2.557  15.262 -1.7076 -0.2058 -0.2371
15586TIP3    H268174  -0.042   2.673  15.236  0.7947  1.6806 -0.9486
15587TIP3   OH268175   1.966   0.760  14.843 -0.6335 -0.1802 -0.1732
15587TIP3    H168176   1.919   0.844  14.840 -1.6723 -0.8064 -1.9744
15587TIP3    H268177   1.900   0.696  14.869 -0.0125 -0.5733  0.4670
15588TIP3   OH268178   3.043   2.469   6.890  0.2596  0.2365  0.2345
15588TIP3    H168179   3.049   2.531   6.818 -1.6750 -1.3466 -1.3476
15588TIP3    H268180   3.120   2.412   6.880  0.3605  0.4475 -0.1754
15589TIP3   OH268181   0.211   6.282  13.960  0.1852 -0.1191  0.0362
15589TIP3    H168182   0.301   6.267  13.929  0.5943  1.0289  0.6370
15589TIP3    H268183   0.178   6.352  13.905 -0.0933 -0.0496  0.2908
15590TIP3   OH268184   4.063   6.472   0.852 -0.0898  0.3831  0.3336
15590TIP3    H168185   4.053   6.515   0.938 -0.0589  1.1412 -0.0324
15590TIP3    H268186   4.089   6.543   0.794  0.2145 -0.1988 -0.2361
15591TIP3   OH268187   2.290   2.123  12.326  0.3602 -0.2360 -0.4335
15591TIP3    H168188   2.380   2.126  12.359  0.8845 -1.5433 -1.6826
15591TIP3    H268189   2.298   2.143  12.232 -1.1265  3.5699  0.1515
15592TIP3   OH268190   2.169   1.139  16.481  0.3364 -0.2573  0.0205
15592TIP3    H168191   2.217   1.058  16.497 -0.1945 -1.0105 -1.9601
15592TIP3    H268192   2.212   1.204  16.536  0.4942 -1.9693  1.9896
15593TIP3   OH268193   3.307   1.502   4.449 -0.2906  0.2071 -0.1233
15593TIP3    H168194   3.241   1.522   4.515 -2.4439 -1.4124 -1.7210
15593TIP3    H268195   3.341   1.416   4.474  2.4088  1.6608  1.5539
15594TIP3   OH268196   0.151   4.640   1.129  0.2794 -0.6991  0.0569
15594TIP3    H168197   0.196   4.563   1.163  1.1983 -0.0393  0.3586
15594TIP3    H268198   0.201   4.666   1.052  0.1142 -0.2725  0.0897
15595TIP3   OH268199   4.399   6.316   4.229 -0.0395  0.0101 -0.1661
15595TIP3    H168200   4.492   6.340   4.221  0.0106  0.2125  1.0458
15595TIP3    H268201   4.352   6.390   4.190  0.2681  0.2918 -0.0094
15596TIP3   OH268202   0.222   6.079   1.853 -0.0389  0.1506 -0.1896
15596TIP3    H168203   0.137   6.105   1.889  0.5971  1.2531  0.5218
15596TIP3    H268204   0.254   6.158   1.809  0.5800 -0.2973 -0.5503
15597TIP3   OH268205   2.850   6.515  15.414 -0.5531 -0.5564  0.5225
15597TIP3    H168206   2.862   6.440  15.472 -0.1729 -2.8674 -2.3950
15597TIP3    H268207   2.817   6.477  15.332 -0.1192  2.4316 -1.1207
15598TIP3   OH268208   1.724   4.128   1.639 -0.4130 -0.1942  0.5094
15598TIP3    H168209   1.715   4.222   1.649  1.4679  0.2967 -1.8957
15598TIP3    H268210   1.635   4.095   1.634 -1.0696  1.5679  0.4423
15599TIP3   OH268211   2.719   3.470  12.544  1.1481  0.1283  0.4789
15599TIP3    H168212   2.775   3.409  12.496 -0.6723 -1.5758  0.4362
15599TIP3    H268213   2.780   3.524  12.594  2.8985 -0.3929 -1.0332
15600TIP3   OH268214   2.469   1.982  16.730  0.4511 -0.2616 -0.0544
15600TIP3    H168215   2.454   2.020  16.816  2.8625  0.0313  0.2792
15600TIP3    H268216   2.498   1.893  16.748 -0.0279 -0.5288 -0.6009
15601TIP3   OH268217   2.003   3.950  16.948 -0.9321 -0.3641 -0.4684
15601TIP3    H168218   2.046   3.868  16.972  1.7970  0.5994 -1.8785
15601TIP3    H268219   1.977   3.938  16.857 -2.1168 -0.2713 -0.1588
15602TIP3   OH268220   3.503   5.410  13.055  0.3024 -0.5494 -0.2639
15602TIP3    H168221   3.559   5.466  13.001 -0.6051 -1.0610 -1.7624
15602TIP3    H268222   3.453   5.472  13.109 -0.3175  0.0936 -1.5402
15603TIP3   OH268223   5.162   3.520  10.987 -0.3378  0.2022  0.0265
15603TIP3    H168224   5.208   3.585  10.935  0.8393 -1.2568 -0.7953
15603TIP3    H268225   5.146   3.563  11.071 -0.6119  1.9337 -0.8934
15604TIP3   OH268226   5.275   2.138  10.910  0.6193  0.1192 -0.1445
15604TIP3    H168227   5.329   2.103  10.981  0.0590  0.2547  0.3531
15604TIP3    H268228   5.298   2.230  10.905 -1.1524  0.6894  1.5536
15605TIP3   OH268229   2.145   0.295   1.885  0.0225  0.3734  0.0942
15605TIP3    H168230   2.232   0.327   1.908  0.0087 -0.5876  1.5216
15605TIP3    H268231   2.092   0.307   1.963 -0.4048 -1.5815  0.1531
15606TIP3   OH268232   0.314   6.210  12.688  0.2325 -0.5450  0.0481
15606TIP3    H168233   0.299   6.158  12.767 -1.2999  2.4592  1.8229
15606TIP3    H268234   0.226   6.221  12.651  0.5987  0.4287 -0.5245
15607TIP3   OH268235   2.315   4.040   1.116  0.2659  0.2430  0.2260
15607TIP3    H168236   2.407   4.016   1.101  0.5739  1.7550 -0.3327
15607TIP3    H268237   2.319   4.123   1.162 -0.8318  0.6628 -0.4318
15608TIP3   OH268238   1.635   6.349  16.969  0.5312 -0.3044  0.0772
15608TIP3    H168239   1.724   6.348  16.933  0.4109 -2.0222 -0.2014
15608TIP3    H268240   1.645   6.383  17.058  1.8132 -2.8094  0.9137
15609TIP3   OH268241   3.664   5.281  16.271  0.1455  0.2904 -0.6971
15609TIP3    H168242   3.664   5.362  16.221  0.8828  0.9593  0.3493
15609TIP3    H268243   3.572   5.255  16.277 -0.4589  2.7532  1.6057
15610TIP3   OH268244   0.719   6.552  13.296  0.3907  0.1485  0.3102
15610TIP3    H168245   0.682   6.500  13.367  1.0297 -0.1568  0.4223
15610TIP3    H268246   0.774   6.617  13.341  1.4875 -0.5961  0.0529
15611TIP3   OH268247   2.503   6.643   4.089 -0.0220 -0.1233 -0.6513
15611TIP3    H168248   2.421   6.656   4.138 -1.0180  0.5565 -2.4341
15611TIP3    H268249   2.556   6.587   4.145 -1.2454  0.3970  1.0693
15612TIP3   OH268250   5.101   5.030  14.291 -0.5356 -0.2021 -0.0451
15612TIP3    H168251   5.163   5.086  14.337 -0.4378 -0.4565  0.1368
15612TIP3    H268252   5.129   4.941  14.313 -1.7057 -0.3118  1.0406
15613TIP3   OH268253   1.464   0.213   0.149  0.7400  0.2413 -0.2594
15613TIP3    H168254   1.456   0.159   0.070  0.9935  0.3870 -0.3833
15613TIP3    H268255   1.427   0.159   0.218  0.4555  0.1379 -0.4887
15614TIP3   OH268256   2.162   1.458  15.561 -0.8144  0.1437 -0.1351
15614TIP3    H168257   2.074   1.420  15.564 -0.7597  0.1585  3.5203
15614TIP3    H268258   2.220   1.383  15.555 -0.8843 -0.2229  3.0656
15615TIP3   OH268259   6.568   3.269   5.161 -0.1655  0.6584  0.6746
15615TIP3    H168260   6.539   3.227   5.241 -1.4426 -3.3463 -1.7538
15615TIP3    H268261   6.648   3.223   5.136 -0.1940  1.3381 -0.7496
15616TIP3   OH268262   2.756   2.203   2.038 -0.7125  0.0644 -0.1871
15616TIP3    H168263   2.685   2.267   2.044  0.2307  1.1801 -0.7288
15616TIP3    H268264   2.832   2.254   2.012  0.6513 -0.8501  1.8858
15617TIP3   OH268265   6.174   2.402  16.820 -0.1226 -0.5966 -0.4882
15617TIP3    H168266   6.146   2.405  16.728  0.4802  1.9809 -0.6169
15617TIP3    H268267   6.118   2.466  16.864  1.8699  0.6597  0.2802
15618TIP3   OH268268   4.674   3.012   5.972  0.1279 -0.1633  0.0174
15618TIP3    H168269   4.642   2.950   5.907 -0.0494  0.8852 -0.9105
15618TIP3    H268270   4.609   3.007   6.043 -1.4582  1.0358 -1.3108
15619TIP3   OH268271   2.220   2.856   0.153 -0.0426 -0.1396 -0.0940
15619TIP3    H168272   2.208   2.889   0.064  0.5442 -0.8476 -0.4311
15619TIP3    H268273   2.131   2.840   0.185 -0.1779 -1.4392 -1.1308
15620TIP3   OH268274   2.870   0.329  17.198  0.2806 -0.4427  0.3283
15620TIP3    H168275   2.863   0.247  17.149 -0.9599 -0.3534  0.3390
15620TIP3    H268276   2.788   0.334  17.248 -0.6826  1.8950 -1.3560
15621TIP3   OH268277   1.315   1.863   1.675 -0.5314 -0.0785 -0.4382
15621TIP3    H168278   1.274   1.947   1.695 -0.7486 -0.0587 -0.9599
15621TIP3    H268279   1.298   1.850   1.582 -0.7727 -0.8540 -0.2850
15622TIP3   OH268280   2.935   5.411   1.639 -0.5646 -0.4184  0.5059
15622TIP3    H168281   2.881   5.485   1.611  0.1986 -0.2908 -0.6702
15622TIP3    H268282   2.918   5.343   1.575  0.5281 -0.4357  0.2107
15623TIP3   OH268283   0.122   6.212   4.188  0.1224  0.3489  0.7985
15623TIP3    H168284   0.110   6.266   4.266 -0.9060 -0.6292  1.3214
15623TIP3    H268285   0.200   6.249   4.146  0.3904  1.2092  2.0105
15624TIP3   OH268286   0.780   3.266  13.835 -0.1564  0.6066  0.2649
15624TIP3    H168287   0.743   3.327  13.899  2.1150  2.3048  0.0288
15624TIP3    H268288   0.834   3.321  13.778 -0.0852 -1.2607 -1.5406
15625TIP3   OH268289   3.724   0.304  12.800  0.2450 -0.0277 -0.6176
15625TIP3    H168290   3.733   0.379  12.741  0.1320  0.3639 -0.1425
15625TIP3    H268291   3.664   0.335  12.869  0.4578 -0.4424 -0.2467
15626TIP3   OH268292   6.475   2.475   2.853  0.3283 -0.0558  0.7121
15626TIP3    H168293   6.487   2.486   2.759  0.1555 -0.0642  0.6897
15626TIP3    H268294   6.562   2.492   2.890  0.3931 -0.0407  0.5529
15627TIP3   OH268295   1.770   6.291  12.529  0.2717  0.1032 -0.7939
15627TIP3    H168296   1.836   6.255  12.469  0.1358  0.2941 -1.0576
15627TIP3    H268297   1.687   6.279  12.482  0.1526  0.1495 -0.5943
15628TIP3   OH268298   6.285   4.802  13.020  0.6407 -0.0315 -0.1144
15628TIP3    H168299   6.277   4.707  13.013 -0.0771  0.0373 -0.3385
15628TIP3    H268300   6.342   4.827  12.948  0.5193 -0.2545 -0.2893
15629TIP3   OH268301   6.194   2.578  16.214  0.1793  0.4222  0.2885
15629TIP3    H168302   6.104   2.564  16.186  0.7948  0.4483 -1.7379
15629TIP3    H268303   6.232   2.490  16.220  0.5000  0.5026 -0.5036
15630TIP3   OH268304   6.696   2.152   1.386  0.1475 -0.0695  0.8050
15630TIP3    H168305   6.664   2.113   1.467 -0.7743 -3.4946 -1.1135
15630TIP3    H268306   6.616   2.174   1.337  0.6864 -0.9712 -0.5048
15631TIP3   OH268307   4.500   6.057  16.587  0.3564 -0.0490 -0.4247
15631TIP3    H168308   4.527   6.018  16.504  0.9665 -0.9168  0.1769
15631TIP3    H268309   4.405   6.065  16.579  0.2600 -1.3423 -0.6873
15632TIP3   OH268310   5.623   6.622   1.157 -0.4550 -0.4094 -0.6305
15632TIP3    H168311   5.663   6.708   1.168 -1.0746 -0.0281 -1.4126
15632TIP3    H268312   5.691   6.570   1.114 -0.4278 -0.0457 -1.0295
15633TIP3   OH268313   3.174   6.283  13.153  0.6408 -0.1952 -0.2424
15633TIP3    H168314   3.196   6.350  13.218  2.8047 -0.3338 -0.7651
15633TIP3    H268315   3.079   6.277  13.155  0.5071  1.8304  0.8840
15634TIP3   OH268316   4.925   0.868  13.726 -0.7756 -0.3964  0.0693
15634TIP3    H168317   4.969   0.913  13.654  0.5616  1.6002  2.0663
15634TIP3    H268318   4.995   0.823  13.773 -1.6794 -1.9592 -0.0423
15635TIP3   OH268319   0.018   5.671  15.625 -0.0362 -0.1396 -0.1575
15635TIP3    H168320   0.102   5.633  15.600 -0.3254 -1.3882  0.7425
15635TIP3    H268321  -0.047   5.607  15.595 -0.4995 -0.6699  1.9123
15636TIP3   OH268322   0.348   6.159  16.697 -0.0123  0.4208 -0.1848
15636TIP3    H168323   0.294   6.080  16.700  0.6510 -0.0235  0.2727
15636TIP3    H268324   0.426   6.133  16.649  0.2746  0.7535  0.0935
15637TIP3   OH268325   5.158   4.694   4.527 -0.9501  1.3955  0.4865
15637TIP3    H168326   5.105   4.740   4.462 -1.0338 -0.1895 -0.6063
15637TIP3    H268327   5.126   4.604   4.524  1.7262  0.4225 -0.1147
15638TIP3   OH268328   0.114   4.555   2.241 -0.3899  0.1340 -0.7469
15638TIP3    H168329   0.078   4.625   2.187 -0.2873  1.4230  0.8195
15638TIP3    H268330   0.196   4.590   2.275 -1.2754  0.0499  1.6049
15639TIP3   OH268331   5.908   3.567   3.402 -0.7759 -0.5170  0.4291
15639TIP3    H168332   5.850   3.632   3.364  1.8867  2.4276  1.1511
15639TIP3    H268333   5.922   3.597   3.492 -2.6448 -4.3541  2.1387
15640TIP3   OH268334   5.255   2.946  14.775 -0.8081  0.7204 -0.8418
15640TIP3    H168335   5.296   2.892  14.842  0.9525  0.0655 -2.3956
15640TIP3    H268336   5.164   2.917  14.772 -0.2478 -1.0932 -0.5799
15641TIP3   OH268337   1.175   1.190  10.985  0.6095  0.2916  0.3270
15641TIP3    H168338   1.113   1.163  10.917 -3.0089  2.4991  2.5893
15641TIP3    H268339   1.229   1.256  10.944 -2.8324  3.0609 -0.0096
15642TIP3   OH268340   1.660   1.953  11.890 -0.5089  0.0002  0.0417
15642TIP3    H168341   1.677   2.015  11.961  0.9693 -0.4760  0.1191
15642TIP3    H268342   1.723   1.976  11.822 -1.0138 -0.4059 -0.5737
15643TIP3   OH268343   3.289   0.141  15.280 -0.0970 -0.2336  1.3770
15643TIP3    H168344   3.333   0.090  15.349 -0.2125 -1.0142  0.8758
15643TIP3    H268345   3.263   0.076  15.215  0.5299  0.5631  0.3137
15644TIP3   OH268346   1.152   6.210  16.876  0.6935 -0.2604 -0.1681
15644TIP3    H168347   1.242   6.192  16.852  0.7299  0.2576 -0.4387
15644TIP3    H268348   1.099   6.168  16.809  0.7300 -0.7118  0.0870
15645TIP3   OH268349   5.057   0.963  12.928 -0.2510  0.3760  0.2666
15645TIP3    H168350   5.039   1.005  12.845 -1.3308  1.1926  0.9063
15645TIP3    H268351   5.150   0.982  12.945  0.7219 -2.0302 -1.9887
15646TIP3   OH268352   5.389   1.540  16.298 -0.0647 -0.7281  0.4637
15646TIP3    H168353   5.416   1.526  16.207  0.1586 -2.2006  0.7475
15646TIP3    H268354   5.449   1.607  16.331 -1.1001  0.9366 -0.8967
15647TIP3   OH268355   0.573   6.000  13.925  0.0788 -0.5993 -0.8932
15647TIP3    H168356   0.609   5.912  13.913  1.5119 -0.1972  0.3217
15647TIP3    H268357   0.621   6.035  14.000 -1.6865  0.5815 -0.2931
15648TIP3   OH268358   6.682   0.974   3.532 -0.2359 -0.5381  0.5284
15648TIP3    H168359   6.683   0.947   3.624 -0.6934 -1.2545  0.3333
15648TIP3    H268360   6.740   1.050   3.528 -1.4379  0.4650  1.7088
15649TIP3   OH268361   0.766   1.685  15.722  0.0378  0.3845 -0.1412
15649TIP3    H168362   0.826   1.750  15.686 -0.3499  0.6372 -0.3368
15649TIP3    H268363   0.779   1.689  15.816 -1.6231  2.3543  0.0129
15650TIP3   OH268364   2.102   3.129   4.423  0.5219 -0.1822 -0.1119
15650TIP3    H168365   2.008   3.108   4.423  0.4343  0.1904  1.0887
15650TIP3    H268366   2.144   3.050   4.457  0.6077 -0.1934 -0.2461
15651TIP3   OH268367   0.471   6.349   0.909 -0.2780  0.2568 -0.1552
15651TIP3    H168368   0.441   6.283   0.972  1.3927 -0.8799 -0.5274
15651TIP3    H268369   0.517   6.299   0.841  0.4499  1.7356 -0.7825
15652TIP3   OH268370   0.332   6.728  13.649  0.0515 -0.2707 -0.4045
15652TIP3    H168371   0.267   6.780  13.601  2.0809  1.0213 -1.8410
15652TIP3    H268372   0.398   6.792  13.676  1.5345 -1.7945 -0.3648
15653TIP3   OH268373   1.826   0.160  15.984  0.1242  0.5508 -0.2910
15653TIP3    H168374   1.793   0.178  15.896  1.5122  0.0432 -0.9298
15653TIP3    H268375   1.768   0.091  16.018 -2.3209  2.8603  0.4069
15654TIP3   OH268376   0.385   2.424  12.458  0.2495  0.2145 -0.1517
15654TIP3    H168377   0.368   2.331  12.445 -0.4097  0.1351  1.1488
15654TIP3    H268378   0.313   2.469  12.414 -0.9779  0.0060  1.5816
15655TIP3   OH268379   4.969   1.391   2.145  0.4143 -0.3014 -0.2222
15655TIP3    H168380   4.998   1.472   2.103 -0.0962 -0.1649 -0.3054
15655TIP3    H268381   5.005   1.396   2.233 -0.1487  0.3057 -0.0273
15656TIP3   OH268382   2.830   1.781  16.485  0.0586 -0.0250  0.4070
15656TIP3    H168383   2.814   1.799  16.578 -0.3324 -0.6781  0.4683
15656TIP3    H268384   2.912   1.827  16.466  0.4780 -0.4078  1.2373
15657TIP3   OH268385   2.923   2.204   0.516 -0.1562  0.7776 -0.1770
15657TIP3    H168386   3.008   2.229   0.478 -0.7794  0.5120 -1.8072
15657TIP3    H268387   2.883   2.288   0.540  1.5977  0.7751  2.9840
15658TIP3   OH268388   5.281   0.345   3.709 -0.4838 -0.3986 -0.1872
15658TIP3    H168389   5.364   0.312   3.675 -1.3001 -0.7355 -1.9329
15658TIP3    H268390   5.301   0.434   3.739  1.0322 -1.3311  1.7000
15659TIP3   OH268391   1.811   5.519   3.161 -1.1548  0.4761 -0.8329
15659TIP3    H168392   1.811   5.612   3.140 -2.1562  0.8412  0.6420
15659TIP3    H268393   1.891   5.506   3.213 -1.6675  0.8032  0.0595
15660TIP3   OH268394   4.015   5.557   5.601  0.2196  0.0505 -0.1423
15660TIP3    H168395   4.028   5.590   5.690  0.2772 -1.4561  0.4265
15660TIP3    H268396   4.001   5.463   5.612  1.5382 -0.3760 -1.8304
15661TIP3   OH268397   1.414   3.464   1.306  0.4521  0.7562  0.4792
15661TIP3    H168398   1.405   3.369   1.295 -0.2465  1.0684 -1.8247
15661TIP3    H268399   1.486   3.488   1.247  0.0839  1.7822  0.4452
15662TIP3   OH268400   5.228   1.869   6.279  0.6857  0.2491  0.9010
15662TIP3    H168401   5.316   1.897   6.255  0.5761  0.5238  0.8182
15662TIP3    H268402   5.206   1.923   6.355  1.0219 -0.5964  1.6059
15663TIP3   OH268403   0.331   5.514   1.122 -0.0810 -0.8235 -0.5181
15663TIP3    H168404   0.292   5.577   1.183 -0.7309 -0.8793 -0.8674
15663TIP3    H268405   0.411   5.485   1.165 -0.0982 -0.2223 -0.0750
15664TIP3   OH268406   6.221   0.424  13.932 -0.4049 -0.2379 -0.5294
15664TIP3    H168407   6.239   0.491  13.866 -0.8222  0.0891 -0.3099
15664TIP3    H268408   6.152   0.369  13.892 -1.0922  0.3208 -0.1191
15665TIP3   OH268409   1.362   5.067   3.114 -0.4199  0.3141  0.5965
15665TIP3    H168410   1.377   5.125   3.189 -2.1425  0.8135  0.5913
15665TIP3    H268411   1.384   5.120   3.038  0.3114  0.1630  0.7031
15666TIP3   OH268412   1.681   3.582   1.207  0.2403 -0.0962 -0.1442
15666TIP3    H168413   1.708   3.559   1.118 -3.8151  0.4930 -1.6473
15666TIP3    H268414   1.749   3.545   1.263  2.3135 -1.4660 -3.4057
15667TIP3   OH268415   1.360   0.064   1.118  0.8425 -0.2944 -0.0418
15667TIP3    H168416   1.330   0.141   1.166 -1.3144  0.0791 -1.8966
15667TIP3    H268417   1.349  -0.008   1.180  1.5633  0.6937  1.2475
15668TIP3   OH268418   6.188   0.073   1.864 -0.8564 -0.3816  0.5102
15668TIP3    H168419   6.187  -0.022   1.853  1.2009 -0.5870  1.8054
15668TIP3    H268420   6.271   0.101   1.826 -1.5118  0.9377  0.0008
15669TIP3   OH268421   5.832   0.337  15.533 -0.1021  0.8283  0.4057
15669TIP3    H168422   5.801   0.247  15.546  1.4729  0.0754 -0.8714
15669TIP3    H268423   5.858   0.366  15.621 -2.3633  0.7354  1.1372
15670TIP3   OH268424   1.593   1.205  12.344  0.0231  0.3463  0.0084
15670TIP3    H168425   1.604   1.245  12.430  0.1537  0.3821 -0.0248
15670TIP3    H268426   1.659   1.247  12.288 -1.2321  1.5870 -0.5592
15671TIP3   OH268427   4.709   1.178  16.207  0.1350 -0.1882 -0.2978
15671TIP3    H168428   4.662   1.201  16.127 -0.6809 -0.0935  0.2030
15671TIP3    H268429   4.779   1.244  16.213  0.6970 -0.6848 -1.3527
15672TIP3   OH268430   6.164   0.873  16.714 -0.4947  0.0522 -0.5415
15672TIP3    H168431   6.138   0.963  16.694  0.1692  0.3197 -0.2210
15672TIP3    H268432   6.096   0.842  16.774 -0.6403  0.4017 -0.5209
15673TIP3   OH268433   0.069   3.107  12.120 -0.2480 -0.2081 -0.2310
15673TIP3    H168434   0.146   3.071  12.075 -0.5467 -3.2551  1.6050
15673TIP3    H268435   0.096   3.114  12.211 -1.6689  0.1621  0.1662
15674TIP3   OH268436   1.145   0.978  17.116 -0.6798 -0.4253  0.1268
15674TIP3    H168437   1.196   0.905  17.082  0.5040  0.2316  0.4245
15674TIP3    H268438   1.054   0.958  17.093 -0.0151 -0.3885 -2.7108
15675TIP3   OH268439   0.885   4.237   1.204 -0.4192  0.9613 -0.1126
15675TIP3    H168440   0.864   4.169   1.139  1.4789 -0.0609  0.3279
15675TIP3    H268441   0.946   4.295   1.159 -1.2189  1.8020 -0.1285
15676TIP3   OH268442   1.604   3.274  13.713  0.2470  0.2113  0.2730
15676TIP3    H168443   1.570   3.339  13.775  0.6693 -0.2777  1.0194
15676TIP3    H268444   1.695   3.299  13.698  0.3935 -0.1770  0.5147
15677TIP3   OH268445   2.627   4.722  12.922  0.0336 -0.1492 -0.1585
15677TIP3    H168446   2.561   4.777  12.965  0.9078  1.5997 -0.9826
15677TIP3    H268447   2.703   4.726  12.980  0.4672  0.4121 -0.7594
15678TIP3   OH268448   6.070   2.751  12.790  0.0746  0.6984 -0.1127
15678TIP3    H168449   6.074   2.739  12.696  1.9451 -1.0585  0.1461
15678TIP3    H268450   6.135   2.819  12.808 -0.9761  1.7312 -0.1775
15679TIP3   OH268451   0.606   5.154   3.703  0.3364  0.0387 -0.7495
15679TIP3    H168452   0.645   5.130   3.619  1.3511  1.8587 -0.8095
15679TIP3    H268453   0.516   5.177   3.681  0.3829 -0.2093 -1.2150
15680TIP3   OH268454   4.363   6.146   3.996  0.0644 -0.0982 -0.0670
15680TIP3    H168455   4.268   6.154   3.994 -0.0828 -1.3506  1.1662
15680TIP3    H268456   4.389   6.188   4.078  0.6324  0.7974 -0.7030
15681TIP3   OH268457   4.203   0.221   4.517 -0.0183  0.5599 -0.0668
15681TIP3    H168458   4.254   0.251   4.593  0.7617  0.1618 -0.4278
15681TIP3    H268459   4.220   0.127   4.512 -1.8064  0.1696  0.5569
15682TIP3   OH268460   5.248   1.765  15.285 -0.5651 -0.1544 -0.1513
15682TIP3    H168461   5.202   1.806  15.358  1.3193  0.2514  0.8428
15682TIP3    H268462   5.237   1.671  15.299 -0.0481 -0.0819  0.7908
15683TIP3   OH268463   5.551   3.413   3.492  0.4812 -0.0469 -0.4226
15683TIP3    H168464   5.490   3.364   3.547  0.0300  1.8692  0.8250
15683TIP3    H268465   5.630   3.422   3.545  0.6881  0.2791 -0.7845
15684TIP3   OH268466   0.951   5.477  16.198 -0.0611 -0.1441 -0.0914
15684TIP3    H168467   0.945   5.572  16.209 -1.3993 -0.2632  0.2456
15684TIP3    H268468   0.930   5.462  16.106  0.5607 -0.0863 -0.2453
15685TIP3   OH268469   4.820   1.268  14.422 -0.0549 -0.1491 -0.1847
15685TIP3    H168470   4.868   1.280  14.340  0.9300 -1.3935  0.1832
15685TIP3    H268471   4.728   1.272  14.397  0.2279  1.4724 -1.0276
15686TIP3   OH268472   5.665   6.394  15.438 -0.4092 -0.2070  0.6893
15686TIP3    H168473   5.699   6.477  15.405 -0.0683 -0.6757 -0.1559
15686TIP3    H268474   5.648   6.410  15.531  3.0716 -0.2797  1.3836
15687TIP3   OH268475   3.661   2.049   1.912  0.1463  0.3925 -0.6051
15687TIP3    H168476   3.660   2.137   1.874 -0.9836  0.4888 -0.3638
15687TIP3    H268477   3.652   1.990   1.837 -0.4430  0.5259 -0.6365
15688TIP3   OH268478   0.212   4.543   5.014  0.2005  0.0229 -0.4867
15688TIP3    H168479   0.272   4.617   5.005 -2.0996  2.0466  0.4217
15688TIP3    H268480   0.229   4.509   5.101 -1.7346  2.2370  0.8004
15689TIP3   OH268481   3.054   2.773   4.075 -1.1610 -0.4095  0.1205
15689TIP3    H168482   3.068   2.866   4.056 -1.7508  0.0804  1.9876
15689TIP3    H268483   3.138   2.743   4.108 -0.8245 -0.6724 -0.9610
15690TIP3   OH268484   1.299   0.937   3.585 -0.1278 -0.1768 -0.3088
15690TIP3    H168485   1.268   1.005   3.644 -2.4041 -0.8128 -0.7154
15690TIP3    H268486   1.386   0.913   3.618 -0.0914  1.5937  0.9270
15691TIP3   OH268487   4.478   3.849   4.096  0.3212 -0.1376 -0.0555
15691TIP3    H168488   4.396   3.892   4.070  0.2678 -0.5901 -0.6523
15691TIP3    H268489   4.459   3.755   4.087  0.6569 -0.2643  0.5560
15692TIP3   OH268490   5.367   0.921  11.239 -0.0257  0.2220  0.0508
15692TIP3    H168491   5.367   0.886  11.150  0.7625 -0.5162  0.3343
15692TIP3    H268492   5.426   0.996  11.236 -0.3868  0.4994 -0.1595
15693TIP3   OH268493   1.172   5.865  11.602  0.6961 -0.1995 -0.4617
15693TIP3    H168494   1.194   5.938  11.545  0.6302 -0.9682 -1.4823
15693TIP3    H268495   1.138   5.798  11.543 -2.6595  0.2518  0.8327
15694TIP3   OH268496   0.975   3.015  12.864 -0.1712 -0.6711 -0.3214
15694TIP3    H168497   0.999   2.934  12.908 -0.9707 -1.2362 -0.9008
15694TIP3    H268498   0.965   2.990  12.772  0.4905  0.2798 -0.6533
15695TIP3   OH268499   2.107   0.726  14.003  0.0617 -0.2516  0.2729
15695TIP3    H168500   2.148   0.810  13.985 -1.6452  0.2655 -1.3443
15695TIP3    H268501   2.075   0.696  13.918 -3.6855 -0.2218  1.5951
15696TIP3   OH268502   4.804   4.093  16.729 -0.1864 -0.7454 -0.1382
15696TIP3    H168503   4.811   4.031  16.801  3.5636  0.2077  0.4397
15696TIP3    H268504   4.834   4.043  16.652  4.4079  0.6474  0.6066
15697TIP3   OH268505   2.542   5.541   2.069 -1.0265  0.2062 -0.1233
15697TIP3    H168506   2.512   5.603   2.136 -3.0434 -0.9496  0.1052
15697TIP3    H268507   2.540   5.591   1.987 -0.6291  1.0232  0.3619
15698TIP3   OH268508   4.886   4.884   3.581 -0.0100 -0.5485 -0.2981
15698TIP3    H168509   4.908   4.818   3.647 -0.0449 -0.4748 -0.2138
15698TIP3    H268510   4.967   4.895   3.531  0.2324 -0.0665  0.1950
15699TIP3   OH268511   0.745   6.420  15.446 -0.2981 -0.2462  0.1726
15699TIP3    H168512   0.758   6.504  15.402 -0.3341 -0.4464 -0.2178
15699TIP3    H268513   0.832   6.380  15.447 -0.8114 -1.5632 -2.3876
15700TIP3   OH268514   3.518   0.400   3.523 -0.4018 -0.7344  0.4243
15700TIP3    H168515   3.491   0.368   3.436 -0.8306  0.8897 -0.0679
15700TIP3    H268516   3.613   0.392   3.523 -0.4251 -1.0484 -0.0800
15701TIP3   OH268517   3.077   4.779   0.143 -0.3008 -0.5997 -0.3446
15701TIP3    H168518   3.113   4.731   0.218  1.2170  0.2467 -0.5232
15701TIP3    H268519   3.139   4.764   0.073 -0.6251  0.3654 -0.8418
15702TIP3   OH268520   1.729   3.631  13.984  0.2496  0.1740 -0.3347
15702TIP3    H168521   1.717   3.540  14.012  0.3119  1.0393  2.5899
15702TIP3    H268522   1.824   3.641  13.977  0.2849  0.2952  0.3077
15703TIP3   OH268523   5.084   6.014   3.162  0.2549  0.1151 -0.3005
15703TIP3    H168524   5.134   6.096   3.162  0.8226 -0.2072 -2.5401
15703TIP3    H268525   5.137   5.954   3.214  0.5892  0.7257  0.0791
15704TIP3   OH268526   6.530   5.529  10.747 -0.5977  0.4862  0.9314
15704TIP3    H168527   6.454   5.562  10.700  0.5386 -1.2487 -2.2254
15704TIP3    H268528   6.498   5.452  10.793 -0.9266  0.2296  0.2728
15705TIP3   OH268529   4.656   1.380  11.792  0.7913  0.2146 -0.5752
15705TIP3    H168530   4.749   1.360  11.778  0.8692  1.4335 -1.9078
15705TIP3    H268531   4.656   1.469  11.827  0.1009  0.3736 -0.9853
15706TIP3   OH268532   3.469   6.444   3.730 -0.9113 -0.1492 -0.2788
15706TIP3    H168533   3.463   6.532   3.766 -0.2263 -0.0395 -0.4250
15706TIP3    H268534   3.448   6.454   3.638 -0.5629 -0.0931 -0.3533
15707TIP3   OH268535   0.185   6.479   0.557  0.4922 -0.0197  0.5439
15707TIP3    H168536   0.141   6.483   0.472  0.2136 -0.8600  0.6456
15707TIP3    H268537   0.251   6.411   0.546  0.5050 -0.0767  0.9801
15708TIP3   OH268538   3.410   3.200  13.034  0.4557  0.4337 -0.4380
15708TIP3    H168539   3.476   3.193  12.965 -1.1870  2.9468 -2.3678
15708TIP3    H268540   3.336   3.149  13.002 -0.3894  1.7770 -0.6543
15709TIP3   OH268541   6.162   5.935  13.961 -0.3500 -0.0383  0.2735
15709TIP3    H168542   6.113   5.997  13.908  0.1845 -0.4729 -0.7309
15709TIP3    H268543   6.096   5.870  13.988 -0.3415 -0.6089 -1.0471
15710TIP3   OH268544   4.006   0.415   2.374 -0.7777  0.2245  0.0606
15710TIP3    H168545   3.942   0.372   2.318 -1.1525  0.5541  0.2329
15710TIP3    H268546   4.071   0.348   2.393 -1.2456 -0.2043  0.1512
15711TIP3   OH268547   3.772   5.141  16.900  0.1020 -0.6146  0.1004
15711TIP3    H168548   3.838   5.202  16.868  2.0394 -2.5182  0.3819
15711TIP3    H268549   3.761   5.078  16.829  0.5289 -1.8135  1.0850
15712TIP3   OH268550   0.336   6.397   2.902 -0.1880 -0.5916  0.6669
15712TIP3    H168551   0.329   6.472   2.842  0.0410 -2.6501 -2.0007
15712TIP3    H268552   0.271   6.415   2.970 -1.2705  1.2431 -0.7977
15713TIP3   OH268553   3.319   5.807   1.726  0.4448  0.2234 -0.3340
15713TIP3    H168554   3.350   5.821   1.815 -0.0074  0.4271 -0.2078
15713TIP3    H268555   3.374   5.736   1.692 -0.5611 -1.0938  0.7217
15714TIP3   OH268556   6.295   2.126   5.500 -0.0705  0.6104  0.9591
15714TIP3    H168557   6.317   2.045   5.454  0.6118  2.3353 -1.8681
15714TIP3    H268558   6.360   2.132   5.570  1.2301 -0.1931 -0.1612
15715TIP3   OH268559   5.067   4.987   3.203 -0.1504  0.5249  0.3760
15715TIP3    H168560   5.137   5.015   3.144 -0.1976  0.9557  0.5198
15715TIP3    H268561   4.989   4.982   3.147  0.4434 -2.1626 -0.2650
15716TIP3   OH268562   5.735   1.774   0.373 -0.0241  0.4086 -0.1233
15716TIP3    H168563   5.652   1.743   0.337 -0.3265  0.1368  0.7847
15716TIP3    H268564   5.759   1.848   0.318 -0.5881  0.1478 -0.7351
15717TIP3   OH268565   0.655   0.592   4.802  0.4029 -0.4063 -0.3145
15717TIP3    H168566   0.745   0.596   4.770  0.9994  3.0951  1.5302
15717TIP3    H268567   0.660   0.625   4.892 -2.2142 -3.4825  1.0524
15718TIP3   OH268568   2.164   5.478   3.852  0.5916  0.0959  0.0777
15718TIP3    H168569   2.193   5.553   3.800  1.8411  0.8591  1.8034
15718TIP3    H268570   2.090   5.442   3.803 -0.0949  2.5175 -0.7586
15719TIP3   OH268571   0.693   2.109   4.363  0.3110 -0.1477  0.2072
15719TIP3    H168572   0.622   2.170   4.382  0.0375  0.3668 -2.3274
15719TIP3    H268573   0.670   2.030   4.412 -2.9801 -0.6102 -1.9552
15720TIP3   OH268574   1.802   6.090   1.218  0.3659  0.0281  0.0491
15720TIP3    H168575   1.842   6.137   1.145 -1.0131  0.4259 -0.4672
15720TIP3    H268576   1.717   6.133   1.230 -0.5732 -1.8019  0.0982
15721TIP3   OH268577   4.154   0.150   1.184 -0.5157 -0.4753 -0.1563
15721TIP3    H168578   4.232   0.177   1.232 -0.9257  0.0317  0.2327
15721TIP3    H268579   4.161   0.194   1.099 -0.4266 -0.3495 -0.0832
15722TIP3   OH268580   6.481   1.373   4.784  0.0872  0.0584  1.0431
15722TIP3    H168581   6.396   1.361   4.827 -1.0190  0.8570 -0.8577
15722TIP3    H268582   6.543   1.387   4.856 -1.2721 -1.1628  2.4861
15723TIP3   OH268583   5.432   5.725   5.625 -0.3606  0.3410  0.3247
15723TIP3    H168584   5.507   5.771   5.587  0.1990  0.0757  1.0771
15723TIP3    H268585   5.362   5.791   5.629 -0.7761  0.0731 -2.1368
15724TIP3   OH268586   4.817   6.687  16.880  0.2397  0.2966 -0.2254
15724TIP3    H168587   4.813   6.685  16.976 -1.7243 -1.2702 -0.3085
15724TIP3    H268588   4.813   6.780  16.858  0.0507  0.6445  1.1840
15725TIP3   OH268589   5.174   5.654  13.370  0.2018  0.5616 -0.0450
15725TIP3    H168590   5.227   5.658  13.290 -0.0671 -2.3220 -0.4267
15725TIP3    H268591   5.218   5.588  13.424  0.2097  2.2616  2.0946
15726TIP3   OH268592   6.762   5.269   5.202  0.2484  0.2804  0.6660
15726TIP3    H168593   6.752   5.196   5.140  2.3095 -0.3995  1.1086
15726TIP3    H268594   6.717   5.239   5.281 -0.7116  0.3547  0.1577
15727TIP3   OH268595   5.373   6.596  13.030 -0.6129 -0.1328  0.1136
15727TIP3    H168596   5.428   6.523  13.003 -1.5926 -1.4208  1.5273
15727TIP3    H268597   5.426   6.646  13.092  0.0001  0.2638 -0.7322
15728TIP3   OH268598   4.918   0.631  11.772 -0.5372  0.2091  0.5330
15728TIP3    H168599   4.894   0.539  11.782  0.5218 -0.1524 -0.1050
15728TIP3    H268600   5.009   0.636  11.803 -0.1573  0.7724 -0.6374
15729TIP3   OH268601   1.886   4.345  17.177 -0.0622 -0.0460 -0.4950
15729TIP3    H168602   1.944   4.372  17.106  0.0677  2.2156  0.4376
15729TIP3    H268603   1.920   4.260  17.205  3.0649  1.4192  0.3087
15730TIP3   OH268604   0.370   3.067  15.179  0.4672 -0.3122 -0.1720
15730TIP3    H168605   0.391   2.974  15.166 -0.6759 -0.5677 -0.2482
15730TIP3    H268606   0.314   3.068  15.257  0.8344  0.3565  0.0788
15731TIP3   OH268607   0.207   0.435  16.108  0.3706  0.0321  0.2434
15731TIP3    H168608   0.273   0.368  16.087  0.8393  0.4432  0.3911
15731TIP3    H268609   0.247   0.517  16.080 -0.4471  0.1905 -0.4795
15732TIP3   OH268610   1.925   2.376   3.135 -0.0318 -0.2757 -0.3602
15732TIP3    H168611   1.876   2.394   3.055  0.8787  2.8068 -0.2718
15732TIP3    H268612   1.866   2.404   3.205  0.6582  0.5932 -0.1241
15733TIP3   OH268613   6.738   6.749   0.636  0.4091 -0.2050  0.3007
15733TIP3    H168614   6.761   6.687   0.705 -0.7216 -0.4370  0.4830
15733TIP3    H268615   6.814   6.807   0.628  1.6130 -1.8135 -0.1023
15734TIP3   OH268616   1.356   4.962  16.043 -0.0465  0.2141  0.1671
15734TIP3    H168617   1.448   4.938  16.053 -0.3355 -0.9316  0.1451
15734TIP3    H268618   1.319   4.895  15.986 -0.9549  0.5236  0.3746
15735TIP3   OH268619   4.436   0.044   1.980 -0.4413 -0.0610  0.4597
15735TIP3    H168620   4.433   0.139   1.992  1.6986  0.2864 -1.3098
15735TIP3    H268621   4.373   0.026   1.910  1.0407  0.4456 -1.0494
15736TIP3   OH268622   1.261   4.866   5.756 -0.0799  0.0350  0.6845
15736TIP3    H168623   1.220   4.950   5.739 -0.8870 -0.4529  0.1674
15736TIP3    H268624   1.187   4.804   5.760  0.6093 -0.8595 -0.3049
15737TIP3   OH268625   1.052   6.628  15.150  0.1415  0.0009 -0.2268
15737TIP3    H168626   1.100   6.548  15.130 -0.8926 -0.6492 -0.1413
15737TIP3    H268627   1.119   6.690  15.179  1.0078 -0.6655 -0.7837
15738TIP3   OH268628   6.151   2.101  11.738  0.4742 -0.4587  0.2046
15738TIP3    H168629   6.089   2.172  11.726 -0.6563 -1.8273 -2.6623
15738TIP3    H268630   6.236   2.138  11.713  0.4136  0.6954  1.6600
15739TIP3   OH268631   3.704   2.894  14.981  0.1765 -0.1803  0.0407
15739TIP3    H168632   3.751   2.875  14.900  0.1340 -1.1696  0.2454
15739TIP3    H268633   3.729   2.824  15.040 -0.3845  0.1242  0.6454
15740TIP3   OH268634   5.929   4.225   1.874 -0.8621  0.4903 -0.1749
15740TIP3    H168635   6.009   4.176   1.893 -2.5758 -2.2871  0.0851
15740TIP3    H268636   5.891   4.244   1.960 -0.7434  1.3914 -0.3149
15741TIP3   OH268637   0.892   1.606  13.373  0.2221  0.2466 -0.5683
15741TIP3    H168638   0.859   1.634  13.288  1.2623 -0.0448 -1.0737
15741TIP3    H268639   0.985   1.628  13.371  0.5653 -1.1038 -0.0735
15742TIP3   OH268640   1.750   1.496   4.034 -0.0379  0.2649 -0.1678
15742TIP3    H168641   1.673   1.499   4.091 -0.7937 -0.8060 -1.1110
15742TIP3    H268642   1.817   1.452   4.087  0.2615  2.0510  1.0017
15743TIP3   OH268643   2.701   0.630   4.373  0.0679  0.1937 -0.1521
15743TIP3    H168644   2.642   0.607   4.301  1.3751 -0.7657 -0.9329
15743TIP3    H268645   2.674   0.718   4.399 -0.4982  0.4953 -1.7234
15744TIP3   OH268646   2.638   4.052  13.693  0.0306 -0.0315  0.3190
15744TIP3    H168647   2.640   3.958  13.675 -1.1842 -0.0208  0.1049
15744TIP3    H268648   2.547   4.078  13.677  0.9064  1.6933 -2.1393
15745TIP3   OH268649   2.153   2.887  15.049  0.3790 -0.0883 -0.0120
15745TIP3    H168650   2.085   2.847  15.104  0.5130 -0.7510 -0.3185
15745TIP3    H268651   2.166   2.824  14.978  0.4760  0.5862 -0.5963
15746TIP3   OH268652   1.375   4.645   1.280  0.5751 -0.7378 -0.1899
15746TIP3    H168653   1.373   4.664   1.186 -0.2932  1.0252  0.1577
15746TIP3    H268654   1.318   4.711   1.319  2.0279 -0.5800  1.7386
15747TIP3   OH268655   2.249   2.132   4.436  0.0478  0.1373  0.3024
15747TIP3    H168656   2.223   2.048   4.399 -1.3688  0.5190  0.4101
15747TIP3    H268657   2.345   2.126   4.443 -0.0099 -1.3717  0.0948
15748TIP3   OH268658   4.354   6.414  14.444 -0.7645  0.2294  0.7162
15748TIP3    H168659   4.317   6.459  14.368 -1.3292  2.0127  2.0333
15748TIP3    H268660   4.371   6.325  14.412 -2.4515  0.4927 -1.0410
15749TIP3   OH268661   6.689   4.191  12.771  0.0554  0.0588 -0.1327
15749TIP3    H168662   6.778   4.195  12.806  1.2927  0.3397 -3.1319
15749TIP3    H268663   6.646   4.269  12.806  1.5332  0.8205  0.0244
15750TIP3   OH268664   3.989   3.062  14.934  0.2261  0.2834 -0.6239
15750TIP3    H168665   3.941   3.108  14.864  0.0726  1.0391 -0.0265
15750TIP3    H268666   4.080   3.088  14.920  0.0064  1.6255  0.3521
15751TIP3   OH268667   4.704   2.487  12.202  0.7324 -0.0236 -0.0055
15751TIP3    H168668   4.755   2.408  12.221  1.9415  0.6493 -0.3730
15751TIP3    H268669   4.613   2.460  12.211  1.1638 -1.0821  1.3311
15752TIP3   OH268670   6.489   6.745  14.978 -0.1353  0.3211  0.5531
15752TIP3    H168671   6.429   6.744  14.903  0.6471 -0.3443 -0.0748
15752TIP3    H268672   6.464   6.668  15.028 -0.7737  0.8628  1.0660
15753TIP3   OH268673   0.419   3.093  16.036  0.3472 -0.4184 -0.0380
15753TIP3    H168674   0.512   3.114  16.025  0.2848 -0.5389 -0.8259
15753TIP3    H268675   0.400   3.033  15.964 -0.8895  1.3054 -1.1925
15754TIP3   OH268676   3.214   6.488   2.384  0.3912 -0.6026  0.3394
15754TIP3    H168677   3.216   6.537   2.466 -1.4842  1.2693 -0.6701
15754TIP3    H268678   3.267   6.541   2.324 -0.3631 -0.6170 -0.3461
15755TIP3   OH268679   3.541   1.626   1.874  0.7176  0.4616  0.3353
15755TIP3    H168680   3.490   1.704   1.855  1.7477  1.1143  0.2132
15755TIP3    H268681   3.476   1.558   1.891 -0.1835  0.9144 -1.2900
15756TIP3   OH268682   0.841   5.901  14.642  0.4761 -0.2567  0.1567
15756TIP3    H168683   0.823   5.807  14.637 -2.4168  0.1756  1.7554
15756TIP3    H268684   0.871   5.915  14.732  0.1367  0.4631  0.1588
15757TIP3   OH268685   3.418   6.204  11.058  0.3542  0.2315  0.3603
15757TIP3    H168686   3.376   6.237  10.979 -0.4936 -2.3178 -0.3034
15757TIP3    H268687   3.510   6.194  11.034 -0.3121 -2.8383 -1.1444
15758TIP3   OH268688   0.335   5.363   3.386  0.3868 -0.1158 -0.7102
15758TIP3    H168689   0.251   5.393   3.351  1.0410  1.7636 -0.7318
15758TIP3    H268690   0.312   5.290   3.444 -1.3761  0.9728  0.0136
15759TIP3   OH268691   1.886   0.588  16.190 -0.0083 -0.1622  0.7228
15759TIP3    H168692   1.866   0.672  16.230 -3.4358 -0.8492  0.6238
15759TIP3    H268693   1.877   0.525  16.261  0.3274 -0.6822  0.3041
15760TIP3   OH268694   6.489   2.432  15.958 -0.0036  0.3431 -0.0382
15760TIP3    H168695   6.439   2.361  15.998 -2.7102  1.7730 -0.8077
15760TIP3    H268696   6.428   2.474  15.898  1.7321  3.0229  0.0077
15761TIP3   OH268697   6.469   0.598  11.535 -0.1545 -0.0664 -0.4278
15761TIP3    H168698   6.550   0.635  11.569 -0.9123  0.9414  0.3195
15761TIP3    H268699   6.490   0.507  11.517  0.9118 -0.0359  0.5947
15762TIP3   OH268700   2.919   3.997   5.578  0.2433 -0.0110 -0.3967
15762TIP3    H168701   2.882   3.988   5.490 -1.7030  2.6034  0.0966
15762TIP3    H268702   2.873   3.932   5.631  1.5563 -1.7203 -1.3067
15763TIP3   OH268703   5.966   0.864  16.913 -0.0612 -0.2513  0.7225
15763TIP3    H168704   5.908   0.935  16.885 -0.3914 -1.0602 -0.6938
15763TIP3    H268705   5.969   0.872  17.009 -2.9168 -0.5140  0.8779
15764TIP3   OH268706   0.075   2.195  12.753 -0.3156  0.7588 -0.1087
15764TIP3    H168707   0.129   2.214  12.676  0.2982  1.5896  0.5152
15764TIP3    H268708   0.030   2.277  12.772  0.5779  0.9564  1.2275
15765TIP3   OH268709   0.367   1.707   1.197 -0.4514 -0.2723  0.1130
15765TIP3    H168710   0.444   1.764   1.187 -1.3544  0.6890 -1.3941
15765TIP3    H268711   0.399   1.620   1.174  0.1952  0.1244 -0.5185
15766TIP3   OH268712   2.561   0.109  17.115 -0.9752  0.4014  0.2452
15766TIP3    H168713   2.487   0.168  17.130 -0.9685  0.6225 -0.5919
15766TIP3    H268714   2.609   0.149  17.042  0.5458  0.8137  1.4517
15767TIP3   OH268715   3.840   0.960  12.575 -0.3440 -0.4637 -0.1553
15767TIP3    H168716   3.757   1.005  12.563  0.6156  1.5074  0.3434
15767TIP3    H268717   3.840   0.932  12.667  1.2812  3.3035  1.0878
15768TIP3   OH268718   2.570   6.060   2.486  0.1264 -0.3867  0.3714
15768TIP3    H168719   2.633   6.131   2.473 -1.5152  1.3478  1.5747
15768TIP3    H268720   2.604   6.012   2.561 -0.1576  0.7961  1.2824
15769TIP3   OH268721   5.050   2.157  16.421 -0.0419 -0.4524  0.0611
15769TIP3    H168722   5.067   2.198  16.336  2.3281 -0.8591  0.2910
15769TIP3    H268723   5.067   2.227  16.485  1.8443 -1.1376  0.3452
15770TIP3   OH268724   2.956   3.551  16.460  0.3655  0.9198 -0.2255
15770TIP3    H168725   3.001   3.620  16.509  2.9302 -0.4375 -0.5947
15770TIP3    H268726   2.881   3.528  16.514  1.6794  1.2783  1.8147
15771TIP3   OH268727   2.705   5.917  15.427 -0.5703 -0.5100 -0.3428
15771TIP3    H168728   2.791   5.953  15.452 -0.0854 -1.3984 -0.7306
15771TIP3    H268729   2.719   5.879  15.341 -1.0749 -1.6468  0.0705
15772TIP3   OH268730   3.963   0.743   5.044 -0.6474 -0.2471  0.2830
15772TIP3    H168731   3.977   0.837   5.035 -0.1283 -0.4025 -0.6367
15772TIP3    H268732   3.870   0.730   5.024 -0.3423 -0.1250 -1.2975
15773TIP3   OH268733   5.107   2.119  12.409  0.0305  0.2449 -0.0632
15773TIP3    H168734   5.184   2.064  12.402  0.1216  0.4090 -0.3650
15773TIP3    H268735   5.038   2.070  12.365 -0.4328 -0.6096  1.5507
15774TIP3   OH268736   1.296   5.397   2.701 -0.2494  0.2892  0.3914
15774TIP3    H168737   1.219   5.376   2.755 -1.2244  2.8330  0.0272
15774TIP3    H268738   1.288   5.340   2.625 -2.1151  0.9396  0.0689
15775TIP3   OH268739   2.369   3.872  13.471  0.5665 -0.6513  0.2118
15775TIP3    H168740   2.277   3.870  13.447  0.5427 -2.5272  0.3884
15775TIP3    H268741   2.403   3.952  13.430 -0.6315 -1.1127 -1.7231
15776TIP3   OH268742   0.712   1.684  13.187  0.7302 -0.1692  0.4140
15776TIP3    H168743   0.690   1.594  13.163  1.0911 -0.8413  2.5461
15776TIP3    H268744   0.672   1.737  13.118  1.4842 -2.0098 -1.4874
15777TIP3   OH268745   0.571   2.775  14.178 -0.6169  0.2563  0.5088
15777TIP3    H168746   0.535   2.727  14.103  0.0049 -0.7992  0.8764
15777TIP3    H268747   0.495   2.789  14.235 -0.6925 -0.8557  0.6923
15778TIP3   OH268748   3.076   4.229  16.064 -0.5313 -0.0689 -0.0449
15778TIP3    H168749   3.145   4.285  16.027 -0.5454 -1.7108 -2.6735
15778TIP3    H268750   3.018   4.211  15.991 -1.6861 -1.8062  1.2680
15779TIP3   OH268751   6.769   3.688   1.882  0.2232  0.2094 -0.3074
15779TIP3    H168752   6.688   3.639   1.869  0.5453 -0.3949 -0.0130
15779TIP3    H268753   6.770   3.709   1.975  0.5426 -0.0182 -0.2597
15780TIP3   OH268754   2.474   0.815   4.287  0.0629 -0.2726 -0.1802
15780TIP3    H168755   2.550   0.871   4.302  0.2385 -0.4762 -0.2963
15780TIP3    H268756   2.495   0.767   4.207  0.2587 -1.0600  0.3263
15781TIP3   OH268757   6.035   3.695   6.031 -0.3115 -0.2374  0.2894
15781TIP3    H168758   5.943   3.708   6.052 -0.1280  0.1586  0.8613
15781TIP3    H268759   6.070   3.647   6.106  0.2667  0.8465  0.7208
15782TIP3   OH268760   3.941   4.448  15.767  0.4102  0.3099 -0.2588
15782TIP3    H168761   3.881   4.493  15.827  2.2942  2.9304 -0.2092
15782TIP3    H268762   3.997   4.395  15.824  0.1251  0.2884  0.0011
15783TIP3   OH268763   2.819   5.167  15.553  0.0056 -0.0713  0.6561
15783TIP3    H168764   2.771   5.201  15.477 -0.0984  1.2743  1.2973
15783TIP3    H268765   2.763   5.189  15.628  0.3219 -0.9696  1.1623
15784TIP3   OH268766   3.318   1.952  12.770 -0.7158 -0.1448 -0.2325
15784TIP3    H168767   3.306   1.859  12.752 -0.4069  0.1088 -1.7627
15784TIP3    H268768   3.273   1.996  12.698  1.8992  0.8730 -1.2931
15785TIP3   OH268769   3.234   1.014   0.539  0.2576  0.6032 -0.8159
15785TIP3    H168770   3.257   0.936   0.588 -0.6630 -0.0027 -1.3314
15785TIP3    H268771   3.286   1.008   0.459 -0.2523  0.2170 -1.1190
15786TIP3   OH268772   2.842   1.803   2.425  0.2399  0.1668 -0.0696
15786TIP3    H168773   2.765   1.850   2.457 -0.0861  0.1102 -0.7481
15786TIP3    H268774   2.901   1.798   2.500 -0.8646 -0.7273  0.7674
15787TIP3   OH268775   2.596   5.073  14.940  0.1408 -0.4177  0.4590
15787TIP3    H168776   2.652   5.009  14.897  0.3221  0.7319 -1.0583
15787TIP3    H268777   2.531   5.096  14.874 -0.0519  0.8139  1.0640
15788TIP3   OH268778   0.194   0.880   1.166  0.8598 -0.0963  0.2688
15788TIP3    H168779   0.132   0.951   1.148  0.1847 -1.0343 -1.1459
15788TIP3    H268780   0.200   0.878   1.262  1.1359  2.0776  0.3208
15789TIP3   OH268781   2.951   0.099  12.782  0.0009 -0.2518  0.4213
15789TIP3    H168782   2.899   0.024  12.811  0.2165 -0.1513  1.0792
15789TIP3    H268783   3.031   0.096  12.835 -0.2907  0.8314  0.9530
15790TIP3   OH268784   4.666   5.575  13.759 -0.2127 -0.6871 -0.1763
15790TIP3    H168785   4.576   5.550  13.742 -0.8667  1.4578  0.0484
15790TIP3    H268786   4.709   5.574  13.674 -1.1205  0.8602 -0.6642
15791TIP3   OH268787   2.717   4.232  11.677  0.0309  0.8399 -0.6666
15791TIP3    H168788   2.778   4.297  11.641  1.0075 -0.5138 -1.5247
15791TIP3    H268789   2.762   4.197  11.754  0.4331 -0.2758 -1.3935
15792TIP3   OH268790   6.459   1.578  14.610 -0.2611  0.4206  0.2991
15792TIP3    H168791   6.464   1.487  14.640 -1.4626 -0.0276 -0.7934
15792TIP3    H268792   6.490   1.575  14.520  0.3240  1.2060  0.4770
15793TIP3   OH268793   6.667   1.177   3.291  0.1079  1.1457 -0.2717
15793TIP3    H168794   6.749   1.167   3.339  0.7375  1.7335 -1.1981
15793TIP3    H268795   6.605   1.214   3.355  0.2535 -0.3131  0.7192
15794TIP3   OH268796   6.618   6.063   3.719 -0.7666 -0.1073  0.6479
15794TIP3    H168797   6.653   6.003   3.784  0.6795 -0.3983 -0.3579
15794TIP3    H268798   6.594   6.141   3.768  0.1717 -0.3809  1.5581
15795TIP3   OH268799   2.006   6.280   2.793  0.4142  0.4484  0.2278
15795TIP3    H168800   2.083   6.313   2.840 -0.3376 -0.4762  2.1990
15795TIP3    H268801   1.934   6.337   2.822  0.3426  1.2733 -1.5557
15796TIP3   OH268802   2.021   4.481   0.812 -0.0444 -0.4566 -0.0735
15796TIP3    H168803   2.023   4.566   0.857  0.4223 -0.1074 -0.7307
15796TIP3    H268804   2.034   4.417   0.881  2.3371  0.1588  0.1223
15797TIP3   OH268805   5.141   0.702   5.440  0.2041  0.1646  0.7423
15797TIP3    H168806   5.103   0.710   5.353  1.6413 -3.4912 -0.3386
15797TIP3    H268807   5.205   0.773   5.445 -0.5419  0.9732 -0.7960
15798TIP3   OH268808   0.464   5.225  16.355 -0.1111 -0.5698  0.0156
15798TIP3    H168809   0.391   5.287  16.349  1.1786  1.0125  0.5611
15798TIP3    H268810   0.489   5.209  16.264  0.2987  0.5955 -0.0761
15799TIP3   OH268811   5.617   4.585   0.549  0.3121 -0.6026  0.3207
15799TIP3    H168812   5.656   4.548   0.470  0.4636 -0.2404  0.2236
15799TIP3    H268813   5.652   4.532   0.620 -0.1737 -1.2140  0.1088
15800TIP3   OH268814   0.167   3.797  13.088 -0.5175 -0.0986  0.3170
15800TIP3    H168815   0.195   3.745  13.163 -0.6344  1.0956  1.2123
15800TIP3    H268816   0.086   3.839  13.117 -1.0796 -0.3682 -0.8238
15801TIP3   OH268817   5.309   6.207  12.175  0.5097 -0.2504 -0.2946
15801TIP3    H168818   5.234   6.209  12.235 -0.1085 -0.1690 -1.0600
15801TIP3    H268819   5.380   6.250  12.224 -0.3078  0.8596 -0.0569
15802TIP3   OH268820   1.104   2.649  15.308 -0.0469 -0.6663 -0.1572
15802TIP3    H168821   1.085   2.624  15.217 -1.6145 -0.5081  0.1269
15802TIP3    H268822   1.138   2.738  15.301  0.9546 -1.0694 -0.6884
15803TIP3   OH268823   5.295   1.422   3.953 -0.1741 -0.6301 -0.7377
15803TIP3    H168824   5.334   1.340   3.984  0.7157  0.0757  0.0370
15803TIP3    H268825   5.298   1.480   4.029 -0.5137  0.2208 -1.3686
15804TIP3   OH268826   1.218   2.409  13.628 -0.3732  0.3682 -0.5617
15804TIP3    H168827   1.156   2.432  13.558 -1.4277 -2.1190 -0.4821
15804TIP3    H268828   1.192   2.463  13.702 -0.6135  1.4429 -1.4160
15805TIP3   OH268829   1.899   4.776   3.772  0.1915 -0.3796 -0.4775
15805TIP3    H168830   1.908   4.869   3.752  1.8032 -0.4998 -0.3931
15805TIP3    H268831   1.813   4.768   3.814  1.3948  1.5985  2.5238
15806TIP3   OH268832   4.527   4.406  16.414  0.0521 -0.3314  0.0290
15806TIP3    H168833   4.554   4.377  16.501 -0.8271 -2.7580 -0.4675
15806TIP3    H268834   4.580   4.484  16.397  0.6201 -0.1555  2.4969
15807TIP3   OH268835   0.472   6.115   5.282 -0.2957  0.2750 -0.0676
15807TIP3    H168836   0.498   6.138   5.371 -0.9877  0.8433 -0.0035
15807TIP3    H268837   0.537   6.051   5.253  0.2497  0.5016  0.6457
15808TIP3   OH268838   0.165   2.769  13.500  0.0663 -0.1965 -0.0644
15808TIP3    H168839   0.102   2.763  13.428  2.0397  1.0619 -1.9683
15808TIP3    H268840   0.208   2.684  13.502 -0.3640 -0.4132 -0.0173
15809TIP3   OH268841   2.454   3.110   4.131  0.4426 -0.3151 -0.1958
15809TIP3    H168842   2.453   3.063   4.214 -0.1603  0.0502  0.0117
15809TIP3    H268843   2.373   3.083   4.088  1.2922 -1.3685 -1.1591
15810TIP3   OH268844   4.126   4.630   1.708  0.1224 -0.1679  0.1772
15810TIP3    H168845   4.208   4.678   1.722  0.0651 -0.2649  0.8280
15810TIP3    H268846   4.058   4.697   1.714  0.1554 -0.0555 -0.5411
15811TIP3   OH268847   3.596   5.022   1.201  0.7199 -0.2907  0.3396
15811TIP3    H168848   3.582   4.931   1.177 -0.5826 -0.2692  0.9940
15811TIP3    H268849   3.636   5.017   1.288  2.4906 -0.2816 -0.4576
15812TIP3   OH268850   4.534   3.608   4.258  0.0285  0.1676 -0.5695
15812TIP3    H168851   4.625   3.611   4.287  0.6740 -2.4479 -2.1350
15812TIP3    H268852   4.484   3.591   4.337  1.4102 -3.2033 -0.3246
15813TIP3   OH268853   2.784   0.492  12.493  0.4134  0.3585  0.5729
15813TIP3    H168854   2.698   0.486  12.535  0.2640  0.8715  0.3432
15813TIP3    H268855   2.823   0.406  12.507 -1.5436 -1.1079 -2.4031
15814TIP3   OH268856   2.657   1.600   2.717 -0.1007  0.2344  0.3838
15814TIP3    H168857   2.658   1.663   2.645 -1.0231 -0.6357 -0.3930
15814TIP3    H268858   2.585   1.628   2.773  1.6463  1.8953  1.8794
15815TIP3   OH268859   3.736   5.978   3.917  0.1394 -0.2131  0.0156
15815TIP3    H168860   3.700   5.893   3.892 -2.0670 -0.2193  2.9280
15815TIP3    H268861   3.826   5.958   3.945 -0.2044 -1.5251  0.2416
15816TIP3   OH268862   6.402   4.122   3.369 -0.5151  0.1041  0.1341
15816TIP3    H168863   6.338   4.079   3.312  0.2473 -1.1494  0.1941
15816TIP3    H268864   6.483   4.121   3.318  0.4035 -1.8668  1.5776
15817TIP3   OH268865   3.766   2.000   5.929 -0.2468 -0.0091 -0.6504
15817TIP3    H168866   3.825   1.960   5.993  1.2652  2.3737 -0.5115
15817TIP3    H268867   3.758   1.934   5.860 -0.7515 -2.0344  1.2793
15818TIP3   OH268868   3.514   4.930  11.623 -0.3188 -0.4736 -0.0062
15818TIP3    H168869   3.601   4.951  11.656 -0.7390 -0.3694  1.0601
15818TIP3    H268870   3.526   4.852  11.569  0.7377  0.6105 -1.3838
15819TIP3   OH268871   4.949   4.506  16.328  0.1214 -0.4664  0.5708
15819TIP3    H168872   4.919   4.460  16.249  2.6190 -0.9405 -0.1453
15819TIP3    H268873   5.038   4.535  16.306 -0.0745  1.5789  2.3209
15820TIP3   OH268874   3.932   3.450  10.403 -0.2223  0.7386 -0.5389
15820TIP3    H168875   4.008   3.466  10.459 -0.8225  1.8888 -0.0366
15820TIP3    H268876   3.931   3.524  10.342 -1.4487  1.2111  0.0347
15821TIP3   OH268877   5.931   0.733   1.162 -0.5571 -0.0910 -0.6038
15821TIP3    H168878   5.896   0.815   1.127 -1.5769 -1.2029 -2.2265
15821TIP3    H268879   5.854   0.680   1.183  0.0917 -1.3171 -1.2258
15822TIP3   OH268880   5.177   0.294  16.714 -0.2544 -0.0104  0.2883
15822TIP3    H168881   5.178   0.206  16.753 -0.0879  0.1617  0.6843
15822TIP3    H268882   5.256   0.297  16.660  0.7840  0.5606  1.8056
15823TIP3   OH268883   2.716   1.540   6.278 -0.3874  0.1116  0.1134
15823TIP3    H168884   2.806   1.520   6.305 -0.4563 -0.2033  0.1160
15823TIP3    H268885   2.711   1.635   6.279  0.4897  0.1979 -1.6541
15824TIP3   OH268886   3.839   4.240   1.542 -0.0743 -0.5560 -0.4144
15824TIP3    H168887   3.801   4.287   1.616  0.8591 -3.3967  1.9940
15824TIP3    H268888   3.911   4.295   1.513 -0.4699  0.6207  0.7907
15825TIP3   OH268889   1.175   1.578   3.351 -0.4433  0.1557  0.0436
15825TIP3    H168890   1.267   1.573   3.378 -0.8894 -0.2112  1.5931
15825TIP3    H268891   1.141   1.657   3.394 -1.0913 -0.2585  0.3093
15826TIP3   OH268892   5.329   1.528  13.338 -0.3070 -0.7705 -0.1134
15826TIP3    H168893   5.338   1.605  13.393  2.5140 -1.2680  0.2168
15826TIP3    H268894   5.272   1.469  13.387 -0.9153  0.3263  0.5121
15827TIP3   OH268895   0.356   6.682   0.621 -0.3433 -0.0240  0.3604
15827TIP3    H168896   0.296   6.620   0.581 -2.4435  1.0268  1.8119
15827TIP3    H268897   0.361   6.655   0.713 -1.2825  1.9057  1.0121
15828TIP3   OH268898   4.614   1.573  14.630 -0.0194 -0.0762  0.9980
15828TIP3    H168899   4.645   1.622  14.554 -1.9508  0.3322  0.4374
15828TIP3    H268900   4.692   1.560  14.684  1.5723 -1.2761 -1.5255
15829TIP3   OH268901   1.938   2.599   2.900 -0.1332  0.1072 -0.1339
15829TIP3    H168902   1.884   2.522   2.882 -1.7838  1.1547  0.2210
15829TIP3    H268903   1.913   2.625   2.989  5.0627 -2.7057  2.3733
15830TIP3   OH268904   4.018   6.074  15.668  0.3311 -0.6272  0.4231
15830TIP3    H168905   4.063   6.126  15.602  0.4691 -0.1908  0.8579
15830TIP3    H268906   3.929   6.063  15.634  0.3099 -0.1273  0.3127
15831TIP3   OH268907   5.415   3.367  12.174  0.2636 -0.4947 -0.3766
15831TIP3    H168908   5.505   3.397  12.165  0.8945 -2.2743 -0.1874
15831TIP3    H268909   5.420   3.272  12.171 -1.3506 -0.7137  1.7782
15832TIP3   OH268910   0.508   4.902  10.378 -0.1282  0.7201 -0.4297
15832TIP3    H168911   0.566   4.977  10.374  0.4355  0.3977  1.2877
15832TIP3    H268912   0.423   4.938  10.402  0.4590  0.6718  1.7983
15833TIP3   OH268913   5.992   3.649   3.652 -0.5183  0.3748 -0.0628
15833TIP3    H168914   6.067   3.669   3.596 -0.7581 -1.0764 -0.9479
15833TIP3    H268915   6.023   3.580   3.711 -1.2640 -0.5784 -0.7512
15834TIP3   OH268916   5.624   3.045  13.892 -0.0617  0.5171  0.3502
15834TIP3    H168917   5.585   2.959  13.874 -0.0652  0.8642 -1.3031
15834TIP3    H268918   5.558   3.107  13.862  1.6382  1.1186 -2.2975
15835TIP3   OH268919   5.877   3.903  11.702 -0.4378 -0.6337 -0.3308
15835TIP3    H168920   5.827   3.851  11.639 -1.4618 -1.4643  1.1388
15835TIP3    H268921   5.967   3.876  11.689 -0.5417 -0.3026 -1.8938
15836TIP3   OH268922   3.191   0.745  10.548  0.3853  0.0955 -0.0465
15836TIP3    H168923   3.282   0.771  10.563  0.4067  0.9013 -1.4774
15836TIP3    H268924   3.166   0.791  10.468 -0.4308 -2.2347 -1.1894
15837TIP3   OH268925   1.446   1.898  14.868 -0.5246  0.3888 -0.6010
15837TIP3    H168926   1.396   1.897  14.950  1.8241  0.9977  0.9087
15837TIP3    H268927   1.475   1.808  14.856 -1.6669  0.1072 -1.2866
15838TIP3   OH268928   2.322   1.041   5.869 -0.0478  0.2362 -0.1548
15838TIP3    H168929   2.415   1.063   5.875 -0.4394  2.0812 -0.6226
15838TIP3    H268930   2.280   1.121   5.840 -1.8844 -0.4073  0.6541
15839TIP3   OH268931   6.522   5.462   0.335 -0.0758 -0.4373 -0.1280
15839TIP3    H168932   6.566   5.409   0.401  1.0122 -1.8631 -1.9463
15839TIP3    H268933   6.462   5.518   0.385  0.5004 -1.6778  2.0154
15840TIP3   OH268934   1.507   0.047  15.202 -0.3857 -0.2111 -0.1016
15840TIP3    H168935   1.486  -0.014  15.131  2.1627 -1.4686  0.1768
15840TIP3    H268936   1.497   0.133  15.163 -2.6841 -0.8114 -0.9029
15841TIP3   OH268937   2.315   4.316   1.180 -0.2616  0.5945  0.2245
15841TIP3    H168938   2.399   4.338   1.219  0.7257 -0.7190 -1.1006
15841TIP3    H268939   2.318   4.354   1.092 -1.0422  0.4886  0.1434
15842TIP3   OH268940   2.387   1.407   3.120  0.4839 -0.4102  0.1837
15842TIP3    H168941   2.329   1.478   3.147  1.9513  1.0043 -0.2820
15842TIP3    H268942   2.341   1.364   3.048  0.4709  1.3808 -0.9166
15843TIP3   OH268943   5.911   0.710   3.093 -0.1942  0.3554  0.0706
15843TIP3    H168944   5.828   0.721   3.138  0.2215  0.9034  0.7139
15843TIP3    H268945   5.891   0.653   3.019 -0.3603 -2.7841  2.4363
15844TIP3   OH268946   6.424   3.309  13.792  0.5124  0.0570 -0.2515
15844TIP3    H168947   6.430   3.239  13.857  0.1646  0.8057  0.5993
15844TIP3    H268948   6.504   3.300  13.740  0.6096 -0.7882  0.0348
15845TIP3   OH268949   3.818   4.526   1.423  0.1735  0.6016 -0.1908
15845TIP3    H168950   3.912   4.513   1.430  0.2942  1.2268 -0.6338
15845TIP3    H268951   3.807   4.579   1.344 -0.5649  0.3125 -0.2870
15846TIP3   OH268952   3.209   0.663  14.847 -0.3610  0.7138 -0.5135
15846TIP3    H168953   3.232   0.573  14.872  2.9310  1.3670 -0.9846
15846TIP3    H268954   3.216   0.713  14.928 -2.4572  0.5395 -0.1962
15847TIP3   OH268955   4.136   3.542  15.766  0.1042  0.0028  0.4046
15847TIP3    H168956   4.215   3.510  15.722 -1.2252  0.2868 -2.2765
15847TIP3    H268957   4.072   3.472  15.754 -1.6308  1.8961 -2.1005
15848TIP3   OH268958   2.399   6.315  13.646  0.7920  0.5245  0.1192
15848TIP3    H168959   2.364   6.357  13.724 -0.6071 -0.5799  0.0915
15848TIP3    H268960   2.457   6.246  13.679 -0.7438 -0.7496  0.2228
15849TIP3   OH268961   3.384   4.469  12.664 -0.0034  0.6402  0.6823
15849TIP3    H168962   3.456   4.428  12.616 -1.8830  1.0532 -2.6068
15849TIP3    H268963   3.404   4.563  12.663  0.2121  0.5980  1.1333
15850TIP3   OH268964   4.447   2.968   2.114 -0.2172  0.1716  0.2221
15850TIP3    H168965   4.356   2.990   2.134  0.0897  0.8060  0.9620
15850TIP3    H268966   4.493   2.980   2.197  0.4242 -0.7917  0.0131
15851TIP3   OH268967   2.914   0.998   1.044  0.1696  0.2548 -0.1759
15851TIP3    H168968   2.825   1.019   1.013  0.8647  0.9629 -1.7590
15851TIP3    H268969   2.936   0.916   1.000  0.3603  0.1550  0.1041
15852TIP3   OH268970   3.230   4.782  16.966  0.0117 -0.3137 -0.0056
15852TIP3    H168971   3.276   4.820  17.041  1.8129  0.6984 -1.5730
15852TIP3    H268972   3.157   4.842  16.950  0.6467  0.4321 -0.1288
15853TIP3   OH268973   6.592   2.018   0.917 -0.2769  0.9103 -0.1075
15853TIP3    H168974   6.669   2.007   0.862  0.1854  1.3839  0.4389
15853TIP3    H268975   6.543   2.090   0.877  0.8273  2.2841  0.9355
15854TIP3   OH268976   5.933   2.282   3.049  0.0362  0.1541  0.0680
15854TIP3    H168977   5.948   2.187   3.049  1.4343  0.3582  1.1608
15854TIP3    H268978   5.931   2.307   2.957  1.9842 -0.5952 -0.1912
15855TIP3   OH268979   0.284   3.254  15.832 -0.0537 -0.2123 -0.9009
15855TIP3    H168980   0.279   3.158  15.826 -0.8359 -0.0981 -2.6081
15855TIP3    H268981   0.373   3.272  15.860  0.1595 -1.4458 -0.7541
15856TIP3   OH268982   1.466   1.063  10.982  0.1578 -0.1264 -0.1454
15856TIP3    H168983   1.435   1.153  10.966 -0.3998  0.0301  1.7142
15856TIP3    H268984   1.561   1.068  10.968 -0.0696  0.3554 -1.6990
15857TIP3   OH268985   5.282   5.630   4.127 -0.0321  0.2725  0.2702
15857TIP3    H168986   5.350   5.660   4.187  3.4006 -0.0540 -3.2295
15857TIP3    H268987   5.242   5.711   4.095 -0.6579  0.5127  1.6470
15858TIP3   OH268988   3.142   1.632   5.297 -0.3415  0.0920  0.1527
15858TIP3    H168989   3.176   1.706   5.348  0.1588 -0.2998  0.3962
15858TIP3    H268990   3.178   1.555   5.341  0.9344 -0.2099 -1.4003
15859TIP3   OH268991   0.547   4.472  11.331  0.3339  0.2121  0.1249
15859TIP3    H168992   0.507   4.388  11.353 -0.3136  0.4214 -0.2605
15859TIP3    H268993   0.573   4.463  11.240  1.0422  0.1268  0.3359
15860TIP3   OH268994   3.045   1.103  10.757 -0.0737  0.4139 -0.1420
15860TIP3    H168995   3.046   1.195  10.785 -0.4105  0.0748  0.9999
15860TIP3    H268996   3.087   1.056  10.829 -2.0730 -0.6262  0.3770
15861TIP3   OH268997   3.489   2.389   2.999 -0.4211 -0.0496  0.6366
15861TIP3    H168998   3.478   2.312   3.055  0.1417  0.1305  0.9956
15861TIP3    H268999   3.550   2.361   2.931 -0.6175 -0.0726  0.4662
15862TIP3   OH269000   0.467   5.095   0.892 -0.0971  0.1529  0.5167
15862TIP3    H169001   0.520   5.173   0.908 -1.8282  1.6950 -1.0186
15862TIP3    H269002   0.500   5.061   0.808  0.7281 -0.8802  1.2329
15863TIP3   OH269003   6.710   1.351  14.663  0.5267  0.1876  0.4845
15863TIP3    H169004   6.692   1.262  14.632  0.9165  0.5158 -0.6848
15863TIP3    H269005   6.691   1.407  14.588  0.0710  1.1155  1.2934
15864TIP3   OH269006   2.076   0.878   4.584 -0.2048  0.1006 -0.3110
15864TIP3    H169007   2.012   0.946   4.607 -2.2479 -1.7478 -0.4125
15864TIP3    H269008   2.123   0.861   4.666 -0.9270  0.3453  0.1611
15865TIP3   OH269009   2.756   4.970   2.037 -0.6877 -0.2166 -0.0088
15865TIP3    H169010   2.788   4.923   2.114  1.0382 -0.7212 -1.0155
15865TIP3    H269011   2.779   4.914   1.963 -1.4033  0.7538 -0.9874
15866TIP3   OH269012   6.020   5.282  14.043  0.1077  0.5178  0.5642
15866TIP3    H169013   6.094   5.344  14.042 -0.7366  1.5330  0.0722
15866TIP3    H269014   5.970   5.307  14.121 -1.5277  2.0261 -0.9156
15867TIP3   OH269015   3.108   2.934  13.725 -0.0842  0.5569 -0.2547
15867TIP3    H169016   3.023   2.979  13.732 -0.1270  0.2289  1.4942
15867TIP3    H269017   3.131   2.912  13.815  1.4236 -0.1962 -0.8098
15868TIP3   OH269018   4.417   0.926  16.373 -0.0162  0.0919  0.0698
15868TIP3    H169019   4.501   0.882  16.359  1.0741  1.6892  1.4361
15868TIP3    H269020   4.401   0.975  16.292  1.9175  2.2381  0.9430
15869TIP3   OH269021   2.915   4.356   5.186 -0.0898 -0.3028 -0.6773
15869TIP3    H169022   2.824   4.366   5.211  0.8126  3.4352  1.5010
15869TIP3    H269023   2.919   4.392   5.097 -0.4656  1.0723 -0.1488
15870TIP3   OH269024   5.014   0.268   3.604  0.7053 -0.5397  0.2623
15870TIP3    H169025   5.053   0.332   3.545  0.4872 -1.5518 -0.9983
15870TIP3    H269026   5.081   0.250   3.669  2.1433 -1.8514 -1.5571
15871TIP3   OH269027   2.737   1.868  12.551  0.4436  0.0083  0.3716
15871TIP3    H169028   2.711   1.784  12.590  0.8853  0.6963  2.1700
15871TIP3    H269029   2.653   1.911  12.532  0.2206 -0.0044  1.2901
15872TIP3   OH269030   4.229   6.027  16.594 -0.4737 -0.0452  0.1150
15872TIP3    H169031   4.153   6.052  16.647 -1.1755 -1.9001  0.0240
15872TIP3    H269032   4.279   5.968  16.650  1.3476  1.7372  0.4586
15873TIP3   OH269033   5.830   2.138  11.021 -0.2188 -0.2016  0.3960
15873TIP3    H169034   5.855   2.046  11.014  1.7040  0.2837  0.6693
15873TIP3    H269035   5.891   2.174  11.085 -1.2015  1.1918  0.5667
15874TIP3   OH269036   4.768   5.463  17.095 -0.1429  0.5562 -0.2196
15874TIP3    H169037   4.811   5.514  17.026  0.4822 -0.5011 -0.6177
15874TIP3    H269038   4.726   5.391  17.048  2.0133 -1.3589  0.6957
15875TIP3   OH269039   3.082   0.488  13.244 -0.4882  0.0547  0.2408
15875TIP3    H169040   3.142   0.474  13.170  2.1888  0.5559  2.2593
15875TIP3    H269041   3.005   0.529  13.204 -1.2455 -4.1332 -3.0354
15876TIP3   OH269042   2.739   3.534   5.189 -0.4148  0.0468 -0.1681
15876TIP3    H169043   2.733   3.478   5.266 -1.2783  0.2685 -0.0746
15876TIP3    H269044   2.667   3.597   5.199  0.7691  1.4196 -0.0721
15877TIP3   OH269045   6.067   6.215  15.804 -0.7101 -0.2870 -0.5066
15877TIP3    H169046   6.059   6.120  15.813  2.3441 -0.4651  0.9178
15877TIP3    H269047   6.058   6.231  15.710 -0.3210 -2.0985 -0.8761
15878TIP3   OH269048   0.315   3.090  16.648  0.2268  0.5614 -0.1722
15878TIP3    H169049   0.361   3.173  16.636  0.8175 -0.0400 -2.3734
15878TIP3    H269050   0.381   3.031  16.682  0.3041  0.5008 -0.4240
15879TIP3   OH269051   2.246   3.768   3.541  0.1249 -0.6572  0.5005
15879TIP3    H169052   2.206   3.809   3.618 -2.2212 -0.4043 -0.8317
15879TIP3    H269053   2.226   3.675   3.551  1.1939 -0.8522  0.9741
15880TIP3   OH269054   6.630   6.626   1.260  0.4339  0.3433 -0.3998
15880TIP3    H169055   6.541   6.659   1.253 -1.0469 -2.5928  2.7142
15880TIP3    H269056   6.622   6.532   1.244  2.8338 -0.0836  0.6528
15881TIP3   OH269057   4.080   3.669  12.080  0.0879  0.1579  0.2470
15881TIP3    H169058   4.138   3.611  12.128  0.3069  1.4670  1.6183
15881TIP3    H269059   4.058   3.621  12.000  1.8912 -0.9241  0.3876
15882TIP3   OH269060   5.806   4.721  12.492  0.1341  0.0291 -0.0830
15882TIP3    H169061   5.711   4.710  12.505  0.0979  0.8836  0.3833
15882TIP3    H269062   5.838   4.632  12.480 -0.5267 -0.4047  1.2059
15883TIP3   OH269063   1.371   0.219  14.755 -0.0172  0.8219  0.0612
15883TIP3    H169064   1.462   0.247  14.746  0.6026 -0.9049  0.8100
15883TIP3    H269065   1.354   0.166  14.677  0.3379 -0.7186  1.0066
15884TIP3   OH269066   1.446   5.425   4.843 -0.2445  0.3757 -0.1128
15884TIP3    H169067   1.527   5.462   4.808 -0.0983  0.0532 -0.1160
15884TIP3    H269068   1.453   5.331   4.825 -1.0613  0.4728 -1.0028
15885TIP3   OH269069   5.501   4.567   3.054 -0.0721  0.4195 -0.9054
15885TIP3    H169070   5.568   4.602   3.113 -2.4754  1.4174  1.3403
15885TIP3    H269071   5.445   4.642   3.034 -1.5371 -0.7535 -1.3263
15886TIP3   OH269072   0.372   5.480   5.988  0.2070 -0.3074 -0.4335
15886TIP3    H169073   0.354   5.392   5.954  1.6113 -0.4643 -0.8110
15886TIP3    H269074   0.463   5.476   6.018 -0.0161  0.7542  0.4140
15887TIP3   OH269075   3.492   5.642  14.670 -0.4386  0.2282  0.3915
15887TIP3    H169076   3.402   5.663  14.647 -0.5636 -0.8494 -0.1646
15887TIP3    H269077   3.485   5.569  14.732  0.0214  0.7303  1.0410
15888TIP3   OH269078   4.520   6.054   0.559 -1.1446  0.0666 -0.7330
15888TIP3    H169079   4.485   6.128   0.509  0.8002  0.7857 -1.0610
15888TIP3    H269080   4.563   6.094   0.634 -0.6730 -0.7818 -0.5507
15889TIP3   OH269081   2.139   6.338   5.829 -0.2332 -0.6095 -0.2553
15889TIP3    H169082   2.209   6.272   5.826 -0.3791 -0.7336 -1.7461
15889TIP3    H269083   2.124   6.360   5.737  0.3886  2.1366  0.2856
15890TIP3   OH269084   2.538   0.052  14.700  0.3359  0.1328 -0.1416
15890TIP3    H169085   2.603   0.084  14.638 -0.9857  1.3447 -0.9131
15890TIP3    H269086   2.582   0.059  14.785  2.3908 -2.1371 -0.9408
15891TIP3   OH269087   1.918   2.249   4.943  0.2678 -0.4524  0.9104
15891TIP3    H169088   1.924   2.267   4.849  1.7296  0.0034  1.0807
15891TIP3    H269089   1.936   2.155   4.950 -1.2127 -0.7743  0.6185
15892TIP3   OH269090   3.702   3.750   6.505 -0.0128  0.6153 -0.1190
15892TIP3    H169091   3.747   3.670   6.478  1.3390  1.0206  0.8822
15892TIP3    H269092   3.627   3.719   6.556  0.2446 -0.0222 -0.1221
15893TIP3   OH269093   0.899   3.596  14.475 -1.1597 -0.1845 -0.3445
15893TIP3    H169094   0.925   3.544  14.399  0.4332 -1.0879  0.7910
15893TIP3    H269095   0.826   3.547  14.514  0.1681 -1.5075  0.5727
15894TIP3   OH269096   4.830   3.734   2.350 -0.6667  0.2058  0.0827
15894TIP3    H169097   4.773   3.669   2.308  0.5822 -0.2129 -0.9911
15894TIP3    H269098   4.813   3.723   2.444 -1.7216 -0.5009 -0.1716
15895TIP3   OH269099   4.323   5.059  17.222  0.1362  0.1360  0.0213
15895TIP3    H169100   4.271   5.023  17.150 -0.0536  1.2474 -0.4168
15895TIP3    H269101   4.408   5.015  17.215 -0.3526 -0.8227  0.0123
15896TIP3   OH269102   3.201   5.485   1.705  0.2816 -0.3745 -0.5960
15896TIP3    H169103   3.114   5.448   1.717  0.5054 -1.0680 -1.0629
15896TIP3    H269104   3.191   5.548   1.635  0.1738 -0.5230 -0.7146
15897TIP3   OH269105   3.218   0.250   2.776  0.4561 -0.1573 -0.3445
15897TIP3    H169106   3.272   0.198   2.715  0.7953 -1.6377  1.1689
15897TIP3    H269107   3.221   0.200   2.858  0.9735  2.4090  1.2331
15898TIP3   OH269108   5.890   6.002   1.674  0.1590  0.1857  0.2156
15898TIP3    H169109   5.923   5.954   1.750  1.7039 -0.5893 -0.9088
15898TIP3    H269110   5.801   6.028   1.698 -0.4574 -2.6306  1.1192
15899TIP3   OH269111   6.196   1.067   1.526 -0.6435 -0.1780  0.1294
15899TIP3    H169112   6.239   1.150   1.505 -0.2765 -0.8617 -1.9269
15899TIP3    H269113   6.263   1.017   1.573 -0.0219 -0.2784 -0.8571
15900TIP3   OH269114   4.353   4.550  15.943 -0.0706 -0.2693 -0.4039
15900TIP3    H169115   4.382   4.461  15.966  0.6282  0.9878  4.1077
15900TIP3    H269116   4.419   4.607  15.983 -2.0547  2.3511 -0.7528
15901TIP3   OH269117   1.373   1.923  11.423  0.1204  0.1454  0.0449
15901TIP3    H169118   1.433   1.891  11.490  0.1574 -0.1152 -0.1135
15901TIP3    H269119   1.291   1.940  11.471  0.3465  0.5972  0.2761
15902TIP3   OH269120   6.311   3.835  16.635 -0.1079 -0.0138  0.1591
15902TIP3    H169121   6.374   3.768  16.661  0.0784  1.0992  2.6135
15902TIP3    H269122   6.337   3.859  16.546  0.8818 -1.9306 -0.0874
15903TIP3   OH269123   6.484   1.688  11.546 -0.6976 -0.1799  0.0038
15903TIP3    H169124   6.554   1.627  11.524 -1.3166 -0.6691 -0.6006
15903TIP3    H269125   6.495   1.703  11.640 -1.6447 -2.6458  0.5506
15904TIP3   OH269126   2.023   2.929   1.193 -0.2367  0.3396 -0.0577
15904TIP3    H169127   2.037   2.988   1.119 -1.0063 -1.7404 -1.9252
15904TIP3    H269128   2.090   2.862   1.183  0.0718  0.4049  1.5235
15905TIP3   OH269129   3.617   5.010  10.989 -0.0783 -0.2393  0.4227
15905TIP3    H169130   3.545   5.065  10.956 -1.2799 -1.9012  0.1995
15905TIP3    H269131   3.640   5.049  11.073 -0.1493  1.2595 -0.2264
15906TIP3   OH269132   5.081   1.182   2.591 -0.0421 -0.4374 -0.8350
15906TIP3    H169133   5.151   1.122   2.564  0.8654 -0.3778  1.2516
15906TIP3    H269134   5.052   1.148   2.676 -1.4222  0.4870 -0.9276
15907TIP3   OH269135   3.190   2.121  12.290  0.3965 -0.1824  0.3266
15907TIP3    H169136   3.144   2.050  12.245 -0.3498  0.9251 -0.7095
15907TIP3    H269137   3.197   2.190  12.224  1.1370  0.7017  1.3071
15908TIP3   OH269138   4.948   3.257  14.377  0.2223  0.3940  0.1220
15908TIP3    H169139   4.903   3.248  14.293 -0.9028  1.2915  0.6063
15908TIP3    H269140   4.995   3.175  14.389 -0.3137 -0.0771 -0.9675
15909TIP3   OH269141   6.763   2.378   3.339 -0.2618  0.2922  0.2155
15909TIP3    H169142   6.759   2.359   3.245  0.5106  2.1430 -0.2246
15909TIP3    H269143   6.850   2.348   3.365 -1.3399 -2.3713  0.8744
15910TIP3   OH269144   3.372   2.032   5.459 -0.2874  0.1738  0.0143
15910TIP3    H169145   3.413   1.948   5.444 -0.9424 -0.3244  0.9491
15910TIP3    H269146   3.435   2.082   5.511  0.4676  0.5844 -1.2916
15911TIP3   OH269147   0.629   6.678   2.067  0.2424  0.3224 -0.4047
15911TIP3    H169148   0.681   6.737   2.011 -0.1640  0.8471 -0.2326
15911TIP3    H269149   0.665   6.692   2.155 -0.3202  0.8364 -0.2531
15912TIP3   OH269150   3.947   2.586   1.801  0.7164 -0.1887 -0.0787
15912TIP3    H169151   3.973   2.535   1.878  1.4215  0.6092  0.2196
15912TIP3    H269152   4.024   2.585   1.745  0.1083 -1.0113 -0.9230
15913TIP3   OH269153   3.848   2.481   6.317 -0.4718 -0.1482 -0.8644
15913TIP3    H169154   3.869   2.398   6.358 -0.3031 -0.2899 -1.2393
15913TIP3    H269155   3.888   2.547   6.373 -0.1561 -0.3468 -0.8561
15914TIP3   OH269156   5.740   0.763   3.583  0.0938 -0.5540  0.7565
15914TIP3    H169157   5.835   0.777   3.593  0.1850 -1.6527  1.5342
15914TIP3    H269158   5.724   0.776   3.490  0.7672  1.0599  0.8399
15915TIP3   OH269159   6.236   4.842   2.222 -0.1591 -0.3728 -0.2941
15915TIP3    H169160   6.223   4.902   2.148  1.2918  0.7789  0.3649
15915TIP3    H269161   6.282   4.767   2.183 -1.6446 -0.9045 -1.0495
15916TIP3   OH269162   1.459   2.167  16.214 -0.3598 -1.0397 -0.1897
15916TIP3    H169163   1.430   2.118  16.291 -0.5024 -1.1134 -0.2887
15916TIP3    H269164   1.386   2.161  16.153 -1.0192  0.6625  0.4169
15917TIP3   OH269165   3.880   2.445   1.552 -0.1039 -0.5496  0.0075
15917TIP3    H169166   3.859   2.377   1.617 -1.5177 -0.3006 -0.1825
15917TIP3    H269167   3.907   2.520   1.605  1.0617 -1.1124  0.2308
15918TIP3   OH269168   1.748   1.190  15.738 -0.2153 -0.0838  0.0350
15918TIP3    H169169   1.788   1.231  15.815 -2.5145 -0.3455  1.4202
15918TIP3    H269170   1.720   1.104  15.769 -1.2162 -0.1663 -1.0880
15919TIP3   OH269171   1.571   3.122  17.237  0.2837  0.0120 -0.4209
15919TIP3    H169172   1.614   3.036  17.235  0.6296  0.1663  0.2141
15919TIP3    H269173   1.491   3.110  17.185  0.0006 -0.8799  0.2021
15920TIP3   OH269174   0.003   4.983   4.676 -0.1304  0.0724  0.1707
15920TIP3    H169175   0.074   5.032   4.716 -0.8884  1.1519  0.2105
15920TIP3    H269176  -0.031   5.041   4.608 -1.0842 -0.3616  0.2686
15921TIP3   OH269177   2.414   5.888  11.431  0.4457  0.1759 -0.0343
15921TIP3    H169178   2.387   5.818  11.371 -0.7068 -0.7944  1.5838
15921TIP3    H269179   2.412   5.967  11.377 -2.6166 -0.3514 -0.8022
15922TIP3   OH269180   2.703   5.334  12.566  0.5960  0.4289  0.3791
15922TIP3    H169181   2.771   5.311  12.503  0.5718  1.9631 -0.2466
15922TIP3    H269182   2.622   5.299  12.529  0.9931 -1.1497  0.9823
15923TIP3   OH269183   6.180   4.504  15.256  0.4624  0.4661  0.5512
15923TIP3    H169184   6.113   4.560  15.294 -0.5228  0.1574 -0.6935
15923TIP3    H269185   6.244   4.492  15.326  0.6188  2.9998  0.9036
15924TIP3   OH269186   1.175   2.951  16.697 -0.6399  0.3059  0.0451
15924TIP3    H169187   1.123   3.017  16.651 -2.4773  0.1379  1.7923
15924TIP3    H269188   1.255   2.997  16.723 -0.6493  1.0507 -1.2326
15925TIP3   OH269189   2.530   5.283   2.496  0.3902  0.2864  0.4832
15925TIP3    H169190   2.548   5.234   2.416  0.3199  0.6803  0.2240
15925TIP3    H269191   2.435   5.288   2.500  0.3684 -0.4520  1.0347
15926TIP3   OH269192   3.348   1.142   0.836 -0.3061  1.4069 -0.0313
15926TIP3    H169193   3.348   1.149   0.932  2.5224  0.2836  0.0900
15926TIP3    H269194   3.389   1.057   0.818  0.4472  2.2153 -2.2815
15927TIP3   OH269195   1.125   3.804  13.509 -0.4851  0.3050 -0.5669
15927TIP3    H169196   1.072   3.774  13.435 -1.4680 -2.4668  1.1930
15927TIP3    H269197   1.083   3.766  13.586  1.8984  1.1670  1.2135
15928TIP3   OH269198   2.440   3.017   0.586 -0.2965 -0.4839  0.1715
15928TIP3    H169199   2.421   3.074   0.512  1.8781  0.0080 -0.0457
15928TIP3    H269200   2.423   2.929   0.553  0.5769 -0.2661 -0.9122
15929TIP3   OH269201   0.238   2.479   5.814 -0.1278  0.5431 -0.3756
15929TIP3    H169202   0.174   2.437   5.871 -0.5225 -1.4104 -2.2116
15929TIP3    H269203   0.185   2.528   5.750  0.2605  0.6400 -0.6255
15930TIP3   OH269204   0.304   4.947   1.056 -0.0801 -0.0123  0.0956
15930TIP3    H169205   0.231   5.008   1.063  1.3209  1.6943  0.0173
15930TIP3    H269206   0.345   4.968   0.973  0.5546 -0.9003  0.1789
15931TIP3   OH269207   5.482   0.765  14.805  0.0229  0.1570 -0.3663
15931TIP3    H169208   5.532   0.840  14.835  2.0227 -1.3364  0.1502
15931TIP3    H269209   5.393   0.782  14.833  0.7764  1.5344  1.2421
15932TIP3   OH269210   5.725   4.163  13.992  0.2050  0.4363 -0.0051
15932TIP3    H169211   5.649   4.147  13.936 -0.1820  0.4360  0.5139
15932TIP3    H269212   5.797   4.176  13.931 -0.0147 -0.5600 -0.4887
15933TIP3   OH269213   2.058   4.283  14.342 -0.0041  0.3866  0.0516
15933TIP3    H169214   2.099   4.197  14.356 -0.8730 -0.2578 -1.2687
15933TIP3    H269215   1.999   4.293  14.417  0.9520  0.3570  0.8224
15934TIP3   OH269216   1.075   4.669  14.184  0.1017  0.4531  0.9831
15934TIP3    H169217   1.074   4.578  14.212 -0.6824  0.5465  1.2747
15934TIP3    H269218   1.095   4.665  14.090 -0.6668 -0.0693  0.8375
15935TIP3   OH269219   0.476   6.352   1.680  0.0937 -0.5728  0.5024
15935TIP3    H169220   0.520   6.293   1.619 -0.2314 -0.0947 -0.1977
15935TIP3    H269221   0.546   6.411   1.709 -0.0313  0.0852 -0.4907
15936TIP3   OH269222   4.302   1.388  11.866 -0.0705 -0.4174 -0.2848
15936TIP3    H169223   4.342   1.430  11.789 -1.0036 -0.1784 -0.6553
15936TIP3    H269224   4.317   1.295  11.853 -1.8794 -0.5398 -1.7577
15937TIP3   OH269225   0.600   3.163   4.115 -0.3019  0.5226  0.6055
15937TIP3    H169226   0.568   3.204   4.195 -2.6528 -0.2929  0.1382
15937TIP3    H269227   0.672   3.107   4.143  0.2534  1.8437  1.8337
15938TIP3   OH269228   5.502   6.701  15.470  0.4956  0.0327 -0.3736
15938TIP3    H169229   5.456   6.618  15.484  0.6047 -0.0127 -0.2927
15938TIP3    H269230   5.432   6.765  15.455  0.1204  0.9473  4.4271
15939TIP3   OH269231   5.214   3.267   5.373  0.0321  0.0477 -0.3863
15939TIP3    H169232   5.121   3.280   5.394  0.3728  1.2648  0.4480
15939TIP3    H269233   5.214   3.221   5.289 -1.3332 -0.8858  0.1054
15940TIP3   OH269234   5.188   3.120   5.648  0.5421 -0.1512  0.0235
15940TIP3    H169235   5.211   3.169   5.727  0.4270  0.6456 -0.4246
15940TIP3    H269236   5.183   3.187   5.580  2.4725 -1.0834 -1.0573
15941TIP3   OH269237   2.691   0.289   2.212  0.4361  0.8710  0.0940
15941TIP3    H169238   2.785   0.306   2.220  0.4495  1.0421 -0.3780
15941TIP3    H269239   2.651   0.344   2.278  0.6293  1.2482 -0.0993
15942TIP3   OH269240   0.306   0.862   3.708  0.2990 -0.1724  0.4315
15942TIP3    H169241   0.348   0.926   3.767 -0.3170  2.1885 -1.5979
15942TIP3    H269242   0.217   0.853   3.741 -0.2235  1.5955 -0.4098
15943TIP3   OH269243   2.385   2.863  15.191 -0.0460 -0.1000  0.3566
15943TIP3    H169244   2.300   2.900  15.166 -0.6249 -1.1646  0.7280
15943TIP3    H269245   2.385   2.865  15.286 -0.8772 -2.7593  0.4545
15944TIP3   OH269246   4.244   1.211  13.297 -0.1065 -0.1010 -0.4140
15944TIP3    H169247   4.156   1.235  13.328 -0.0115 -0.2415 -0.0403
15944TIP3    H269248   4.235   1.121  13.265  0.6069 -1.2555  2.4994
15945TIP3   OH269249   6.168   5.995   4.164 -0.1250 -0.4821 -0.1848
15945TIP3    H169250   6.253   5.992   4.207  0.6578 -0.0814 -1.6546
15945TIP3    H269251   6.187   5.971   4.073 -1.3693  0.8953 -0.8197
15946TIP3   OH269252   5.430   5.060   4.235  0.5284  0.0277 -0.1445
15946TIP3    H169253   5.512   5.096   4.201 -0.1985  2.3430  0.4742
15946TIP3    H269254   5.395   5.008   4.162  0.5394  2.3500 -1.8479
15947TIP3   OH269255   6.705   6.145   6.239 -0.3285  0.3508  0.1019
15947TIP3    H169256   6.727   6.068   6.187  0.0491 -0.0535  0.8444
15947TIP3    H269257   6.787   6.196   6.243 -0.4963  0.6410 -0.1354
15948TIP3   OH269258   5.378   3.619  12.606 -0.1883  0.7138  0.6187
15948TIP3    H169259   5.449   3.657  12.555  0.3528 -0.3305  0.5656
15948TIP3    H269260   5.422   3.555  12.663 -1.0915  0.0443  0.5681
15949TIP3   OH269261   1.110   1.238  17.126 -0.6638 -0.1309  0.3378
15949TIP3    H169262   1.130   1.175  17.056  0.5702  1.7480 -1.0690
15949TIP3    H269263   1.136   1.193  17.206  0.5814 -1.2870 -0.6743
15950TIP3   OH269264   4.039   2.288   0.086  0.2250  0.1388 -0.2123
15950TIP3    H169265   3.998   2.241   0.014  0.7145 -1.3729  0.4840
15950TIP3    H269266   4.107   2.342   0.045 -0.2806  0.1799 -1.0009
15951TIP3   OH269267   2.290   6.179   0.959 -0.1487 -0.4393  0.9162
15951TIP3    H169268   2.377   6.182   0.920 -0.7178 -0.4758 -0.4056
15951TIP3    H269269   2.249   6.262   0.933 -0.0946  0.1000  2.5300
15952TIP3   OH269270   4.012   3.791   2.787  0.5227  0.8936  0.2226
15952TIP3    H169271   4.001   3.732   2.861  1.8980  0.0133 -0.2575
15952TIP3    H269272   3.924   3.800   2.749  0.0732  0.2583  1.1243
15953TIP3   OH269273   0.265   4.092  12.376 -0.2176 -0.1595 -0.3804
15953TIP3    H169274   0.215   4.042  12.440 -0.6207  1.2141  0.3913
15953TIP3    H269275   0.352   4.051  12.377 -1.1407 -2.2320 -1.3622
15954TIP3   OH269276   1.292   5.591   4.134 -0.2524  0.4233  0.1593
15954TIP3    H169277   1.264   5.515   4.184  1.9910 -0.1685  0.5813
15954TIP3    H269278   1.234   5.593   4.058 -0.0980 -1.9557 -0.0534
15955TIP3   OH269279   3.453   3.943   3.981  0.0864 -0.6109  0.1316
15955TIP3    H169280   3.365   3.969   4.007  0.1740 -0.6959  0.5096
15955TIP3    H269281   3.465   3.855   4.016  1.1590  0.2743  2.0682
15956TIP3   OH269282   5.451   5.662  15.504  0.1011 -0.3950  0.0829
15956TIP3    H169283   5.432   5.751  15.474  3.5715  1.3140  2.6617
15956TIP3    H269284   5.525   5.634  15.451  0.5781 -0.7953  0.9523
15957TIP3   OH269285   5.257   3.826  12.786 -0.4700  0.4539  0.4534
15957TIP3    H169286   5.278   3.755  12.724  0.2141  0.3098  0.8440
15957TIP3    H269287   5.178   3.866  12.750  1.3467  2.0205 -1.9121
15958TIP3   OH269288   4.251   1.866   1.916 -0.3613  0.1770  0.2123
15958TIP3    H169289   4.163   1.884   1.949  0.7656  3.6191  1.5459
15958TIP3    H269290   4.247   1.889   1.823 -0.3267  2.4725  0.7584
15959TIP3   OH269291   3.042   1.817  13.240 -0.1572  0.0010  0.4086
15959TIP3    H169292   3.105   1.746  13.255  1.6498  1.3468 -0.6582
15959TIP3    H269293   3.027   1.815  13.146 -2.6112 -1.0127  0.7775
15960TIP3   OH269294   5.568   4.533  15.796  0.1547 -0.5588 -0.0272
15960TIP3    H169295   5.604   4.583  15.723 -1.6065  0.7999 -0.0233
15960TIP3    H269296   5.563   4.443  15.764  1.7159 -0.4287 -0.6798
15961TIP3   OH269297   5.892   6.071   1.235  0.2876 -0.2783 -0.3859
15961TIP3    H169298   5.805   6.036   1.253  0.5334  0.1980  1.8586
15961TIP3    H269299   5.933   6.079   1.321  1.9152  1.1687 -1.2621
15962TIP3   OH269300   6.342   1.745  15.933  0.0780 -0.4047 -0.4059
15962TIP3    H169301   6.360   1.742  16.027  2.5644  1.1450 -0.7812
15962TIP3    H269302   6.267   1.805  15.926  1.7411  1.8529  0.3982
15963TIP3   OH269303   5.148   6.343  15.858 -0.0351  0.0577  0.1842
15963TIP3    H169304   5.149   6.332  15.953  0.4834  0.7535  0.2619
15963TIP3    H269305   5.060   6.316  15.831  0.2618 -1.4361  0.7049
15964TIP3   OH269306   0.924   4.033  13.231  0.2419 -0.0292 -0.0079
15964TIP3    H169307   0.883   4.111  13.269  1.6183 -0.0077  1.4622
15964TIP3    H269308   1.013   4.062  13.208  0.2231 -0.7253 -0.9817
15965TIP3   OH269309   6.050   4.107  17.139 -0.4200 -0.1047  0.1750
15965TIP3    H169310   5.974   4.162  17.156 -1.2645 -0.1777 -3.0153
15965TIP3    H269311   6.103   4.158  17.077 -0.9109 -2.5530 -2.3433
15966TIP3   OH269312   3.422   0.263  15.838  0.2468 -0.0670  0.3563
15966TIP3    H169313   3.386   0.179  15.809  0.0410 -0.0767  0.6358
15966TIP3    H269314   3.348   0.307  15.881 -0.3041  1.2604 -1.8817
15967TIP3   OH269315   6.570   0.686   0.349  0.4348 -0.0203  0.4844
15967TIP3    H169316   6.492   0.637   0.374  0.1561  0.2157  0.0740
15967TIP3    H269317   6.576   0.675   0.254  0.6056  0.4038  0.4463
15968TIP3   OH269318   5.125   5.163  13.795 -0.8175 -0.7413  0.7121
15968TIP3    H169319   5.135   5.111  13.715  1.1071 -0.6547  0.8577
15968TIP3    H269320   5.125   5.099  13.866  0.0282 -0.6620  0.7917
15969TIP3   OH269321   1.027   0.036   3.464 -0.6278 -0.0062 -0.6733
15969TIP3    H169322   1.098   0.045   3.401 -0.3103 -0.1357 -0.3354
15969TIP3    H269323   0.964   0.104   3.438  0.5196  1.4416  0.2046
15970TIP3   OH269324   0.253   1.741   4.653 -0.0738 -0.2624  0.8179
15970TIP3    H169325   0.315   1.677   4.689  0.6639 -0.7211 -1.1782
15970TIP3    H269326   0.255   1.725   4.559 -1.7475  1.0732  0.5402
15971TIP3   OH269327   4.270   3.783   1.859  0.4038 -0.4976  0.1239
15971TIP3    H169328   4.340   3.793   1.794 -0.2562  0.5431 -0.4486
15971TIP3    H269329   4.195   3.753   1.807  0.6131 -2.3360  0.8475
15972TIP3   OH269330   4.938   2.095  10.807 -0.4471 -0.0174 -0.5505
15972TIP3    H169331   4.906   2.141  10.730  2.1847  0.1770 -1.5985
15972TIP3    H269332   4.925   2.156  10.879  0.3694  1.2531 -1.4526
15973TIP3   OH269333   0.380   1.674  13.381  0.6735 -0.1497 -0.0425
15973TIP3    H169334   0.310   1.711  13.435 -0.8830  2.0838 -3.3838
15973TIP3    H269335   0.461   1.698  13.427 -0.6421 -0.2068  2.3672
15974TIP3   OH269336   3.476   2.870   3.591 -0.7142 -0.2684  0.4831
15974TIP3    H169337   3.422   2.804   3.547 -0.0419 -1.0335  0.7922
15974TIP3    H269338   3.564   2.857   3.555 -0.3963 -0.1311  1.1910
15975TIP3   OH269339   3.462   2.718  16.791 -0.2315  0.2872 -0.5026
15975TIP3    H169340   3.446   2.642  16.847 -1.1085  0.0266 -1.1035
15975TIP3    H269341   3.452   2.685  16.702 -0.9700  1.1813 -0.7578
15976TIP3   OH269342   3.673   4.751   1.632  0.1087 -0.1144  0.8420
15976TIP3    H169343   3.610   4.680   1.632  0.5299 -0.4880  1.3224
15976TIP3    H269344   3.621   4.829   1.611  0.0712 -0.9540 -2.6112
15977TIP3   OH269345   0.557   1.290  14.656 -0.0562 -0.2898  0.3803
15977TIP3    H169346   0.462   1.302  14.658  0.0717  1.0767 -0.7821
15977TIP3    H269347   0.586   1.340  14.580  1.6763 -0.0860  1.1396
15978TIP3   OH269348   5.582   5.057   2.680  0.4526 -0.0032  0.3500
15978TIP3    H169349   5.537   5.140   2.661 -0.1263 -0.8067 -1.9118
15978TIP3    H269350   5.650   5.081   2.744  0.9417  2.4113 -1.0088
15979TIP3   OH269351   4.377   4.484  14.081  0.3895 -0.5061 -0.5235
15979TIP3    H169352   4.463   4.509  14.046  0.2182  2.9542  1.2991
15979TIP3    H269353   4.318   4.552  14.049 -0.8254 -0.4177  1.8117
15980TIP3   OH269354   2.783   3.086  16.600 -0.4895  0.0922 -0.3125
15980TIP3    H169355   2.797   3.072  16.506 -1.0721 -0.2850 -0.3497
15980TIP3    H269356   2.848   3.030  16.642 -1.9968 -1.8534 -0.4760
15981TIP3   OH269357   0.823   4.948  10.492  0.6305 -0.3302 -0.1354
15981TIP3    H169358   0.807   4.981  10.581  0.9476  1.3182 -0.6686
15981TIP3    H269359   0.786   5.015  10.435 -0.3972 -1.8322 -1.2558
15982TIP3   OH269360   3.031   0.162   3.392 -0.1524  0.1620  0.1274
15982TIP3    H169361   2.941   0.168   3.359 -0.2034 -0.0538  0.2238
15982TIP3    H269362   3.062   0.076   3.361  0.3926  0.6904 -0.8387
15983TIP3   OH269363   0.044   3.370   5.855  0.1705  0.1851  0.4489
15983TIP3    H169364   0.117   3.433   5.857 -2.4590  3.4092 -0.6458
15983TIP3    H269365   0.050   3.329   5.769 -0.0863  1.4532 -0.1887
15984TIP3   OH269366   3.021   4.802  11.034  0.2496 -0.0087 -0.0745
15984TIP3    H169367   2.932   4.783  11.006  0.2657  0.5887 -0.5436
15984TIP3    H269368   3.059   4.717  11.054 -0.7239 -0.1871  1.0418
15985TIP3   OH269369   0.419   1.035   3.070  0.5304  0.3800  0.0683
15985TIP3    H169370   0.402   1.060   2.979 -0.2599  0.4919  0.2467
15985TIP3    H269371   0.343   0.982   3.095  1.2602 -0.5641  0.3191
15986TIP3   OH269372   4.755   4.272   3.220  0.4198  0.1329 -0.4043
15986TIP3    H169373   4.677   4.258   3.166  0.6461  0.5770 -0.8511
15986TIP3    H269374   4.733   4.347   3.274  0.0499 -0.5448  0.4012
15987TIP3   OH269375   4.418   3.284   2.492 -0.4604 -0.0811  0.6917
15987TIP3    H169376   4.380   3.254   2.575 -0.8337  0.4283  0.7055
15987TIP3    H269377   4.342   3.296   2.434 -0.0113 -3.1135 -0.6077
15988TIP3   OH269378   2.846   3.373  15.163  0.5908  0.3166 -0.2784
15988TIP3    H169379   2.776   3.400  15.221 -0.1367  1.1854 -1.5351
15988TIP3    H269380   2.804   3.313  15.101  0.9596  0.8221 -1.0229
15989TIP3   OH269381   1.014   4.425   3.125 -0.6605 -0.3303  0.2959
15989TIP3    H169382   1.031   4.435   3.218 -2.0079 -2.5526  0.8249
15989TIP3    H269383   1.026   4.331   3.108  1.6832  0.3569 -2.2255
15990TIP3   OH269384   1.960   4.588   1.130 -0.4060 -0.1498 -0.3212
15990TIP3    H169385   1.889   4.641   1.096 -0.3048  0.2224  0.0463
15990TIP3    H269386   1.965   4.513   1.070  0.3409  0.9311 -1.6369
15991TIP3   OH269387   2.467   4.915  17.026  0.2710 -0.0163 -0.0375
15991TIP3    H169388   2.385   4.917  17.074  0.2293 -1.8674 -0.0063
15991TIP3    H269389   2.442   4.935  16.935 -0.3809 -1.6525 -0.2327
15992TIP3   OH269390   4.502   0.636  14.938 -0.4009  0.0465  0.0790
15992TIP3    H169391   4.580   0.691  14.931  0.3394 -1.0461 -0.4785
15992TIP3    H269392   4.519   0.580  15.014 -1.5308  1.1600  1.1741
15993TIP3   OH269393   6.030   5.117  13.513 -0.0217  0.2213 -0.1774
15993TIP3    H169394   6.083   5.173  13.457  1.1747  0.6152  1.3251
15993TIP3    H269395   6.012   5.170  13.591  0.3680 -1.1569  0.8708
15994TIP3   OH269396   6.531   2.054  15.444 -0.0303 -0.5431  0.3971
15994TIP3    H169397   6.540   1.967  15.406 -0.0332 -0.8181  1.0221
15994TIP3    H269398   6.521   2.112  15.369 -1.9429 -1.3052  0.0492
15995TIP3   OH269399   4.595   6.208   3.268  0.6302  0.0958 -0.5042
15995TIP3    H169400   4.667   6.214   3.331 -2.0673  1.3526  2.6041
15995TIP3    H269401   4.557   6.122   3.284  0.1065  0.3081 -0.5964
15996TIP3   OH269402   2.627   3.456  15.290 -0.2380 -0.2682 -0.0184
15996TIP3    H169403   2.582   3.372  15.288 -0.1064 -0.3789  1.3392
15996TIP3    H269404   2.560   3.521  15.268 -0.6907 -0.5837  0.4398
15997TIP3   OH269405   0.819   5.965   0.546  0.3737 -0.8241  0.4651
15997TIP3    H169406   0.856   6.027   0.608  1.8252 -4.0733  2.9595
15997TIP3    H269407   0.742   5.929   0.590  0.0769 -1.4828 -0.5629
15998TIP3   OH269408   1.068   0.055  11.126 -0.3188 -0.1120 -0.0747
15998TIP3    H169409   1.032   0.016  11.046  1.8774 -1.3073 -0.5341
15998TIP3    H269410   1.101   0.140  11.099 -0.9674  0.1376 -0.0898
15999TIP3   OH269411   6.583   5.708  11.604 -0.0611 -0.2931 -0.4935
15999TIP3    H169412   6.622   5.767  11.669 -0.5518 -0.5599  0.0446
15999TIP3    H269413   6.520   5.656  11.654  1.4814 -2.3631 -0.6424
16000TIP3   OH269414   2.485   3.723   0.516  0.3138  0.7294 -0.3186
16000TIP3    H169415   2.569   3.680   0.531  0.8520  1.0330 -2.2359
16000TIP3    H269416   2.469   3.774   0.595  0.6352 -1.4057  1.1429
16001TIP3   OH269417   5.293   2.395  11.790 -0.1171  0.2042  0.1458
16001TIP3    H169418   5.233   2.345  11.845  0.4522  1.1812  1.7171
16001TIP3    H269419   5.331   2.330  11.731 -2.3017 -0.5161 -0.5289
16002TIP3   OH269420   5.710   6.338   4.165 -0.3115 -0.4096 -0.2813
16002TIP3    H169421   5.672   6.401   4.104  1.9018  0.1027 -1.1997
16002TIP3    H269422   5.710   6.383   4.250  1.7229  1.0747 -1.0292
16003TIP3   OH269423   0.274   5.219  11.654  0.1930  0.2218  0.0008
16003TIP3    H169424   0.334   5.292  11.640  1.9916 -1.3905 -0.9228
16003TIP3    H269425   0.320   5.143  11.618 -1.5054 -1.4304  1.2259
16004TIP3   OH269426   5.449   0.331   2.802  0.4102 -0.8423 -0.0183
16004TIP3    H169427   5.510   0.321   2.876 -0.3385 -2.2777  0.4207
16004TIP3    H269428   5.454   0.424   2.780  4.6522 -1.3234 -1.6359
16005TIP3   OH269429   2.093   2.158  12.528  0.5720  0.0820  0.0615
16005TIP3    H169430   2.168   2.099  12.542 -1.1681 -2.2571 -0.1776
16005TIP3    H269431   2.111   2.200  12.445  1.6077 -0.4886 -0.0152
16006TIP3   OH269432   1.432   5.680   4.979 -0.0474 -0.1296  0.5321
16006TIP3    H169433   1.446   5.721   4.893 -0.3493  0.1915  0.6358
16006TIP3    H269434   1.434   5.586   4.961 -0.4030 -0.0628  0.1212
16007TIP3   OH269435   2.896   3.295  12.812  0.3726  0.1001 -0.0565
16007TIP3    H169436   2.906   3.331  12.900  2.5085 -1.4204  0.3710
16007TIP3    H269437   2.809   3.256  12.811  1.2200 -2.0135  2.2305
16008TIP3   OH269438   1.802   1.776  11.287  0.3626 -0.0139 -0.0386
16008TIP3    H169439   1.894   1.797  11.268  0.8678 -0.5240  1.7830
16008TIP3    H269440   1.755   1.802  11.208  2.0568  0.3994 -0.9348
16009TIP3   OH269441   2.986   2.034  16.090 -0.6799  0.4444  0.1031
16009TIP3    H169442   3.066   2.005  16.134 -2.5763  0.6147  3.9106
16009TIP3    H269443   2.967   2.119  16.129 -2.0021  0.9951 -1.7176
16010TIP3   OH269444   0.896   1.556  11.813  0.1085 -0.4968 -0.1568
16010TIP3    H169445   0.964   1.601  11.864  0.2812  1.0068 -1.6740
16010TIP3    H269446   0.815   1.578  11.857  0.5488 -1.9854  1.4450
16011TIP3   OH269447   6.173   4.803  15.123 -0.4956 -0.5390  0.4475
16011TIP3    H169448   6.103   4.766  15.177 -0.2485  0.9249  1.8208
16011TIP3    H269449   6.245   4.818  15.184 -0.0197  0.6513 -0.3747
16012TIP3   OH269450   6.196   3.599   2.853 -0.2891  0.1347 -0.3479
16012TIP3    H169451   6.256   3.673   2.858  0.4314 -0.5110  0.9683
16012TIP3    H269452   6.119   3.628   2.902  0.2683 -0.2081  0.7697
16013TIP3   OH269453   0.298   2.850   0.180 -0.1238  0.4598  0.5082
16013TIP3    H169454   0.203   2.859   0.177 -0.3853 -1.8709  1.4478
16013TIP3    H269455   0.329   2.896   0.102 -2.2468 -1.5801 -1.5872
16014TIP3   OH269456   2.305   4.681  14.215 -0.0385  0.4848  0.4735
16014TIP3    H169457   2.301   4.716  14.126 -0.1293  0.0220  0.2916
16014TIP3    H269458   2.354   4.599  14.206  1.3380  1.2301  1.1055
16015TIP3   OH269459   1.834   5.777  12.430 -0.0189 -0.3741 -0.4627
16015TIP3    H169460   1.922   5.754  12.458 -0.5636 -0.5437  1.1434
16015TIP3    H269461   1.806   5.844  12.493 -0.3723  0.9627 -2.0147
16016TIP3   OH269462   5.418   0.113   5.817  0.2101  0.4281  0.0902
16016TIP3    H169463   5.367   0.034   5.834 -1.7195  1.2694 -1.6581
16016TIP3    H269464   5.509   0.082   5.810 -0.4017 -1.4779  0.3429
16017TIP3   OH269465   5.028   1.432  17.164  0.2209 -0.3468  0.6795
16017TIP3    H169466   5.018   1.410  17.256 -1.1131 -0.9204  0.4159
16017TIP3    H269467   5.075   1.357  17.126 -0.0127 -0.5171  0.7275
16018TIP3   OH269468   1.102   4.820  12.538  0.4019 -0.2240 -0.1241
16018TIP3    H169469   1.105   4.740  12.590  0.0475 -0.0252  0.2028
16018TIP3    H269470   1.069   4.792  12.452  0.2586 -0.4266 -0.0021
16019TIP3   OH269471   3.869   1.620  11.545 -0.1052  0.2239  0.6846
16019TIP3    H169472   3.891   1.540  11.498  0.4466  0.7654 -0.0039
16019TIP3    H269473   3.786   1.649  11.506  1.0401  1.4116 -0.9597
16020TIP3   OH269474   1.872   3.870  14.765  0.5470 -0.3870 -1.0097
16020TIP3    H169475   1.917   3.866  14.681  3.2550 -1.4849  0.4616
16020TIP3    H269476   1.855   3.779  14.788  0.8499 -0.1595  0.1637
16021TIP3   OH269477   2.663   2.992  15.705  0.6358  0.0599  0.2021
16021TIP3    H169478   2.613   2.922  15.664  2.1356 -1.6775  1.2941
16021TIP3    H269479   2.627   2.999  15.793  1.0281  0.1005  0.3614
16022TIP3   OH269480   3.923   3.388  13.688 -0.1089 -0.0615 -0.3873
16022TIP3    H169481   3.994   3.450  13.668 -0.6835  0.2913 -1.3721
16022TIP3    H269482   3.843   3.435  13.666 -0.6204 -0.6953  0.1001
16023TIP3   OH269483   0.550   4.074   6.194  0.2523 -0.1129  0.0560
16023TIP3    H169484   0.470   4.091   6.145  0.4217 -1.0813 -0.5540
16023TIP3    H269485   0.587   4.161   6.209 -0.8599  0.3395  0.2681
16024TIP3   OH269486   2.178   1.220  13.485 -0.3380  0.5028  0.1013
16024TIP3    H169487   2.192   1.314  13.499  1.5333  0.5365 -1.8351
16024TIP3    H269488   2.155   1.213  13.393 -0.6900 -0.9379  0.2923
16025TIP3   OH269489   2.968   0.151   1.628 -0.4764 -0.4016  0.0371
16025TIP3    H169490   3.049   0.100   1.624 -2.3173 -3.3492 -0.9865
16025TIP3    H269491   2.965   0.185   1.717  2.9256  1.5717 -0.5237
16026TIP3   OH269492   1.528   3.597  17.005 -0.1528 -0.2737  0.5329
16026TIP3    H169493   1.455   3.553  17.048  0.7387 -1.1451  1.1803
16026TIP3    H269494   1.500   3.608  16.914 -0.3800 -2.2229  0.3490
16027TIP3   OH269495   2.328   1.749  16.045  0.6591  0.3025 -0.4443
16027TIP3    H169496   2.242   1.729  16.083  1.4803 -2.1624  0.2267
16027TIP3    H269497   2.369   1.808  16.109 -0.7127  1.9259 -1.0284
16028TIP3   OH269498   0.637   4.550   0.730 -0.9103  0.2484  0.8938
16028TIP3    H169499   0.657   4.469   0.684 -1.7527 -0.1520  1.2338
16028TIP3    H269500   0.558   4.531   0.780  0.6015  0.3295  3.4268
16029TIP3   OH269501   3.382   2.432  15.671 -0.5014  0.3524  0.2421
16029TIP3    H169502   3.415   2.393  15.590 -1.1627 -1.4581  0.8061
16029TIP3    H269503   3.322   2.501  15.642 -0.6250 -0.1807 -0.8218
16030TIP3   OH269504   6.405   6.200   5.667  0.1603 -0.2318  0.0204
16030TIP3    H169505   6.377   6.245   5.746  0.0319  0.5608 -0.4683
16030TIP3    H269506   6.492   6.166   5.688 -0.2412 -0.7803  0.7947
16031TIP3   OH269507   5.359   4.086  12.212 -0.1492 -0.3046  0.1369
16031TIP3    H169508   5.447   4.053  12.193  0.3541  1.5949 -0.9349
16031TIP3    H269509   5.369   4.141  12.289 -0.5518 -0.7701  0.5226
16032TIP3   OH269510   6.125   4.950  10.874  0.3686  0.5372  0.3961
16032TIP3    H169511   6.095   4.874  10.824 -3.2113  0.9341  1.7705
16032TIP3    H269512   6.211   4.925  10.907  1.0790 -1.2320 -2.6831
16033TIP3   OH269513   4.835   2.880   3.539  0.5512  0.2148 -0.5102
16033TIP3    H169514   4.930   2.886   3.553  0.6600 -1.9150 -0.2662
16033TIP3    H269515   4.804   2.971   3.549  2.1998  0.5679  1.9571
16034TIP3   OH269516   2.773   4.172  12.356  0.3517 -0.3688 -0.6928
16034TIP3    H169517   2.813   4.098  12.402 -0.8780 -1.1675 -0.8823
16034TIP3    H269518   2.779   4.245  12.418  1.5244 -0.6365 -0.4855
16035TIP3   OH269519   6.043   4.407  15.044 -0.4852 -0.1012 -0.5654
16035TIP3    H169520   6.107   4.449  15.101 -1.5824  0.1536  0.5259
16035TIP3    H269521   6.068   4.315  15.043 -1.0728 -0.3149  1.2520
16036TIP3   OH269522   5.979   0.467  16.576 -0.0354  0.0607  0.4015
16036TIP3    H169523   6.030   0.526  16.519  0.7687 -0.1238  0.9305
16036TIP3    H269524   5.889   0.501  16.571 -0.0842 -0.2686 -1.4024
16037TIP3   OH269525   3.095   6.099  17.164 -0.4959 -0.2810  0.4674
16037TIP3    H169526   3.083   6.007  17.189  0.0635 -0.7459 -0.9333
16037TIP3    H269527   3.006   6.134  17.159 -0.7403 -0.8866  0.4891
16038TIP3   OH269528   2.472   5.725  17.234 -0.5135  0.4890  0.3242
16038TIP3    H169529   2.440   5.642  17.271  0.7954  0.5356  1.5900
16038TIP3    H269530   2.417   5.792  17.274 -2.0839  0.2262 -1.2739
16039TIP3   OH269531   0.231   6.166  16.306  0.5075  0.2448 -0.2037
16039TIP3    H169532   0.320   6.170  16.271  0.7478 -0.7753  0.2961
16039TIP3    H269533   0.219   6.250  16.350  2.0480 -0.5018  1.7004
16040TIP3   OH269534   1.081   3.171   0.605 -0.4035  0.3900 -0.2717
16040TIP3    H169535   1.106   3.092   0.654 -1.1913  2.1091  3.0433
16040TIP3    H269536   0.988   3.183   0.625 -0.5511  1.5616 -1.6087
16041TIP3   OH269537   0.936   6.017  14.090 -0.7612 -0.3198  0.5929
16041TIP3    H169538   0.992   5.958  14.142 -0.3535 -0.4072  0.0589
16041TIP3    H269539   0.946   5.986  14.000 -1.8896 -0.5034  0.5278
16042TIP3   OH269540   4.724   3.561  16.101 -0.4373 -0.1296  0.1145
16042TIP3    H169541   4.652   3.615  16.132  0.0893  0.4606  0.3135
16042TIP3    H269542   4.803   3.602  16.137 -0.1436 -1.9826  1.7039
16043TIP3   OH269543   1.520   1.921   0.564  0.1036  0.6855  0.1948
16043TIP3    H169544   1.613   1.941   0.563  0.1799  0.3553  0.4657
16043TIP3    H269545   1.506   1.864   0.489 -0.0603  1.5181 -0.4088
16044TIP3   OH269546   4.596   5.123  12.504  0.6173 -0.5547 -0.8108
16044TIP3    H169547   4.530   5.176  12.549  0.0483 -0.8247 -1.3307
16044TIP3    H269548   4.640   5.075  12.575  0.2448 -0.3923 -0.4677
16045TIP3   OH269549   2.878   2.495   4.825 -0.5763 -0.2676 -0.0084
16045TIP3    H169550   2.857   2.461   4.912  0.4051 -0.3302  0.1996
16045TIP3    H269551   2.958   2.546   4.837 -1.6228  1.5262 -0.4495
16046TIP3   OH269552   5.149   4.985   2.481 -0.0019  0.2925 -0.0541
16046TIP3    H169553   5.143   5.080   2.482 -0.7309  0.2474 -0.2130
16046TIP3    H269554   5.068   4.955   2.439 -0.9279 -0.5029  2.2111
16047TIP3   OH269555   6.604   4.987  13.585 -0.0778  0.2063 -0.0111
16047TIP3    H169556   6.531   5.015  13.530  0.1875 -1.3788 -1.2042
16047TIP3    H269557   6.582   4.897  13.611  0.7040  0.2700  0.9182
16048TIP3   OH269558   3.910   4.536   3.259 -0.0168 -0.6393  0.2515
16048TIP3    H169559   3.987   4.592   3.246 -0.0629 -0.9224 -1.3914
16048TIP3    H269560   3.842   4.595   3.292  0.3095  0.0295 -0.2584
16049TIP3   OH269561   3.708   6.487  12.559 -0.0398  0.5725 -0.1519
16049TIP3    H169562   3.705   6.549  12.486 -0.2516  0.8403  0.0844
16049TIP3    H269563   3.693   6.541  12.636 -0.1230  0.2390  0.0635
16050TIP3   OH269564   4.784   4.779  12.625  0.6943  0.3254  0.7212
16050TIP3    H169565   4.790   4.870  12.654  0.5924  0.5193  0.1252
16050TIP3    H269566   4.701   4.773  12.580  1.5332  0.4008 -0.8586
16051TIP3   OH269567   4.515   1.693  12.964 -0.3271 -0.0152  0.1875
16051TIP3    H169568   4.540   1.615  12.914  2.0120  0.3702  0.6911
16051TIP3    H269569   4.520   1.664  13.055 -0.5653  0.4144  0.3345
16052TIP3   OH269570   4.913   3.438  13.988  0.1391  0.1332 -0.0852
16052TIP3    H169571   4.868   3.369  14.037 -0.9093  0.6321 -0.3494
16052TIP3    H269572   5.004   3.407  13.982  0.0527 -0.4116  1.2773
16053TIP3   OH269573   4.666   6.748   0.671 -0.2128  0.1278  1.0925
16053TIP3    H169574   4.728   6.791   0.730 -0.1071  2.0593 -0.3802
16053TIP3    H269575   4.720   6.685   0.622  1.0735  3.0822 -1.4912
16054TIP3   OH269576   1.426   4.428   3.628  0.3401  0.0884 -0.0735
16054TIP3    H169577   1.402   4.495   3.691  2.0886 -0.6468  1.4145
16054TIP3    H269578   1.408   4.467   3.542 -2.1277  1.0559  0.8713
16055TIP3   OH269579   0.782   5.285  11.971  0.1297 -0.0662 -0.0964
16055TIP3    H169580   0.794   5.255  11.881  0.3410 -0.3161  0.0155
16055TIP3    H269581   0.802   5.209  12.025  0.7958  0.3037  0.1917
16056TIP3   OH269582   0.965   3.317  16.362 -0.6794  0.2710 -0.2405
16056TIP3    H169583   0.885   3.302  16.411 -0.1918 -0.7964  0.2383
16056TIP3    H269584   0.996   3.403  16.391  0.3273 -0.9322  2.3583
16057TIP3   OH269585   3.473   3.169  10.932 -0.7180  0.7640 -0.1538
16057TIP3    H169586   3.469   3.252  10.978  0.7075  0.0864  1.2633
16057TIP3    H269587   3.545   3.180  10.870 -0.5021  0.5883  0.0618
16058TIP3   OH269588   1.077   4.989   3.958 -0.1434 -0.2072 -0.0603
16058TIP3    H169589   0.990   5.025   3.941  0.7966  2.0610 -0.1772
16058TIP3    H269590   1.069   4.946   4.044 -1.1436  0.7216  0.3196
16059TIP3   OH269591   6.572   0.103   6.336 -0.2274  0.0797 -0.2301
16059TIP3    H169592   6.521   0.184   6.337  0.1987  0.3531  1.6379
16059TIP3    H269593   6.508   0.033   6.351 -0.5921  0.0470 -1.8342
16060TIP3   OH269594   4.225   3.306   0.595 -0.6576 -0.0877  0.9718
16060TIP3    H169595   4.140   3.317   0.639 -0.9573  1.2749  0.0767
16060TIP3    H269596   4.214   3.227   0.542 -1.5148  0.3274  0.5206
16061TIP3   OH269597   4.822   3.918   3.204  0.0095  0.1503  0.0750
16061TIP3    H169598   4.747   3.912   3.262 -0.3048  0.9994 -0.2418
16061TIP3    H269599   4.788   3.960   3.125  0.6228 -0.2270 -0.3995
16062TIP3   OH269600   0.834   3.936   2.643 -0.1779 -0.7981  0.3331
16062TIP3    H169601   0.897   4.006   2.660  0.0501 -0.9517  0.1428
16062TIP3    H269602   0.766   3.947   2.709 -0.4919  0.0095 -0.1288
16063TIP3   OH269603   1.769   3.161  11.529  1.3374  0.1124 -0.3891
16063TIP3    H169604   1.782   3.068  11.514  1.1534 -0.1474  0.9976
16063TIP3    H269605   1.857   3.195  11.549  1.6869  0.5775 -2.5661
16064TIP3   OH269606   3.202   1.111   1.480 -0.0328  0.0656 -1.0457
16064TIP3    H169607   3.169   1.190   1.523 -1.1057 -0.9337 -0.0398
16064TIP3    H269608   3.171   1.119   1.389 -0.7166  0.4675 -0.7820
16065TIP3   OH269609   0.155   5.345  16.032 -0.2168 -0.3445 -0.0186
16065TIP3    H169610   0.234   5.373  15.987  0.2387 -3.0750 -0.9946
16065TIP3    H269611   0.180   5.337  16.124 -0.3346  2.2452  0.2727
16066TIP3   OH269612   2.411   3.522  15.740 -0.2998  0.7337  0.5119
16066TIP3    H169613   2.385   3.607  15.704  1.5943  0.8169 -0.7492
16066TIP3    H269614   2.341   3.499  15.801 -1.9025  2.1956 -0.7157
16067TIP3   OH269615   0.794   3.968  15.436 -0.1659 -0.3605  0.2748
16067TIP3    H169616   0.870   3.909  15.436  0.0094 -0.1476 -0.4556
16067TIP3    H269617   0.733   3.927  15.374 -0.4805 -0.3273  0.5663
16068TIP3   OH269618   5.948   1.737   0.550  0.0335  0.7171 -0.3321
16068TIP3    H169619   5.859   1.734   0.516  0.1706 -0.6118 -0.5902
16068TIP3    H269620   5.940   1.714   0.642  0.2130 -0.4574 -0.5935
16069TIP3   OH269621   4.823   5.174   4.985 -0.0994  0.0245 -0.7398
16069TIP3    H169622   4.785   5.154   5.071  0.3435  1.0928 -0.2704
16069TIP3    H269623   4.797   5.102   4.929  1.2727 -1.7208  0.8021
16070TIP3   OH269624   1.910   3.629   3.677 -0.0682  0.0510 -0.3572
16070TIP3    H169625   1.915   3.666   3.765 -0.7925  0.4233 -0.4696
16070TIP3    H269626   1.938   3.701   3.620  0.6405 -0.2666 -0.4202
16071TIP3   OH269627   4.146   1.183   2.105  0.2995  0.1685  0.1743
16071TIP3    H169628   4.230   1.216   2.136 -0.8832  2.5438  0.9340
16071TIP3    H269629   4.118   1.121   2.172  0.2734  1.2646  1.1777
16072TIP3   OH269630   4.185   1.188   0.456 -0.3468  0.0773  0.5432
16072TIP3    H169631   4.225   1.181   0.370 -1.0266  0.1083  0.2159
16072TIP3    H269632   4.102   1.140   0.447 -0.6357  0.4823  1.0451
16073TIP3   OH269633   3.978   3.289   0.238  0.2645 -0.1471 -0.1757
16073TIP3    H169634   3.910   3.336   0.285 -0.4921 -1.3018 -0.0889
16073TIP3    H269635   3.930   3.230   0.179  1.1907 -0.2038 -0.8875
16074TIP3   OH269636   4.826   1.023   4.276 -0.0367 -0.0873 -0.0668
16074TIP3    H169637   4.861   1.111   4.264 -1.7106  0.4876 -0.8549
16074TIP3    H269638   4.811   0.991   4.186  1.0547 -1.3823  0.1937
16075TIP3   OH269639   3.698   4.163  14.497  0.1897 -0.1650  0.2078
16075TIP3    H169640   3.713   4.255  14.473  1.3483  0.4703  3.1035
16075TIP3    H269641   3.604   4.158  14.513  0.3118  0.8583  1.3063
16076TIP3   OH269642   5.965   5.391   1.483 -0.1116  0.0417  0.4667
16076TIP3    H169643   5.889   5.346   1.445  0.3391  0.7130 -1.2872
16076TIP3    H269644   6.040   5.338   1.457  0.0677 -0.3965  1.8560
16077TIP3   OH269645   5.186   5.934   4.386 -0.0597  0.2788 -0.0983
16077TIP3    H169646   5.109   5.947   4.442 -0.6354 -2.0244 -0.3218
16077TIP3    H269647   5.150   5.909   4.301  0.9342 -2.6039  0.2871
16078TIP3   OH269648   5.864   4.932  10.988 -0.1268  0.6572 -0.0314
16078TIP3    H169649   5.879   4.969  11.075 -1.2342  0.4884  0.2445
16078TIP3    H269650   5.951   4.924  10.950  0.4364  0.0894  1.3239
16079TIP3   OH269651   3.298   5.733  10.568  0.1625  0.5242  0.3027
16079TIP3    H169652   3.332   5.820  10.589  0.1925  0.4267  0.6489
16079TIP3    H269653   3.211   5.731  10.607 -0.3624  0.8747 -0.8299
16080TIP3   OH269654   3.419   6.717  12.300  0.0372 -0.3503 -0.4202
16080TIP3    H169655   3.403   6.629  12.266 -2.0732 -0.3665  0.4982
16080TIP3    H269656   3.373   6.718  12.384  1.0611  1.2397  0.1340
16081TIP3   OH269657   0.876   2.129   5.215 -0.6570 -0.3683  0.5088
16081TIP3    H169658   0.821   2.052   5.230 -0.3497 -0.5224  0.8466
16081TIP3    H269659   0.884   2.169   5.302  1.5301 -1.5272  0.8591
16082TIP3   OH269660   4.469   2.103  11.177  0.4046 -0.0717 -0.3752
16082TIP3    H169661   4.546   2.050  11.155  0.7365  0.9581 -1.7866
16082TIP3    H269662   4.411   2.094  11.101  0.6551  1.8975 -0.8168
16083TIP3   OH269663   6.078   0.616   3.807  0.1479 -0.2394  0.2041
16083TIP3    H169664   6.080   0.521   3.797 -1.7563 -0.2962  0.0630
16083TIP3    H269665   6.125   0.633   3.888  1.2428 -1.2248 -0.2171
16084TIP3   OH269666   3.254   1.451  12.204 -0.4289  0.0175  0.3602
16084TIP3    H169667   3.221   1.406  12.282 -0.1453 -1.1901 -0.2138
16084TIP3    H269668   3.277   1.538  12.236 -0.8918 -0.2603  1.5035
16085TIP3   OH269669   4.968   3.091   1.474 -0.2177  0.2837  0.5003
16085TIP3    H169670   5.053   3.048   1.469 -0.5836 -0.3850 -0.1792
16085TIP3    H269671   4.958   3.134   1.389 -1.1971 -0.8924 -0.0079
16086TIP3   OH269672   5.618   1.051   3.768 -0.0663  0.2488 -0.1098
16086TIP3    H169673   5.658   1.003   3.695 -0.2528  1.1793 -0.8283
16086TIP3    H269674   5.689   1.061   3.832 -0.0071 -0.9202  0.0278
16087TIP3   OH269675   5.527   1.516   4.302  0.6834 -0.8272 -0.0786
16087TIP3    H169676   5.510   1.607   4.275  0.7213 -0.3635  1.4038
16087TIP3    H269677   5.542   1.522   4.397 -1.0151 -2.6137  0.3227
16088TIP3   OH269678   5.497   5.971   6.048 -0.3228 -0.5272 -0.1433
16088TIP3    H169679   5.487   5.914   6.124  1.0674 -1.7639 -0.8527
16088TIP3    H269680   5.447   5.927   5.979  0.7316 -0.8753 -0.6880
16089TIP3   OH269681   5.305   6.614  15.056  0.5590  0.0832  0.8574
16089TIP3    H169682   5.361   6.683  15.092  0.1715 -1.1543  4.0085
16089TIP3    H269683   5.217   6.652  15.056  0.4368 -0.1604  2.0526
16090TIP3   OH269684   5.910   1.931   6.421 -0.1639  0.3321  0.4206
16090TIP3    H169685   5.850   1.895   6.356 -1.2398  1.3998  0.8081
16090TIP3    H269686   5.884   2.023   6.431 -0.3239  0.0727  2.7047
16091TIP3   OH269687   3.335   2.552  11.900 -0.4662 -0.1685 -0.0554
16091TIP3    H169688   3.399   2.491  11.864 -0.7221 -0.5601  0.1477
16091TIP3    H269689   3.264   2.553  11.835 -0.6390 -0.3891  0.1276
16092TIP3   OH269690   0.542   2.205   5.839 -0.7795 -0.0212 -0.0623
16092TIP3    H169691   0.504   2.117   5.846 -1.1755  0.2149  0.7917
16092TIP3    H269692   0.494   2.257   5.903 -0.7211  0.8862 -0.7538
16093TIP3   OH269693   4.532   6.193  14.811  0.2711  0.0782  0.6376
16093TIP3    H169694   4.454   6.138  14.801  0.5240 -0.1501 -0.1677
16093TIP3    H269695   4.509   6.275  14.766  0.2502  0.2664  0.9897
16094TIP3   OH269696   5.442   6.015   4.398 -0.0771 -0.0018 -0.4135
16094TIP3    H169697   5.468   5.978   4.313  1.5739  0.7754 -0.2624
16094TIP3    H269698   5.353   5.983   4.412 -0.8577  0.8810 -3.0430
16095TIP3   OH269699   4.068   4.809   4.439 -0.2554  0.2521  0.2932
16095TIP3    H169700   4.114   4.778   4.361 -0.9766  1.3807 -0.6041
16095TIP3    H269701   3.980   4.772   4.432 -0.4457  0.6836  0.3531
16096TIP3   OH269702   1.722   4.573  16.540 -0.0907  0.0400  0.2065
16096TIP3    H169703   1.794   4.531  16.493  1.0288  0.9801  1.0474
16096TIP3    H269704   1.747   4.665  16.544 -1.0884  0.2866  0.9858
16097TIP3   OH269705   3.572   1.869  17.098  0.7929  0.5757  0.4564
16097TIP3    H169706   3.618   1.953  17.095  0.8281  0.5624  0.5898
16097TIP3    H269707   3.618   1.820  17.167  1.6650 -0.0839 -0.5865
16098TIP3   OH269708   0.131   2.165  11.582  0.3418 -0.1228  0.2239
16098TIP3    H169709   0.212   2.191  11.627 -0.3096  1.6504  0.4093
16098TIP3    H269710   0.108   2.081  11.622  2.1866 -0.7509  0.0321
16099TIP3   OH269711   5.038   1.217   4.917  0.2381  0.0749 -0.4451
16099TIP3    H169712   5.128   1.239   4.940  0.5856  0.3396 -1.9627
16099TIP3    H269713   4.984   1.280   4.965  0.8691  0.0760  0.2731
16100TIP3   OH269714   6.283   6.230  15.038 -0.1542  0.1849 -0.0925
16100TIP3    H169715   6.235   6.242  14.956  2.7769 -0.8211 -2.0506
16100TIP3    H269716   6.289   6.135  15.048  0.7772  0.3004  0.4759
16101TIP3   OH269717   2.491   1.796  14.917  0.1447  0.0481 -0.0810
16101TIP3    H169718   2.581   1.776  14.890  0.1286 -0.6442  0.3767
16101TIP3    H269719   2.459   1.856  14.849  1.3952  1.3666  0.4789
16102TIP3   OH269720   4.346   1.503  14.618 -0.2436 -0.1192 -0.5042
16102TIP3    H169721   4.439   1.507  14.641 -0.6858  0.5390  1.2751
16102TIP3    H269722   4.314   1.423  14.659 -0.8050  0.5187  0.3415
16103TIP3   OH269723   1.711   6.170   2.252  0.3917 -0.1052 -0.4697
16103TIP3    H169724   1.759   6.088   2.243 -0.6247 -0.7251 -0.2995
16103TIP3    H269725   1.624   6.151   2.217 -1.4706 -0.5977  4.1038
16104TIP3   OH269726   4.003   0.161  12.891 -0.2019  0.2917 -0.0414
16104TIP3    H169727   4.062   0.217  12.840 -0.2082  0.9913  0.7104
16104TIP3    H269728   3.925   0.213  12.904 -1.2839 -0.8924 -1.6165
16105TIP3   OH269729   5.344   2.896   0.798  0.4745 -0.4425 -0.2051
16105TIP3    H169730   5.340   2.874   0.891  1.1316  1.6167  0.3397
16105TIP3    H269731   5.433   2.872   0.772  0.0297 -1.7940 -0.5312
16106TIP3   OH269732   6.771   2.184  11.863  0.8161  0.3289  0.3094
16106TIP3    H169733   6.856   2.217  11.893  1.1787  0.9931 -1.4117
16106TIP3    H269734   6.762   2.219  11.774 -0.4388 -1.2395 -0.1878
16107TIP3   OH269735   4.859   6.393  15.219  0.2721 -0.3571  0.6343
16107TIP3    H169736   4.792   6.330  15.244 -0.0655  0.0184  0.6812
16107TIP3    H269737   4.820   6.479  15.238  0.1314 -0.0755 -0.8764
16108TIP3   OH269738   1.828   4.678  10.972  0.1483  0.1962 -0.2714
16108TIP3    H169739   1.831   4.661  10.878  1.6837 -0.2667 -0.1585
16108TIP3    H269740   1.913   4.716  10.992  0.2008 -0.5878  1.0883
16109TIP3   OH269741   4.593   0.452  12.280  0.5010  0.5693 -0.5496
16109TIP3    H169742   4.599   0.504  12.200 -0.8516  0.0419 -1.0051
16109TIP3    H269743   4.523   0.493  12.330 -0.1395 -0.4062 -0.6262
16110TIP3   OH269744   4.951   4.516   0.619 -0.3128  0.2714  0.1395
16110TIP3    H169745   4.918   4.501   0.708  0.4135 -1.6344  0.1238
16110TIP3    H269746   4.999   4.598   0.625 -2.3554  1.4448  0.9109
16111TIP3   OH269747   0.979   0.961  16.749  0.0143 -0.1093  0.2602
16111TIP3    H169748   1.071   0.962  16.722  0.4202  3.6797  1.3722
16111TIP3    H269749   0.931   0.930  16.672  2.1811 -2.0916 -0.3403
16112TIP3   OH269750   2.879   0.315   5.785  0.2422 -0.6692 -0.6354
16112TIP3    H169751   2.889   0.329   5.691  0.0058 -0.6827 -0.6631
16112TIP3    H269752   2.822   0.238   5.792  0.0171 -0.4912 -0.4824
16113TIP3   OH269753   0.382   0.565   0.938 -0.1972  0.3202  0.4383
16113TIP3    H169754   0.361   0.658   0.942  0.7722  0.5826 -0.4327
16113TIP3    H269755   0.316   0.523   0.993 -1.6460  1.3616 -0.4661
16114TIP3   OH269756   5.222   4.032   3.682  0.0482  0.1005  0.4650
16114TIP3    H169757   5.221   3.993   3.770 -3.0241 -1.1238 -0.0624
16114TIP3    H269758   5.163   4.107   3.689  1.3429  1.1749 -0.0583
16115TIP3   OH269759   2.446   4.216   5.086 -0.6797 -0.0351 -0.8200
16115TIP3    H169760   2.537   4.192   5.104 -0.2258  1.7647 -0.5634
16115TIP3    H269761   2.422   4.163   5.010  0.8764  0.1033 -1.4362
16116TIP3   OH269762   0.832   4.256   2.903  0.9146 -0.1979  0.3937
16116TIP3    H169763   0.878   4.265   2.986  0.0795  0.4069  0.7878
16116TIP3    H269764   0.826   4.161   2.890  2.0260 -0.2912  0.4653
16117TIP3   OH269765   2.430   4.544  12.961  0.4152  0.0211  0.2005
16117TIP3    H169766   2.499   4.609  12.944  0.0084  0.6298  0.8324
16117TIP3    H269767   2.430   4.488  12.883  0.6691  0.8694 -0.4213
16118TIP3   OH269768   5.400   3.011   5.178  0.0312 -0.1913 -0.4082
16118TIP3    H169769   5.390   3.005   5.273 -0.4149 -1.0964 -0.5086
16118TIP3    H269770   5.335   3.075   5.150  0.1327  0.0407 -0.1139
16119TIP3   OH269771   1.710   4.707   3.983 -0.1273 -0.0076 -0.1259
16119TIP3    H169772   1.761   4.779   4.020  0.1677 -1.5815  2.6506
16119TIP3    H269773   1.630   4.704   4.035 -0.4293 -1.2705 -0.6343
16120TIP3   OH269774   3.016   2.741  15.959 -0.4649  0.6264 -0.3321
16120TIP3    H169775   3.001   2.723  15.867 -0.8076  0.0680 -0.1739
16120TIP3    H269776   3.026   2.654  15.999  0.9840  0.9004 -0.0584
16121TIP3   OH269777   0.537   1.298  15.518  0.2835 -0.7783 -0.6534
16121TIP3    H169778   0.563   1.223  15.571  0.3061  0.0564  0.5509
16121TIP3    H269779   0.530   1.370  15.581  2.0735  0.6703 -2.0365
16122TIP3   OH269780   3.277   2.039   1.399 -0.1202 -0.3626 -0.1992
16122TIP3    H169781   3.304   2.088   1.476  0.3274 -1.1099  0.1283
16122TIP3    H269782   3.246   2.105   1.337  1.2547  0.3933 -0.0810
16123TIP3   OH269783   4.756   0.273  15.858 -0.1231 -0.2081  0.5997
16123TIP3    H169784   4.737   0.360  15.823 -1.6594 -0.3137  1.1338
16123TIP3    H269785   4.703   0.214  15.804  3.1278 -1.1715 -1.7247
16124TIP3   OH269786   0.032   6.508  15.014 -0.9059  0.4311 -0.5493
16124TIP3    H169787   0.018   6.482  14.923 -1.6221 -0.0341 -0.3046
16124TIP3    H269788   0.019   6.603  15.014 -0.7367  0.4530 -0.9638
16125TIP3   OH269789   1.068   3.525  14.166 -0.3982 -0.3418 -0.1302
16125TIP3    H169790   1.112   3.590  14.219 -0.9510  0.0499 -0.1487
16125TIP3    H269791   1.118   3.522  14.084 -1.8150  1.8457 -1.1062
16126TIP3   OH269792   0.918   0.189  13.405 -0.1640 -0.1004  0.3281
16126TIP3    H169793   0.887   0.249  13.473 -2.7357  0.5141 -1.2938
16126TIP3    H269794   0.986   0.239  13.359 -0.3588  0.5511  0.7379
16127TIP3   OH269795   2.132   6.136   2.587 -0.2661  0.1591 -0.4870
16127TIP3    H169796   2.144   6.064   2.649  0.0937 -1.5005 -2.4050
16127TIP3    H269797   2.069   6.195   2.630 -0.5042 -1.2495  1.1621
16128TIP3   OH269798   3.033   1.651   0.755  0.2930  1.2646  0.2801
16128TIP3    H169799   2.956   1.697   0.788 -0.5957  0.7035 -0.9893
16128TIP3    H269800   3.032   1.667   0.661  0.8145 -0.0874  0.0338
16129TIP3   OH269801   0.145   5.644   6.694  0.4323 -0.0434 -0.4307
16129TIP3    H169802   0.098   5.561   6.692  1.7650 -0.7943 -2.2390
16129TIP3    H269803   0.238   5.618   6.695  0.8836  1.4037 -2.1909
16130TIP3   OH269804   1.559   1.349   5.734  0.2097  0.6749  0.3451
16130TIP3    H169805   1.536   1.264   5.772 -1.2027  0.4238 -1.0284
16130TIP3    H269806   1.515   1.413   5.790 -0.7456  0.3744 -0.0545
16131TIP3   OH269807   2.942   3.365   5.064  0.4207  0.2303 -0.3147
16131TIP3    H169808   2.860   3.410   5.085  1.2950  2.1810 -1.0732
16131TIP3    H269809   2.951   3.374   4.969  0.7173 -1.3931 -0.4600
16132TIP3   OH269810   1.261   3.678   2.224  0.0240 -0.3263  0.2696
16132TIP3    H169811   1.347   3.648   2.195  0.3313 -0.7464  1.5940
16132TIP3    H269812   1.201   3.649   2.155  0.7651 -1.1241 -0.0463
16133TIP3   OH269813   1.939   5.081   5.179 -0.4258 -0.1769  0.3042
16133TIP3    H169814   1.913   4.993   5.154 -3.4229  0.9233 -0.5857
16133TIP3    H269815   1.974   5.119   5.099  1.9017 -0.8736  0.9471
16134TIP3   OH269816   2.844   5.283  12.784 -0.3575  0.2525 -0.0211
16134TIP3    H169817   2.800   5.327  12.711  0.0141 -0.4392 -0.6649
16134TIP3    H269818   2.774   5.233  12.827 -1.0118  2.2557  1.3567
16135TIP3   OH269819   4.725   5.680   3.776 -0.0210  0.7398 -0.1403
16135TIP3    H169820   4.679   5.633   3.707 -1.0252  0.1391  0.9258
16135TIP3    H269821   4.813   5.695   3.741 -0.1260 -0.6953 -1.0439
16136TIP3   OH269822   0.229   1.846   3.192 -0.0960  0.2859 -0.5188
16136TIP3    H169823   0.150   1.805   3.156 -1.4101  1.4944  0.9094
16136TIP3    H269824   0.291   1.774   3.202 -0.8634 -0.6212 -2.0259
16137TIP3   OH269825   6.073   4.298   4.955  0.4896  0.0301 -0.0636
16137TIP3    H169826   6.163   4.267   4.952  0.7374  0.6551  0.6778
16137TIP3    H269827   6.020   4.220   4.941  1.1635 -0.1117 -1.9656
16138TIP3   OH269828   2.744   6.050   1.091 -0.0554 -0.1474  0.5242
16138TIP3    H169829   2.704   5.972   1.130 -3.4456  1.7513  1.1109
16138TIP3    H269830   2.707   6.123   1.141  3.1409  1.8433  0.0920
16139TIP3   OH269831   2.608   4.310  15.830  0.0052  0.3039 -0.4544
16139TIP3    H169832   2.542   4.338  15.766 -2.0348 -0.1302  1.3887
16139TIP3    H269833   2.592   4.216  15.841  0.6979  0.2684  0.2825
16140TIP3   OH269834   1.098   3.887   3.672  0.1674  0.3455  0.3361
16140TIP3    H169835   1.169   3.926   3.621  0.5934  0.8364  1.2830
16140TIP3    H269836   1.118   3.794   3.675 -0.1610  0.2254 -0.8547
16141TIP3   OH269837   6.274   6.630  14.432  0.1674 -0.1976  0.1245
16141TIP3    H169838   6.275   6.540  14.464  1.1673 -1.0181 -2.1236
16141TIP3    H269839   6.237   6.680  14.505  0.7534 -2.2194  1.8941
16142TIP3   OH269840   3.997   0.438   6.008 -0.4270 -0.0177 -0.2050
16142TIP3    H169841   3.955   0.356   6.035  0.3189 -0.1917  0.4267
16142TIP3    H269842   3.990   0.438   5.912 -0.3244 -0.8656 -0.2116
16143TIP3   OH269843   2.077   2.825  12.045  0.1870 -0.1872 -0.1670
16143TIP3    H169844   2.062   2.845  12.137 -0.3890  0.4325 -0.3892
16143TIP3    H269845   2.021   2.886  11.997  2.0005  0.9263 -0.9737
16144TIP3   OH269846   3.648   4.676   2.350  0.0969 -0.8368 -0.2878
16144TIP3    H169847   3.704   4.612   2.308 -1.6519 -2.0311 -0.8792
16144TIP3    H269848   3.622   4.735   2.279  0.5446 -0.3220 -0.0283
16145TIP3   OH269849   3.384   1.790  16.906  0.4725 -0.1346 -0.9100
16145TIP3    H169850   3.330   1.866  16.926  0.0780 -0.2699 -1.4614
16145TIP3    H269851   3.455   1.794  16.970 -1.4107 -1.2260  1.3372
16146TIP3   OH269852   2.241   2.036   5.810 -0.5777 -0.0508  0.2174
16146TIP3    H169853   2.243   1.971   5.881 -2.2632 -1.2030 -0.7416
16146TIP3    H269854   2.332   2.050   5.787 -0.2129 -2.5657  0.0280
16147TIP3   OH269855   0.050   3.669  16.370  0.5964  0.0000  0.0159
16147TIP3    H169856   0.047   3.651  16.276 -1.5030  1.6986 -0.3021
16147TIP3    H269857   0.078   3.761  16.376 -1.6724  0.6812  0.8810
16148TIP3   OH269858   1.037   5.975   0.766 -0.0572  0.0830  0.3607
16148TIP3    H169859   1.098   6.035   0.723 -0.9275  1.0202  0.4239
16148TIP3    H269860   0.970   6.032   0.804 -1.5542 -0.9941 -0.6199
16149TIP3   OH269861   4.649   3.597   3.814  0.1005 -0.1388  0.5577
16149TIP3    H169862   4.722   3.658   3.812  0.8792 -1.0618 -1.8927
16149TIP3    H269863   4.575   3.647   3.780  0.2214  0.0846  0.6271
16150TIP3   OH269864   4.770   3.296  16.974 -0.2402  0.3777 -0.6652
16150TIP3    H169865   4.730   3.286  16.887 -0.8076 -2.9450 -0.0957
16150TIP3    H269866   4.722   3.234  17.029  1.6394  0.8019  1.4897
16151TIP3   OH269867   1.466   0.392   6.082 -0.3326  0.0136  0.4227
16151TIP3    H169868   1.419   0.312   6.102 -0.2502 -0.0147  0.5040
16151TIP3    H269869   1.558   0.371   6.098 -0.4424  0.5499  1.8177
16152TIP3   OH269870   3.636   1.824  12.273  0.1160  0.2693  0.6328
16152TIP3    H169871   3.596   1.911  12.280 -1.0809 -0.1894 -0.4007
16152TIP3    H269872   3.659   1.816  12.181 -1.0170 -1.0481  0.4502
16153TIP3   OH269873   0.271   1.313   2.009 -0.4240 -0.2805 -0.4768
16153TIP3    H169874   0.216   1.301   2.086  0.6716 -0.3765  0.2932
16153TIP3    H269875   0.249   1.401   1.978 -0.9058 -0.2654 -0.1004
16154TIP3   OH269876   4.483   1.140   5.224  0.0397  0.1744 -0.6153
16154TIP3    H169877   4.541   1.112   5.153 -1.7298  0.2719 -2.1352
16154TIP3    H269878   4.395   1.117   5.193 -0.6436 -1.1748  2.2109
16155TIP3   OH269879   1.937   1.011  16.005 -0.4946  0.2694 -0.0468
16155TIP3    H169880   1.972   1.094  15.975  0.0454  0.0101 -0.1322
16155TIP3    H269881   1.980   0.945  15.951 -0.6755 -0.0890  0.2409
16156TIP3   OH269882   4.680   1.227  16.764  0.4138  0.3792  0.2820
16156TIP3    H169883   4.687   1.150  16.821  0.4434  0.1286 -0.0585
16156TIP3    H269884   4.674   1.191  16.676 -1.6712  0.6777  0.2616
16157TIP3   OH269885   2.147   3.263   5.126  0.1423  0.1297 -0.3265
16157TIP3    H169886   2.204   3.196   5.166 -1.4926  0.2913  2.3701
16157TIP3    H269887   2.209   3.326   5.087  1.7828 -0.5741  1.0650
16158TIP3   OH269888   2.520   4.961  12.703  0.9086  0.1450 -0.7629
16158TIP3    H169889   2.557   4.873  12.704  2.6134  0.7925 -3.0552
16158TIP3    H269890   2.435   4.951  12.659 -0.0523 -0.7306  1.2336
16159TIP3   OH269891   0.077   0.134   0.228 -0.0228  0.0195  0.6810
16159TIP3    H169892   0.115   0.150   0.315 -0.5675  0.3853  0.8550
16159TIP3    H269893  -0.012   0.167   0.235 -1.1429 -2.8973  0.9771
16160TIP3   OH269894   1.120   6.242  11.807 -0.0172 -0.8108  0.0711
16160TIP3    H169895   1.081   6.160  11.837  0.4713 -1.0957 -0.0626
16160TIP3    H269896   1.074   6.311  11.855  0.9805 -1.2775  1.7364
16161TIP3   OH269897   2.033   3.979   2.298  0.7250  0.2345  0.1447
16161TIP3    H169898   2.127   3.962   2.297  0.8314  0.7980  0.7801
16161TIP3    H269899   2.015   4.017   2.384 -0.1774 -0.3925  0.2475
16162TIP3   OH269900   1.962   2.054   6.799 -0.3090  0.1075 -0.1445
16162TIP3    H169901   1.947   2.114   6.872 -2.8955  0.9413 -1.3026
16162TIP3    H269902   2.057   2.051   6.791 -0.0461  2.3072  1.3809
16163TIP3   OH269903   1.178   5.751   1.138  0.4574 -0.4534  0.0341
16163TIP3    H169904   1.272   5.732   1.133  0.9597  1.7773  0.6133
16163TIP3    H269905   1.145   5.690   1.203  1.2964 -1.9992 -0.9504
16164TIP3   OH269906   3.222   0.042   2.053  0.4727 -0.4643 -0.5309
16164TIP3    H169907   3.211   0.136   2.061  2.1810 -0.2829 -0.2690
16164TIP3    H269908   3.163   0.017   1.981 -1.3167  0.5200  0.5556
16165TIP3   OH269909   0.756   4.360  16.678 -0.4383  0.2839 -0.6004
16165TIP3    H169910   0.705   4.402  16.609  3.3860  0.0473 -3.7305
16165TIP3    H269911   0.789   4.433  16.730 -2.3470  0.5235  0.3297
16166TIP3   OH269912   0.856   4.340  15.308  0.5292 -0.6044  0.1514
16166TIP3    H169913   0.859   4.303  15.219 -2.6087  1.9341 -1.0978
16166TIP3    H269914   0.778   4.302  15.347  0.0679  0.8372  0.6369
16167TIP3   OH269915   6.008   0.286   2.154 -0.2017 -0.1421 -0.4413
16167TIP3    H169916   6.083   0.320   2.107  0.7743  0.7955  1.7274
16167TIP3    H269917   5.932   0.309   2.100  0.9892 -0.5138 -2.3069
16168TIP3   OH269918   2.229   3.688  11.112 -0.4813 -0.3024  0.0054
16168TIP3    H169919   2.249   3.755  11.047  0.0359 -0.2724  0.1934
16168TIP3    H269920   2.148   3.718  11.154 -2.1751 -1.5172 -2.2664
16169TIP3   OH269921   0.980   2.417  12.173 -0.0530  0.0016  0.1596
16169TIP3    H169922   0.956   2.486  12.112 -0.3740  0.3018  0.6284
16169TIP3    H269923   0.928   2.434  12.251 -0.1062 -0.7463  0.2928
16170TIP3   OH269924   5.968   0.981  11.304  0.2261  0.0770 -0.4079
16170TIP3    H169925   6.020   1.019  11.234 -0.1712  2.3854  0.5039
16170TIP3    H269926   6.032   0.948  11.367  0.5965  2.2762  0.3795
16171TIP3   OH269927   6.498   1.350  11.327 -0.0365 -0.2215 -0.6773
16171TIP3    H169928   6.435   1.278  11.323 -0.3053 -0.0204 -0.1545
16171TIP3    H269929   6.534   1.355  11.239 -1.0282 -0.0929 -1.0849
16172TIP3   OH269930   1.819   2.948   4.182 -0.5194 -0.5248  0.3485
16172TIP3    H169931   1.750   2.895   4.142 -0.3616  1.0844 -2.1886
16172TIP3    H269932   1.900   2.903   4.159 -0.4850 -0.0878 -0.4116
16173TIP3   OH269933   0.440   5.366   5.619  0.0471  0.2015 -0.6240
16173TIP3    H169934   0.382   5.433   5.582 -0.5922 -0.9655 -1.8213
16173TIP3    H269935   0.397   5.339   5.700 -1.4563 -1.0683 -1.7949
16174TIP3   OH269936   4.709   5.354   1.727 -0.7326  0.2083  0.3269
16174TIP3    H169937   4.706   5.440   1.687  1.4325  0.2971  0.3124
16174TIP3    H269938   4.644   5.357   1.798  0.1028  2.1964  1.0205
16175TIP3   OH269939   2.465   6.065  14.029  0.0160 -0.0033  0.2906
16175TIP3    H169940   2.492   6.023  13.947 -1.7808 -0.9218  0.1514
16175TIP3    H269941   2.536   6.125  14.049  1.2864 -1.0221 -1.0370
16176TIP3   OH269942   1.596   3.150  12.797  0.0884  0.1551 -0.1354
16176TIP3    H169943   1.673   3.188  12.839  0.4002  0.0280 -0.5902
16176TIP3    H269944   1.626   3.124  12.710  0.3464 -2.6496  0.7292
16177TIP3   OH269945   5.663   6.141  12.102 -0.0212 -1.0329 -0.2753
16177TIP3    H169946   5.590   6.081  12.115 -0.2007 -1.1719 -1.7846
16177TIP3    H269947   5.735   6.103  12.152 -1.2739 -0.2835  2.1678
16178TIP3   OH269948   2.612   0.897  13.238 -0.4059 -0.2380 -0.0045
16178TIP3    H169949   2.609   0.817  13.291 -1.0218  0.2499  0.7177
16178TIP3    H269950   2.608   0.866  13.148  1.2270 -1.1108  0.2036
16179TIP3   OH269951   2.934   2.439   5.729  0.3611 -0.4571 -0.1902
16179TIP3    H169952   2.925   2.524   5.772  2.0401  0.1414 -0.9793
16179TIP3    H269953   3.029   2.427   5.720  0.0663 -1.3646 -2.1514
16180TIP3   OH269954   2.838   6.181  17.127  0.2905  0.5892  0.6250
16180TIP3    H169955   2.850   6.260  17.179 -2.1308  0.9731  0.6569
16180TIP3    H269956   2.795   6.211  17.047 -0.3252 -0.6479  0.4746
16181TIP3   OH269957   3.269   5.601   6.070  0.1414 -0.5691  0.6173
16181TIP3    H169958   3.330   5.649   6.014 -1.3625  0.8388  0.1409
16181TIP3    H269959   3.324   5.556   6.134  1.7451 -0.4124 -0.6354
16182TIP3   OH269960   4.002   3.467   4.741 -0.3364  0.9553  0.5494
16182TIP3    H169961   4.039   3.409   4.674  1.9745  1.5633  1.2643
16182TIP3    H269962   3.981   3.548   4.694 -0.2243  0.8130  0.2523
16183TIP3   OH269963   1.416   3.991  11.303 -0.9047 -0.4744  0.6242
16183TIP3    H169964   1.396   4.078  11.337  2.4150 -0.3052  2.3453
16183TIP3    H269965   1.486   4.005  11.240  0.0470 -1.9414  1.3282
16184TIP3   OH269966   1.640   1.641   1.590 -0.0556 -0.0104 -0.0543
16184TIP3    H169967   1.616   1.551   1.611  0.8340 -0.0228  0.9566
16184TIP3    H269968   1.587   1.663   1.513 -1.3133 -0.9233  0.5314
16185TIP3   OH269969   3.904   1.940  14.819  0.7383  0.6455  0.3753
16185TIP3    H169970   3.821   1.913  14.860  0.5829  0.5008 -0.0285
16185TIP3    H269971   3.895   1.912  14.728  0.9325  1.2853  0.1579
16186TIP3   OH269972   3.289   5.417   4.892  0.1046 -0.2652  0.0180
16186TIP3    H169973   3.356   5.434   4.826 -1.6447  0.1293 -1.7035
16186TIP3    H269974   3.288   5.322   4.901  2.2629 -0.1803  1.5517
16187TIP3   OH269975   1.871   2.422  11.495  0.3747  0.4021  0.6657
16187TIP3    H169976   1.793   2.476  11.487  0.0753 -0.0847  0.2330
16187TIP3    H269977   1.879   2.405  11.589  0.0471  0.5852  0.7260
16188TIP3   OH269978   6.619   5.062   3.370 -0.1303 -0.0298  0.3267
16188TIP3    H169979   6.698   5.066   3.424 -0.6250 -0.3094  1.0729
16188TIP3    H269980   6.556   5.119   3.415 -0.8185 -0.9253  0.5047
16189TIP3   OH269981   2.704   3.635   3.200 -0.0625 -0.3842 -0.0046
16189TIP3    H169982   2.621   3.592   3.220  0.6960 -1.5449  0.7087
16189TIP3    H269983   2.735   3.593   3.120  0.5971 -1.0665  0.5996
16190TIP3   OH269984   4.207   0.616   6.020  0.3936 -0.2680 -0.0056
16190TIP3    H169985   4.156   0.696   6.034 -0.6835 -1.1009  0.9196
16190TIP3    H269986   4.142   0.549   5.999  1.3611 -0.7160 -1.7198
16191TIP3   OH269987   3.086   2.800  11.849 -0.1315 -0.0017 -0.7994
16191TIP3    H169988   3.091   2.772  11.940  1.1297 -0.2255 -0.9185
16191TIP3    H269989   3.062   2.721  11.801 -2.6718  0.5387 -0.4711
16192TIP3   OH269990   2.111   5.339   2.900 -0.1827  0.0004  0.3711
16192TIP3    H169991   2.017   5.334   2.913 -0.0488  0.4014  1.5328
16192TIP3    H269992   2.142   5.250   2.916 -0.2211  0.1324  1.1971
16193TIP3   OH269993   5.085   3.464  15.531 -0.2239  0.1301 -0.4247
16193TIP3    H169994   5.132   3.481  15.612  0.7359  0.2590 -0.9994
16193TIP3    H269995   5.045   3.548  15.509  1.1782  0.6330 -1.1320
16194TIP3   OH269996   6.394   3.871  14.208  0.1997  0.1920  0.2727
16194TIP3    H169997   6.375   3.825  14.290  1.2030 -0.5617  0.0985
16194TIP3    H269998   6.474   3.829  14.175  0.2309  0.9957 -0.7068
16195TIP3   OH269999   5.703   2.195   0.178  0.1965 -0.1479 -0.0942
16195TIP3    H170000   5.759   2.168   0.251  0.9623 -0.0081 -0.6293
16195TIP3    H270001   5.642   2.258   0.217  0.5978 -0.0759  0.4237
16196TIP3   OH270002   1.236   5.204  16.853 -0.6315 -0.3305  0.2579
16196TIP3    H170003   1.221   5.274  16.916  0.0264 -0.2610  0.3374
16196TIP3    H270004   1.205   5.239  16.770 -1.1227 -0.2713  0.4658
16197TIP3   OH270005   1.492   2.770  12.753 -0.4395 -0.3899  0.2150
16197TIP3    H170006   1.445   2.831  12.810 -0.4983 -1.8697  1.7959
16197TIP3    H270007   1.551   2.723  12.812  1.3327 -0.1895 -1.3789
16198TIP3   OH270008   3.907   0.498  14.479  0.1346  0.0846 -0.4766
16198TIP3    H170009   3.964   0.424  14.499  0.6567  0.3124 -1.0926
16198TIP3    H270010   3.842   0.462  14.418  0.1053  0.0235 -0.4082
16199TIP3   OH270011   6.234   6.448   0.856  0.4015  0.1400  0.4997
16199TIP3    H170012   6.214   6.456   0.949 -2.6122  1.5121 -0.2099
16199TIP3    H270013   6.252   6.355   0.843  0.5846 -0.1079  2.3871
16200TIP3   OH270014   6.735   6.564  13.453 -0.2334  0.0022 -0.5857
16200TIP3    H170015   6.656   6.531  13.495  2.1879 -2.7816  1.9069
16200TIP3    H270016   6.708   6.582  13.363 -4.3289  1.6523  0.8539
16201TIP3   OH270017   6.621   0.269  13.007  0.6034  0.6131 -0.0958
16201TIP3    H170018   6.630   0.173  13.006  0.5705  0.6157 -0.7980
16201TIP3    H270019   6.694   0.299  13.061  0.3535  0.1663  0.4969
16202TIP3   OH270020   0.820   6.770   4.244  0.0094  0.5490  0.3555
16202TIP3    H170021   0.750   6.765   4.309 -0.1763 -2.1801  0.0070
16202TIP3    H270022   0.778   6.749   4.161  1.0631 -0.2786  0.0134
16203TIP3   OH270023   4.263   0.223   1.587 -0.8218 -0.3890 -0.0734
16203TIP3    H170024   4.271   0.152   1.651 -1.7614 -0.2630  0.1819
16203TIP3    H270025   4.347   0.221   1.540 -0.6530 -1.3640  0.2441
16204TIP3   OH270026   1.723   0.173  10.392  0.0794  0.0540  0.5366
16204TIP3    H170027   1.792   0.226  10.351  2.5687 -1.8478  2.1101
16204TIP3    H270028   1.678   0.233  10.451  2.2658  0.7047  1.6074
16205TIP3   OH270029   5.423   6.518  14.594 -0.2575 -0.1002  0.2597
16205TIP3    H170030   5.476   6.458  14.646 -0.3379  0.1537  0.6436
16205TIP3    H270031   5.480   6.594  14.579  0.3801 -0.9414 -1.5739
16206TIP3   OH270032   0.895   2.147  13.495 -0.1387 -0.2947  0.2725
16206TIP3    H170033   0.833   2.080  13.465 -0.1574 -1.1228  2.1196
16206TIP3    H270034   0.840   2.213  13.536 -0.0097  0.2434 -0.4164
16207TIP3   OH270035   5.079   0.236  13.221  0.3578  0.2585 -0.5129
16207TIP3    H170036   5.122   0.164  13.176  1.8527  0.2319  0.8906
16207TIP3    H270037   4.986   0.213  13.222  0.5371 -0.5716 -1.9852
16208TIP3   OH270038   6.275   1.517   2.212  0.2759 -0.2855  0.0119
16208TIP3    H170039   6.285   1.591   2.153  0.2616 -0.5461 -0.3157
16208TIP3    H270040   6.192   1.477   2.186 -0.0415 -0.0337  0.6134
16209TIP3   OH270041   0.546   2.155   2.842  0.2582 -0.2197 -0.1623
16209TIP3    H170042   0.524   2.227   2.784  0.7351  0.1908  0.1621
16209TIP3    H270043   0.487   2.084   2.817  0.3071  0.0337 -0.9852
16210TIP3   OH270044   2.956   5.584  12.617 -0.0397  0.7341 -0.1579
16210TIP3    H170045   3.004   5.633  12.684  0.0429  0.2084  0.1684
16210TIP3    H270046   3.008   5.505  12.603 -2.2038 -1.1493  2.1728
16211TIP3   OH270047   3.884   2.785   3.305 -0.2753  0.3618 -0.2855
16211TIP3    H170048   3.890   2.880   3.305 -1.6420  0.4753  1.5739
16211TIP3    H270049   3.975   2.755   3.307  0.1577  1.6183 -0.9198
16212TIP3   OH270050   0.410   6.620  10.938 -0.0283  0.5502  0.1610
16212TIP3    H170051   0.480   6.582  10.886 -0.4014 -0.7020  0.5599
16212TIP3    H270052   0.454   6.651  11.018 -0.0163 -0.8192  0.6981
16213TIP3   OH270053   0.021   1.921   4.320 -0.3123  0.2523  0.0400
16213TIP3    H170054   0.039   1.859   4.250 -0.3100  0.1721  0.1116
16213TIP3    H270055   0.107   1.939   4.358 -0.2567  0.6374 -0.2633
16214TIP3   OH270056   5.966   6.303  13.567 -0.2506 -0.2469 -0.6134
16214TIP3    H170057   5.990   6.279  13.478 -1.0424 -0.4207 -0.7804
16214TIP3    H270058   5.913   6.230  13.599  2.1084 -1.3736  0.9087
16215TIP3   OH270059   2.607   5.299   1.212 -0.2155  0.0987 -0.3200
16215TIP3    H170060   2.701   5.307   1.228  0.1847 -1.8593 -1.5063
16215TIP3    H270061   2.588   5.206   1.229 -1.8653  0.4021 -0.4227
16216TIP3   OH270062   5.968   6.621  14.689 -0.8336 -0.1094  0.2540
16216TIP3    H170063   5.993   6.711  14.712 -0.8901 -0.4944  1.8474
16216TIP3    H270064   5.933   6.629  14.600  0.4165  1.2202 -0.1378
16217TIP3   OH270065   5.776   5.740   1.875 -0.2572  0.0878  0.6610
16217TIP3    H170066   5.698   5.790   1.900 -0.1119  0.9409 -0.5610
16217TIP3    H270067   5.743   5.670   1.818 -0.1356  0.3881  0.2241
16218TIP3   OH270068   4.334   5.105  16.355  0.4069  0.3115 -0.2152
16218TIP3    H170069   4.273   5.084  16.284  0.7621  1.3494 -0.8338
16218TIP3    H270070   4.298   5.060  16.432 -2.6106  3.0747  0.0619
16219TIP3   OH270071   3.844   4.180   5.749 -0.0757 -0.2538 -0.4049
16219TIP3    H170072   3.875   4.090   5.758  0.7968  0.1918  1.1282
16219TIP3    H270073   3.867   4.222   5.831 -3.6684  0.4415  0.3295
16220TIP3   OH270074   5.663   5.878  16.235 -0.0897 -0.7601 -0.0761
16220TIP3    H170075   5.737   5.902  16.180 -0.9533  2.5319  0.0546
16220TIP3    H270076   5.590   5.867  16.174 -0.5482  0.7402  0.1761
16221TIP3   OH270077   6.466   3.458   2.871 -0.2863 -1.0077 -0.0056
16221TIP3    H170078   6.492   3.366   2.877 -0.7280 -1.1278  0.1642
16221TIP3    H270079   6.444   3.471   2.779  0.2559 -0.9373 -0.1239
16222TIP3   OH270080   6.223   6.566   4.593  0.2757 -0.1301  0.0091
16222TIP3    H170081   6.258   6.551   4.505  0.8803 -0.9620  0.3864
16222TIP3    H270082   6.293   6.539   4.652  0.0327  0.8277  0.7478
16223TIP3   OH270083   2.171   0.130   4.464 -0.1352 -0.0500 -0.0503
16223TIP3    H170084   2.111   0.159   4.533 -0.4590 -1.6039  0.3344
16223TIP3    H270085   2.117   0.080   4.404  0.3770  0.3086 -0.8135
16224TIP3   OH270086   1.263   5.700   2.772  0.5455 -0.2157 -0.2363
16224TIP3    H170087   1.228   5.613   2.754 -1.1580  0.4061 -0.0320
16224TIP3    H270088   1.240   5.717   2.864  1.9603 -0.0415  0.1077
16225TIP3   OH270089   1.370   1.802  11.952  0.4784  0.5970 -0.5069
16225TIP3    H170090   1.443   1.848  11.911  1.0772 -1.0021 -1.2681
16225TIP3    H270091   1.327   1.869  12.005  1.1421  2.1010 -1.8230
16226TIP3   OH270092   6.523   3.686  13.997 -0.0057 -0.0678 -0.5052
16226TIP3    H170093   6.472   3.722  13.924  0.1997  1.5349  0.1304
16226TIP3    H270094   6.570   3.612  13.959 -1.2993 -0.3564 -1.5659
16227TIP3   OH270095   1.133   4.848   4.751 -0.5954 -0.2889 -0.1047
16227TIP3    H170096   1.073   4.804   4.691 -0.5942  0.6345 -0.7798
16227TIP3    H270097   1.218   4.806   4.736 -0.9408 -1.1989  0.4407
16228TIP3   OH270098   0.947   0.644  17.016  0.3934 -0.3207  0.2748
16228TIP3    H170099   0.895   0.688  16.949  0.2648 -0.6837  0.1399
16228TIP3    H270100   0.946   0.552  16.992  2.2041 -0.1659 -0.4516
16229TIP3   OH270101   1.667   5.791  11.141  0.8292 -0.1812 -0.5227
16229TIP3    H170102   1.701   5.880  11.133  0.4043  0.0016 -0.3458
16229TIP3    H270103   1.572   5.801  11.128  0.8573 -0.6982 -1.1569
16230TIP3   OH270104   4.548   4.032   4.488 -0.2526 -0.1377 -0.3563
16230TIP3    H170105   4.610   4.055   4.418 -0.5876 -1.0369 -0.9724
16230TIP3    H270106   4.584   3.951   4.525 -0.1142  0.3008  0.4828
16231TIP3   OH270107   1.590   0.209  13.327  0.3951  0.0286 -1.1157
16231TIP3    H170108   1.616   0.117  13.327  0.1357 -0.0505 -1.7153
16231TIP3    H270109   1.646   0.250  13.392 -0.8835 -0.9390  0.6449
16232TIP3   OH270110   5.579   5.320   0.294  0.4118  0.0992 -0.1033
16232TIP3    H170111   5.637   5.245   0.292 -0.4611 -0.5886  0.0577
16232TIP3    H270112   5.514   5.299   0.361  0.9416  1.5837  0.9072
16233TIP3   OH270113   6.079   5.720   0.083 -0.2352  0.0456  0.5512
16233TIP3    H170114   6.114   5.636   0.111 -1.6826 -0.3243  1.3058
16233TIP3    H270115   6.027   5.700   0.004  0.4070  0.4243  0.0257
16234TIP3   OH270116   6.585   2.502   3.573 -0.4787 -0.0722  0.1575
16234TIP3    H170117   6.652   2.457   3.625 -0.5863 -0.1721  0.2114
16234TIP3    H270118   6.629   2.580   3.540 -0.4291  0.0330  0.4663
16235TIP3   OH270119   4.996   4.533  16.609 -0.3068  0.3004  0.0716
16235TIP3    H170120   5.003   4.521  16.515  1.0553  2.0575 -0.0857
16235TIP3    H270121   4.980   4.627  16.621  0.8103  0.3330  1.6068
16236TIP3   OH270122   3.089   2.831   6.464 -0.1977  0.0867  0.3058
16236TIP3    H170123   3.092   2.777   6.543 -0.2757  1.6186  1.4043
16236TIP3    H270124   3.172   2.813   6.419 -0.0916 -0.7066  0.8141
16237TIP3   OH270125   1.390   2.699   4.941 -0.9310 -0.3007  0.1449
16237TIP3    H170126   1.448   2.643   4.993 -0.3927  1.2748  1.2933
16237TIP3    H270127   1.410   2.788   4.971 -3.0263  0.3770 -0.3695
16238TIP3   OH270128   1.087   0.498   4.749 -0.5465 -0.1536  0.6400
16238TIP3    H170129   1.046   0.419   4.783 -1.1789  0.1773  0.6515
16238TIP3    H270130   1.015   0.560   4.739  0.0241  0.5878  1.1200
16239TIP3   OH270131   2.958   2.159  13.582  0.0305  0.1130 -0.2953
16239TIP3    H170132   3.033   2.133  13.529  1.0660 -0.3585  1.3641
16239TIP3    H270133   2.959   2.255  13.580  0.6152  0.1064 -0.3668
16240TIP3   OH270134   6.468   5.395   1.275  0.5876 -0.0023 -0.2771
16240TIP3    H170135   6.440   5.319   1.224  2.1184  0.0027 -1.1771
16240TIP3    H270136   6.544   5.363   1.325  0.1048  0.4415  0.7549
16241TIP3   OH270137   2.696   3.421   3.417 -1.0988 -0.4980 -0.6573
16241TIP3    H170138   2.738   3.505   3.395 -1.3199 -0.2610 -0.1720
16241TIP3    H270139   2.735   3.359   3.356  0.6293 -0.4613  0.4112
16242TIP3   OH270140   1.956   4.594   1.854  0.4321 -0.7254 -0.1984
16242TIP3    H170141   1.920   4.539   1.923 -1.3588 -0.1682 -0.6790
16242TIP3    H270142   1.892   4.590   1.783  2.0191 -0.9082 -1.6629
16243TIP3   OH270143   0.479   2.104   4.828 -0.2426 -0.3167 -0.2994
16243TIP3    H170144   0.441   2.145   4.750  2.3355  0.2046 -1.3389
16243TIP3    H270145   0.473   2.172   4.896 -2.5006 -0.7750 -0.0139
16244TIP3   OH270146   1.908   5.238  11.830  0.1278 -0.3303 -0.3117
16244TIP3    H170147   1.904   5.333  11.823  0.9138 -0.3754 -1.4720
16244TIP3    H270148   1.881   5.219  11.920 -1.3868  0.8957 -0.4851
16245TIP3   OH270149   3.472   4.052  16.558  0.2938  0.1201 -0.3659
16245TIP3    H170150   3.413   4.123  16.580 -0.3331 -0.1175 -1.2184
16245TIP3    H270151   3.423   3.999  16.495  0.6012 -1.2749  0.5369
16246TIP3   OH270152   1.174   4.457   2.496 -0.5131 -0.5949 -0.3275
16246TIP3    H170153   1.124   4.376   2.495 -2.0995  0.3566 -1.9069
16246TIP3    H270154   1.248   4.439   2.554 -1.1360 -2.9648 -0.2081
16247TIP3   OH270155   3.409   2.603   5.013  0.2786 -0.4568 -0.0803
16247TIP3    H170156   3.500   2.604   5.043 -0.0581  2.8612  0.9602
16247TIP3    H270157   3.374   2.687   5.040 -2.5785 -0.9224 -2.1625
16248TIP3   OH270158   4.658   2.067  10.534  0.8301 -0.7765 -0.4554
16248TIP3    H170159   4.675   2.001  10.601 -3.3724 -0.9228  0.5671
16248TIP3    H270160   4.614   2.020  10.463  0.6614  0.3287 -1.1074
16249TIP3   OH270161   6.465   4.066   2.177  0.0244 -0.0119  0.0567
16249TIP3    H170162   6.403   3.999   2.206 -0.0390  0.3325  0.7309
16249TIP3    H270163   6.419   4.149   2.190 -0.4019  0.1097 -2.0272
16250TIP3   OH270164   0.674   6.209   2.529  0.2539 -0.2337  0.2485
16250TIP3    H170165   0.651   6.247   2.445  1.1129 -0.6416 -0.1729
16250TIP3    H270166   0.608   6.243   2.590  0.1403  0.7307 -0.4163
16251TIP3   OH270167   0.858   1.229  16.754 -0.1771  0.7632  0.0630
16251TIP3    H170168   0.773   1.210  16.715 -0.0040  2.2638 -1.0654
16251TIP3    H270169   0.900   1.143  16.761 -0.7533  0.3079 -1.7928
16252TIP3   OH270170   0.177   6.727  11.092  0.8283  0.3675  0.4901
16252TIP3    H170171   0.093   6.712  11.049  1.2901 -1.1594  0.1098
16252TIP3    H270172   0.155   6.776  11.172 -0.2601  1.2528 -0.3426
16253TIP3   OH270173   1.306   1.966   1.995 -0.1079 -1.0287 -0.2482
16253TIP3    H170174   1.296   1.955   1.900 -0.2216  0.0117 -0.3681
16253TIP3    H270175   1.396   1.938   2.013  0.2221 -0.3536 -0.8078
16254TIP3   OH270176   1.259   5.810   4.289  0.1890 -0.2987 -0.3123
16254TIP3    H170177   1.291   5.751   4.221 -2.5265 -0.5407 -1.4560
16254TIP3    H270178   1.207   5.755   4.347  1.1015  0.2222  1.0488
16255TIP3   OH270179   2.084   6.423  15.637 -0.0744  0.0956 -0.4163
16255TIP3    H170180   2.077   6.462  15.550  0.2073  0.5859 -0.2263
16255TIP3    H270181   2.141   6.347  15.626  0.2900  0.3916 -0.5902
16256TIP3   OH270182   2.206   0.253   0.113 -0.1414 -0.3549  0.2147
16256TIP3    H170183   2.127   0.274   0.162 -0.1061  1.2020 -0.3797
16256TIP3    H270184   2.189   0.166   0.076 -1.2306 -0.3904  0.7958
16257TIP3   OH270185   2.911   3.226  11.497  0.3871 -0.0493 -0.0780
16257TIP3    H170186   2.894   3.167  11.424  1.2339 -0.9467  0.4482
16257TIP3    H270187   2.824   3.258  11.522  0.0592  0.0604 -1.2857
16258TIP3   OH270188   2.869   4.711  15.197  0.2355  0.3614 -0.0188
16258TIP3    H170189   2.950   4.662  15.181  0.6830  0.5965  1.3938
16258TIP3    H270190   2.899   4.801  15.213 -0.2667  0.3826  0.8425
16259TIP3   OH270191   4.123   6.156   1.105  0.6552  0.0364 -0.7790
16259TIP3    H170192   4.192   6.140   1.041 -0.8734 -1.8373 -2.0114
16259TIP3    H270193   4.051   6.192   1.054  0.5686  1.6266  0.4330
16260TIP3   OH270194   5.367   3.120  16.336 -0.1041  0.1471  0.9789
16260TIP3    H170195   5.454   3.153  16.315  0.0752  0.0296  1.5212
16260TIP3    H270196   5.314   3.142  16.260 -0.2656  2.7357  1.7593
16261TIP3   OH270197   3.153   1.874   5.462 -0.4572 -0.0934  0.3291
16261TIP3    H170198   3.083   1.919   5.414  0.5326 -0.2626 -1.3126
16261TIP3    H270199   3.225   1.937   5.463 -0.1312 -0.4730  0.7504
16262TIP3   OH270200   1.786   6.620   2.269 -0.5408  0.8607 -0.3080
16262TIP3    H170201   1.853   6.600   2.204 -0.8259 -0.3447 -0.2317
16262TIP3    H270202   1.723   6.674   2.222  2.1224  4.8894  0.4724
16263TIP3   OH270203   1.852   4.908   2.351  0.5035  0.3431  0.3932
16263TIP3    H170204   1.912   4.856   2.297  0.0568  1.7131 -1.4534
16263TIP3    H270205   1.909   4.957   2.409  1.0693 -0.0886  0.2132
16264TIP3   OH270206   0.748   6.623   6.273 -0.5128 -0.2780  0.0667
16264TIP3    H170207   0.734   6.671   6.354  2.5379  0.9527 -0.0659
16264TIP3    H270208   0.690   6.665   6.209  0.8548  2.1686  0.3836
16265TIP3   OH270209   1.127   6.359   3.370 -0.2855 -0.2516  0.3906
16265TIP3    H170210   1.171   6.328   3.449 -0.3771 -0.6617  0.2844
16265TIP3    H270211   1.060   6.419   3.402  0.3537  0.3812  0.5521
16266TIP3   OH270212   1.148   2.154   3.758  0.2211  0.0506  0.5245
16266TIP3    H170213   1.055   2.134   3.770  0.1142 -0.3713 -0.8948
16266TIP3    H270214   1.185   2.074   3.721  0.7686  0.8428 -0.6493
16267TIP3   OH270215   0.017   3.742   3.234  0.3084 -0.0805  0.1893
16267TIP3    H170216   0.060   3.811   3.285 -0.8413  0.4912  0.4224
16267TIP3    H270217  -0.046   3.703   3.295 -0.1107 -0.3076 -0.3803
16268TIP3   OH270218   2.074   5.615  13.442  0.2721  0.3998 -0.1117
16268TIP3    H170219   2.159   5.629  13.483  0.3862 -1.1078  0.1833
16268TIP3    H270220   2.094   5.603  13.349  0.4510 -0.7390  0.0779
16269TIP3   OH270221   0.728   3.878  12.070  0.0608  0.5101 -0.3259
16269TIP3    H170222   0.777   3.870  11.988 -0.9589 -0.2319 -0.8720
16269TIP3    H270223   0.683   3.794  12.080  0.2224  0.5665  1.0329
16270TIP3   OH270224   1.750   6.348  15.878 -0.1641  0.2495 -0.3831
16270TIP3    H170225   1.805   6.270  15.880 -0.8884 -0.2807 -0.7811
16270TIP3    H270226   1.729   6.366  15.970  0.6766  0.4633 -0.2304
16271TIP3   OH270227   3.526   6.689  11.935 -0.4374 -0.4625 -0.1502
16271TIP3    H170228   3.515   6.678  12.029 -2.5884 -3.8703 -0.7127
16271TIP3    H270229   3.489   6.776  11.917  1.6389  1.0151  2.3079
16272TIP3   OH270230   1.251   2.078   2.373  0.5156  0.1640 -0.5725
16272TIP3    H170231   1.313   2.005   2.371  0.2045 -0.1701  1.1734
16272TIP3    H270232   1.278   2.133   2.300  2.4559 -0.3147 -0.2721
16273TIP3   OH270233   6.626   3.856  16.163 -0.1753  0.1312 -0.9227
16273TIP3    H170234   6.564   3.841  16.091  0.3936  0.9909 -1.6057
16273TIP3    H270235   6.647   3.949  16.157  0.6086  0.0043 -0.2282
16274TIP3   OH270236   1.641   0.126  17.060 -0.1271  0.1782  0.2321
16274TIP3    H170237   1.574   0.087  17.117  1.1078 -1.0937  0.8358
16274TIP3    H270238   1.596   0.139  16.976 -1.8708  1.7658  1.3692
16275TIP3   OH270239   4.144   3.693  12.608  0.0471  0.1653  0.6462
16275TIP3    H170240   4.148   3.617  12.550 -0.5381 -0.2730  1.1770
16275TIP3    H270241   4.235   3.723  12.614  0.1920 -0.1427 -0.0267
16276TIP3   OH270242   5.363   3.439   2.479  0.2244 -0.0683  0.1649
16276TIP3    H170243   5.346   3.389   2.399  1.4631 -3.3664  1.9184
16276TIP3    H270244   5.276   3.463   2.511 -0.3548 -0.5396 -1.0171
16277TIP3   OH270245   2.490   2.169   6.459 -0.2817  0.0012  0.2779
16277TIP3    H170246   2.563   2.231   6.462 -0.0538 -0.3281  1.9040
16277TIP3    H270247   2.532   2.083   6.456 -0.5935 -0.1620  0.5487
16278TIP3   OH270248   3.000   2.492   0.336 -0.6484 -0.2914  0.1936
16278TIP3    H170249   3.079   2.488   0.282 -0.0524  0.4429  1.0018
16278TIP3    H270250   2.954   2.571   0.306 -0.4031  0.0211  0.6279
16279TIP3   OH270251   1.138   2.397  12.884 -0.0107  0.6829 -0.1660
16279TIP3    H170252   1.182   2.412  12.800 -0.8304  1.2054 -0.5070
16279TIP3    H270253   1.111   2.485  12.912 -2.0281  0.2445 -0.6277
16280TIP3   OH270254   5.134   1.888   2.172 -0.5667  0.3921 -0.0238
16280TIP3    H170255   5.074   1.900   2.245 -1.3890 -0.7467 -0.4974
16280TIP3    H270256   5.122   1.967   2.119 -0.6394  0.7964  0.5874
16281TIP3   OH270257   1.970   4.744  15.961 -0.1235  0.1693 -0.5950
16281TIP3    H170258   2.019   4.729  15.881 -0.5162  0.5271 -0.9060
16281TIP3    H270259   2.017   4.816  16.005  0.8127 -0.8639  0.1061
16282TIP3   OH270260   1.461   0.445  17.041  0.7847 -0.3796  0.0819
16282TIP3    H170261   1.450   0.350  17.043  1.6360 -0.4910 -0.2532
16282TIP3    H270262   1.415   0.477  17.119 -1.9937 -0.7827 -1.3109
16283TIP3   OH270263   6.579   6.015   2.509  0.0789 -0.1906 -0.1829
16283TIP3    H170264   6.617   5.968   2.435 -0.1851 -0.7521  0.0363
16283TIP3    H270265   6.591   5.957   2.584 -2.6795 -1.1247 -0.4088
16284TIP3   OH270266   4.756   3.057   5.676  0.1519 -0.5019  0.2483
16284TIP3    H170267   4.803   3.080   5.596 -0.8205 -0.6084 -0.3647
16284TIP3    H270268   4.679   3.114   5.676 -0.6360 -1.5358  0.3175
16285TIP3   OH270269   3.589   2.840   4.926 -1.0248 -1.6911 -0.2444
16285TIP3    H170270   3.629   2.922   4.898 -1.0669 -1.6718 -0.2483
16285TIP3    H270271   3.554   2.802   4.845 -0.2980 -2.1020 -0.3678
16286TIP3   OH270272   3.311   5.446  16.202 -0.5321 -0.0226  0.7663
16286TIP3    H170273   3.324   5.539  16.181 -1.9112  0.4272  1.8026
16286TIP3    H270274   3.334   5.400  16.122 -0.2148  1.2444  0.1085
16287TIP3   OH270275   1.474   4.737  16.510 -0.3903 -0.2174  0.2522
16287TIP3    H170276   1.399   4.739  16.451 -1.7198 -1.6418  1.8487
16287TIP3    H270277   1.511   4.649  16.499  2.6980  1.3280 -2.4816
16288TIP3   OH270278   3.087   3.099   5.050 -0.7701  0.4874 -0.0254
16288TIP3    H170279   3.116   3.085   4.960  0.3841  2.4991 -0.0171
16288TIP3    H270280   3.012   3.158   5.042  0.0222  1.5709  0.3636
16289TIP3   OH270281   5.216   3.087   0.616  0.0211 -0.2562 -0.5120
16289TIP3    H170282   5.257   3.028   0.679  0.8830 -1.5359 -2.2309
16289TIP3    H270283   5.285   3.147   0.590 -0.6737  1.1036  0.7067
16290TIP3   OH270284   6.211   3.257   3.690 -0.0066  0.8204 -0.0476
16290TIP3    H170285   6.185   3.181   3.638 -3.5089  2.4419 -0.7579
16290TIP3    H270286   6.243   3.219   3.772  0.0191 -1.4822 -1.0809
16291TIP3   OH270287   4.950   2.187   3.816 -0.4592  0.1444  0.3093
16291TIP3    H170288   4.999   2.203   3.897 -0.0050  2.3171 -0.3662
16291TIP3    H270289   5.008   2.131   3.764 -0.4858 -0.7360  1.2245
16292TIP3   OH270290   3.524   6.576   5.966  0.0333  0.2876 -0.3208
16292TIP3    H170291   3.574   6.602   6.043 -0.4965 -0.0965  0.1623
16292TIP3    H270292   3.471   6.502   5.996  0.7590 -0.6827 -1.3865
16293TIP3   OH270293   3.926   4.714  12.333 -0.0276  0.1496  0.0271
16293TIP3    H170294   3.954   4.765  12.257 -0.4951 -0.0199 -0.2656
16293TIP3    H270295   3.963   4.760  12.408  0.1781  0.4965 -0.2825
16294TIP3   OH270296   4.058   2.773  10.844  0.2009 -0.0482 -0.0777
16294TIP3    H170297   4.106   2.856  10.846  1.7610 -0.9571  0.7900
16294TIP3    H270298   4.014   2.769  10.928 -0.6628  0.3519 -0.5081
16295TIP3   OH270299   3.078   6.488   0.109 -0.6971 -0.1945 -0.1601
16295TIP3    H170300   3.022   6.565   0.093 -0.0699 -0.0608 -1.8215
16295TIP3    H270301   3.030   6.415   0.070  0.4218 -0.0168 -1.9493
16296TIP3   OH270302   5.499   4.910  16.136 -1.2154  0.0594  0.0806
16296TIP3    H170303   5.563   4.972  16.171 -1.9065  0.1226  1.2421
16296TIP3    H270304   5.533   4.889  16.049 -0.4405  1.2953  0.0578
16297TIP3   OH270305   3.320   3.096  10.482  0.0961 -0.1227 -0.1518
16297TIP3    H170306   3.409   3.063  10.483 -0.1243 -0.7280  0.9412
16297TIP3    H270307   3.265   3.017  10.478 -0.3956  0.1992  0.1275
16298TIP3   OH270308   3.529   0.061  15.186 -0.0882  0.2718 -0.4658
16298TIP3    H170309   3.446   0.028  15.151 -0.5357  3.3792 -2.5302
16298TIP3    H270310   3.512   0.074  15.280 -1.3896 -0.7425 -0.5551
16299TIP3   OH270311   1.005   3.468   0.604  0.5271  0.0042  0.0564
16299TIP3    H170312   0.942   3.397   0.602  2.0758 -1.4177  0.5903
16299TIP3    H270313   1.018   3.487   0.697  1.0029  0.1687 -0.0405
16300TIP3   OH270314   0.452   0.959   5.178  0.1866 -0.7972  0.3167
16300TIP3    H170315   0.511   1.031   5.157  0.9090 -1.4741 -0.0035
16300TIP3    H270316   0.375   1.001   5.216 -0.1166  0.2701 -1.4344
16301TIP3   OH270317   5.936   0.025   3.597 -0.1392 -0.8512 -0.4319
16301TIP3    H170318   5.965  -0.014   3.515  0.8231 -0.3289 -0.3507
16301TIP3    H270319   5.974   0.113   3.597  0.1741 -0.9739  0.7408
16302TIP3   OH270320   4.346   3.355  17.146 -0.0173 -0.7475 -0.0139
16302TIP3    H170321   4.303   3.338  17.230  0.2130 -1.0527  0.0430
16302TIP3    H270322   4.354   3.450  17.142  0.7139 -0.7744  0.6862
16303TIP3   OH270323   3.163   4.073  13.394  0.5534 -0.0984 -0.7034
16303TIP3    H170324   3.129   4.154  13.432  1.0525 -0.5418  0.7305
16303TIP3    H270325   3.089   4.037  13.346 -0.4400 -0.0582  0.7581
16304TIP3   OH270326   0.263   3.632   0.130  0.9088 -0.0711 -0.0594
16304TIP3    H170327   0.180   3.607   0.089  1.0712  2.2280 -1.9464
16304TIP3    H270328   0.241   3.709   0.183  1.7371  0.3621 -0.3312
16305TIP3   OH270329   1.677   5.346   3.908  0.0211  0.5816 -0.0395
16305TIP3    H170330   1.607   5.327   3.845 -1.4517 -1.3804  2.0740
16305TIP3    H270331   1.648   5.303   3.989  2.9655  1.0385  1.3238
16306TIP3   OH270332   0.791   4.584   0.983 -0.7482  0.0726 -0.0060
16306TIP3    H170333   0.707   4.562   0.943 -1.1157  1.5472 -0.0636
16306TIP3    H270334   0.770   4.613   1.071 -0.4451  1.7339 -0.4644
16307TIP3   OH270335   5.413   4.929   1.599 -0.5008  0.1390 -0.1032
16307TIP3    H170336   5.359   4.961   1.527  0.1287 -0.1383 -0.6957
16307TIP3    H270337   5.410   4.833   1.591  0.4826  0.1399 -0.4247
16308TIP3   OH270338   0.166   2.171  14.225 -0.1664  0.5003  0.5544
16308TIP3    H170339   0.217   2.244  14.191 -2.8774  1.5526 -1.3851
16308TIP3    H270340   0.122   2.207  14.302  0.1099  0.2923  0.8108
16309TIP3   OH270341   3.374   3.456   0.257 -0.1388 -0.0007  0.9513
16309TIP3    H170342   3.460   3.498   0.246 -0.7256  0.7227 -1.0268
16309TIP3    H270343   3.385   3.369   0.220 -0.8304  0.8446 -1.3365
16310TIP3   OH270344   2.285   4.845  12.648 -0.2710 -0.1879 -0.0522
16310TIP3    H170345   2.225   4.770  12.656  0.0963 -0.5359 -0.4945
16310TIP3    H270346   2.363   4.808  12.605  0.2423  0.2686  0.4729
16311TIP3   OH270347   6.585   1.488  16.019  0.0347  0.9002 -0.0768
16311TIP3    H170348   6.662   1.540  15.997  1.7731 -1.3680  0.4877
16311TIP3    H270349   6.576   1.497  16.113  0.9628 -0.5902  0.1780
16312TIP3   OH270350   5.259   3.952   4.646  0.1861 -0.1489 -0.5011
16312TIP3    H170351   5.322   3.929   4.714 -2.2114  2.4396  2.7503
16312TIP3    H270352   5.264   4.047   4.639 -3.0209  0.0902 -0.4645
16313TIP3   OH270353   1.132   1.513  15.252 -0.1157  0.2378 -1.1000
16313TIP3    H170354   1.161   1.603  15.269  0.2360  0.3491 -2.2567
16313TIP3    H270355   1.038   1.514  15.271  0.3402  0.2240  1.3107
16314TIP3   OH270356   0.699   2.265  14.932 -0.6255 -0.1391  0.6195
16314TIP3    H170357   0.746   2.242  15.012 -0.0447 -0.9994  0.0387
16314TIP3    H270358   0.679   2.181  14.891 -0.6832  0.3073 -0.2789
16315TIP3   OH270359   2.923   3.893   0.919  0.3366  0.0273  0.5232
16315TIP3    H170360   2.862   3.962   0.894 -1.3272 -1.3810  0.5591
16315TIP3    H270361   2.999   3.939   0.956 -0.8143  1.7998  0.7235
16316TIP3   OH270362   6.256   5.285  10.419  0.2295  0.2551  0.1045
16316TIP3    H170363   6.317   5.220  10.455 -0.4700 -0.2541  0.3681
16316TIP3    H270364   6.209   5.318  10.495  0.2186  0.6917 -0.0933
16317TIP3   OH270365   3.764   0.084   2.597  0.2024 -0.4191  0.5709
16317TIP3    H170366   3.721   0.084   2.511  0.1337 -0.3732  0.6052
16317TIP3    H270367   3.858   0.080   2.577  0.2422  0.7212  0.4569
16318TIP3   OH270368   1.514   0.978  16.438 -0.0833 -0.1094  0.6605
16318TIP3    H170369   1.560   0.919  16.378 -0.3426  0.0295  0.3249
16318TIP3    H270370   1.584   1.017  16.490  0.0070 -1.5247  1.6306
16319TIP3   OH270371   3.717   3.677  15.064 -0.0524  0.5525  0.1459
16319TIP3    H170372   3.730   3.682  15.159  0.3284 -0.4336  0.1435
16319TIP3    H270373   3.628   3.709  15.051 -0.4004 -0.0885  0.9206
16320TIP3   OH270374   2.080   2.094   1.010  0.6768  0.3263 -0.1073
16320TIP3    H170375   2.086   2.189   1.001  1.3315  0.1967 -1.0344
16320TIP3    H270376   2.010   2.081   1.075 -0.6553  1.3857 -1.3005
16321TIP3   OH270377   1.841   6.124  13.334 -0.1431  0.0883 -0.4166
16321TIP3    H170378   1.871   6.034  13.346 -0.6508 -0.0985 -0.5442
16321TIP3    H270379   1.798   6.147  13.416 -0.0233  0.2118 -0.3871
16322TIP3   OH270380   4.897   5.060   5.387  0.4221  0.2027  0.7499
16322TIP3    H170381   4.856   5.017   5.462  0.2635 -0.1491  0.4644
16322TIP3    H270382   4.912   4.990   5.324 -0.7423  0.7120 -0.1197
16323TIP3   OH270383   1.524   2.451   5.960 -0.2708  0.8394  0.6460
16323TIP3    H170384   1.498   2.360   5.975  0.9981  0.4724  0.6520
16323TIP3    H270385   1.585   2.470   6.031 -0.2491  1.5860  0.4285
16324TIP3   OH270386   6.281   2.930  15.132  0.6977 -0.4544 -0.7613
16324TIP3    H170387   6.337   2.967  15.200 -1.5966  0.7835  0.4655
16324TIP3    H270388   6.280   2.836  15.151 -0.8604  0.0132  1.6322
16325TIP3   OH270389   5.919   4.484  15.618 -0.1677 -0.0314  0.5865
16325TIP3    H170390   5.857   4.551  15.647  0.5973  0.8926  0.1191
16325TIP3    H270391   5.898   4.469  15.526  0.2249  0.2067  0.4551
16326TIP3   OH270392   0.204   1.639  12.295  0.4442  0.1840  0.5038
16326TIP3    H170393   0.281   1.682  12.331 -0.5045  2.2362  0.1625
16326TIP3    H270394   0.142   1.634  12.368  0.4685 -0.4451  0.4906
16327TIP3   OH270395   6.568   1.190   5.323 -0.3286 -0.0870 -0.6351
16327TIP3    H170396   6.561   1.187   5.418 -0.9679 -0.5548 -0.6883
16327TIP3    H270397   6.486   1.233   5.295 -0.4050 -0.4681 -0.9994
16328TIP3   OH270398   3.043   0.568  12.359 -0.0042  0.1074  0.3532
16328TIP3    H170399   2.954   0.562  12.394  0.1367 -3.3972  0.2869
16328TIP3    H270400   3.037   0.528  12.272  1.3589  1.1902 -0.2593
16329TIP3   OH270401   1.706   1.125   3.877  0.1933  0.1273 -0.6002
16329TIP3    H170402   1.794   1.093   3.899  0.9026 -0.3818 -3.8946
16329TIP3    H270403   1.719   1.219   3.862  0.1872  0.0531 -1.0773
16330TIP3   OH270404   1.642   1.956   1.761  0.3757  0.6015 -0.0020
16330TIP3    H170405   1.651   1.955   1.857 -0.6333 -0.6361  0.0971
16330TIP3    H270406   1.640   1.863   1.737  2.5985  0.8852 -1.4414
16331TIP3   OH270407   6.629   0.724   5.146 -0.1600 -0.9731  0.9827
16331TIP3    H170408   6.569   0.736   5.072  0.4556 -1.7266  0.3492
16331TIP3    H270409   6.573   0.692   5.217 -0.4280 -2.2146  0.2280
16332TIP3   OH270410   2.004   4.265   3.385  0.0240  0.1384 -0.0400
16332TIP3    H170411   1.916   4.247   3.352 -0.3523 -0.4572  1.2349
16332TIP3    H270412   2.052   4.300   3.310 -1.1403 -0.0619 -0.8838
16333TIP3   OH270413   1.436   0.160  15.783  0.0478  0.2530  0.1060
16333TIP3    H170414   1.342   0.148  15.774  0.1361 -1.1426  0.8372
16333TIP3    H270415   1.445   0.243  15.831 -0.7799  0.7589 -0.6069
16334TIP3   OH270416   5.043   4.765   0.673 -0.4769  0.0361  0.3845
16334TIP3    H170417   4.982   4.812   0.731 -0.8796 -0.7660  0.6114
16334TIP3    H270418   5.128   4.805   0.692 -0.4806 -0.6909  2.0615
16335TIP3   OH270419   3.239   3.907  11.741 -0.3895 -0.4072 -0.0549
16335TIP3    H170420   3.272   3.894  11.652  0.3145  2.5394 -0.2702
16335TIP3    H270421   3.318   3.905  11.796 -0.2691  2.2624 -0.0609
16336TIP3   OH270422   3.085   3.904  16.285  0.0131  0.3605  0.1627
16336TIP3    H170423   3.040   3.985  16.308 -0.4240 -0.8402  3.8218
16336TIP3    H270424   3.014   3.844  16.260  0.1133  0.3188 -0.0200
16337TIP3   OH270425   1.502   3.291  15.632  0.0011 -0.2197 -0.4722
16337TIP3    H170426   1.454   3.324  15.709  1.4070  1.6866 -0.3669
16337TIP3    H270427   1.562   3.226  15.667 -0.2493 -0.2700 -0.1325
16338TIP3   OH270428   4.047   0.231  16.741 -0.2225 -0.3081 -0.1990
16338TIP3    H170429   3.986   0.216  16.813 -0.2368 -0.7382 -0.2942
16338TIP3    H270430   4.132   0.204  16.776  0.1709  1.6496  0.4133
16339TIP3   OH270431   0.451   5.733   3.754 -0.1997  0.7365 -0.4083
16339TIP3    H170432   0.497   5.812   3.726  3.3127 -1.3106 -0.7465
16339TIP3    H270433   0.469   5.669   3.685 -0.4158 -1.2384  1.3075
16340TIP3   OH270434   3.923   3.212  16.893  0.0879 -0.7054  0.0353
16340TIP3    H170435   3.992   3.183  16.953 -1.3377 -2.5549  0.8155
16340TIP3    H270436   3.952   3.183  16.807 -0.9688 -3.9134  0.7123
16341TIP3   OH270437   6.617   4.134  17.067  0.6840  0.1895  0.0195
16341TIP3    H170438   6.665   4.141  17.149 -1.6798  0.1696  1.4437
16341TIP3    H270439   6.602   4.224  17.040 -1.1186  0.2555  1.1812
16342TIP3   OH270440   1.458   0.305   5.439 -0.6587 -0.1676  0.1124
16342TIP3    H170441   1.530   0.323   5.378  0.5551  0.2813  1.6444
16342TIP3    H270442   1.379   0.315   5.386  0.3613  0.4841 -1.3255
16343TIP3   OH270443   5.402   4.932   3.997  0.2458  0.1864 -0.3860
16343TIP3    H170444   5.480   4.878   3.983  0.0195 -0.0357 -0.7875
16343TIP3    H270445   5.332   4.885   3.954  0.4119  1.7351 -2.4280
16344TIP3   OH270446   1.657   0.453  12.969  0.6337  0.3296  0.8146
16344TIP3    H170447   1.652   0.545  12.944 -2.1031 -0.2086 -0.7771
16344TIP3    H270448   1.734   0.420  12.922 -0.1988  1.0824 -1.1348
16345TIP3   OH270449   4.431   4.650  14.566  0.0964  0.2749  0.3473
16345TIP3    H170450   4.367   4.630  14.498 -3.1750  2.1666  2.7080
16345TIP3    H270451   4.427   4.575  14.625 -0.6298  0.7968  0.9680
16346TIP3   OH270452   2.906   4.109  11.895 -0.3800 -0.3704  0.0521
16346TIP3    H170453   2.940   4.171  11.959 -0.2015 -0.8252  0.4032
16346TIP3    H270454   2.983   4.078  11.848 -0.4712 -0.3049 -0.1387
16347TIP3   OH270455   2.763   6.446  11.317 -0.0413 -0.1845 -0.0869
16347TIP3    H170456   2.815   6.407  11.248 -0.6537 -0.5143 -0.3636
16347TIP3    H270457   2.764   6.381  11.388  1.5839  0.6645  0.6846
16348TIP3   OH270458   2.524   3.815   0.758  0.3332  0.4215 -0.0903
16348TIP3    H170459   2.539   3.754   0.831 -1.7530  1.2945  1.1127
16348TIP3    H270460   2.571   3.894   0.783  0.8232  0.2241 -0.3847
16349TIP3   OH270461   5.365   2.761  11.903 -0.3137  0.1895  0.1216
16349TIP3    H170462   5.446   2.791  11.944  0.7337 -1.3167 -0.7845
16349TIP3    H270463   5.314   2.725  11.974  1.0204 -1.3953  0.3111
16350TIP3   OH270464   1.635   1.263  14.763 -0.3580 -0.0940  0.0940
16350TIP3    H170465   1.679   1.183  14.735  0.3173  0.0113  0.8151
16350TIP3    H270466   1.572   1.233  14.829 -1.1570 -0.2064 -0.7136
16351TIP3   OH270467   5.624   6.336  10.929 -0.1756  0.8536  0.0643
16351TIP3    H170468   5.546   6.298  10.890 -0.4511  0.8921  0.5791
16351TIP3    H270469   5.689   6.265  10.928 -0.4304  0.6175  0.2637
16352TIP3   OH270470   2.165   6.785  13.791 -0.1895  0.2203 -0.2480
16352TIP3    H170471   2.173   6.879  13.775 -1.6629  0.1141 -1.6503
16352TIP3    H270472   2.108   6.778  13.867 -1.0184  0.4221 -0.8529
16353TIP3   OH270473   5.996   0.118  14.774  0.2445  0.5011  0.1073
16353TIP3    H170474   5.912   0.139  14.735  0.4866 -2.4077 -2.1429
16353TIP3    H270475   5.975   0.090  14.863 -1.1312 -0.1495 -0.4167
16354TIP3   OH270476   1.717   1.043  13.207 -0.3568 -0.1540  0.0606
16354TIP3    H170477   1.697   0.996  13.126  1.0581  0.2374 -0.5332
16354TIP3    H270478   1.790   0.994  13.245 -1.1151 -0.4323  1.2034
16355TIP3   OH270479   1.976   3.312  11.604 -0.0576  0.1769  0.4578
16355TIP3    H170480   2.064   3.276  11.620 -0.3835 -0.9992 -0.3301
16355TIP3    H270481   1.980   3.402  11.638  0.9367 -0.4241  1.9542
16356TIP3   OH270482   4.387   5.998  13.849  0.7247  0.0417  0.1665
16356TIP3    H170483   4.357   5.963  13.765  1.8773  2.1621 -1.1829
16356TIP3    H270484   4.367   5.929  13.912  1.3975 -2.3275 -2.1075
16357TIP3   OH270485   4.688   0.957  13.121 -0.2894 -0.1933 -0.2941
16357TIP3    H170486   4.723   0.885  13.173 -0.1413 -0.8483 -1.2879
16357TIP3    H270487   4.700   0.929  13.030  1.1078  1.7228 -0.7157
16358TIP3   OH270488   4.236   0.785  12.908 -0.1874  0.8947 -0.0489
16358TIP3    H170489   4.300   0.824  12.849 -0.0767  0.3882 -0.2660
16358TIP3    H270490   4.271   0.798  12.995  1.1171 -0.9915 -0.2570
16359TIP3   OH270491   1.831   6.247  16.331  0.6105  0.4105  0.3660
16359TIP3    H170492   1.832   6.155  16.358  0.6513  0.3718  0.2355
16359TIP3    H270493   1.893   6.251  16.258 -2.3370 -0.2948 -2.2940
16360TIP3   OH270494   0.841   0.996   3.399 -0.2972 -0.1600  0.4012
16360TIP3    H170495   0.920   1.032   3.358  0.3771 -0.9102  1.0302
16360TIP3    H270496   0.770   1.020   3.339  0.2606  1.3847  0.3289
16361TIP3   OH270497   0.531   0.149   3.229  0.5748 -0.3055 -0.1632
16361TIP3    H170498   0.474   0.225   3.234  0.3003 -0.6176  1.5598
16361TIP3    H270499   0.505   0.094   3.303  3.4535 -0.2127  0.9878
16362TIP3   OH270500   5.218   4.258   3.468 -0.0714  0.1790 -0.0930
16362TIP3    H170501   5.193   4.296   3.383 -2.2557  0.0138  0.4398
16362TIP3    H270502   5.182   4.170   3.466 -0.2478  0.2214  1.0654
16363TIP3   OH270503   1.619   4.042   5.906  0.2633 -0.4994  0.1464
16363TIP3    H170504   1.542   4.003   5.949 -0.2681 -0.2076 -0.5314
16363TIP3    H270505   1.672   3.967   5.880 -0.9389 -0.7981 -1.4866
16364TIP3   OH270506   0.400   2.567  11.534  0.1394  0.3627  0.2219
16364TIP3    H170507   0.404   2.496  11.469  0.7994  2.1774 -1.7651
16364TIP3    H270508   0.373   2.644  11.485 -0.6053  1.5130  2.3682
16365TIP3   OH270509   5.063   5.482   3.686  0.1072  0.4592  0.4138
16365TIP3    H170510   5.034   5.395   3.660  2.3024 -0.2416  0.1886
16365TIP3    H270511   5.080   5.474   3.780  0.6420  0.5425  0.3257
16366TIP3   OH270512   4.348   5.114   5.450  0.6275 -0.0242  0.4349
16366TIP3    H170513   4.424   5.146   5.400  0.7310  1.3777  1.4666
16366TIP3    H270514   4.362   5.148   5.538  0.6647 -2.8493  1.5644
16367TIP3   OH270515   5.490   4.757  16.796 -0.2814  0.3372 -0.0800
16367TIP3    H170516   5.560   4.693  16.784  0.2369  1.4595 -3.3477
16367TIP3    H270517   5.415   4.720  16.750 -0.7544  0.8868  0.2449
16368TIP3   OH270518   6.015   2.940   1.080 -0.3950 -0.6023 -0.0743
16368TIP3    H170519   6.011   2.990   1.162 -0.5683 -1.2834  0.3325
16368TIP3    H270520   6.050   2.855   1.105 -0.3206 -0.7684 -0.7314
16369TIP3   OH270521   0.220   5.477   2.424 -0.4648  0.4544  0.1559
16369TIP3    H170522   0.277   5.483   2.347  0.2687 -1.3186  0.5505
16369TIP3    H270523   0.159   5.550   2.413  2.1060  2.6743 -0.0742
16370TIP3   OH270524   5.601   6.507   2.971 -0.1962 -0.4812 -0.0621
16370TIP3    H170525   5.648   6.583   3.006  0.4298 -1.4156  1.1449
16370TIP3    H270526   5.601   6.520   2.876 -0.8963  1.4890  0.1865
16371TIP3   OH270527   5.847   2.169   5.617  0.0227  0.4067  0.4333
16371TIP3    H170528   5.871   2.089   5.570 -0.2560  0.7823 -0.3359
16371TIP3    H270529   5.759   2.151   5.650  0.0805  0.2876  0.5287
16372TIP3   OH270530   0.443   4.328   4.691  0.4579  0.0823 -0.1830
16372TIP3    H170531   0.383   4.298   4.624 -0.4197  0.5131  0.4048
16372TIP3    H270532   0.519   4.271   4.682 -0.4822 -1.1805 -0.1947
16373TIP3   OH270533   3.146   0.661  14.209 -0.5714 -0.3502  0.1251
16373TIP3    H170534   3.092   0.676  14.287  0.0221  0.5490  0.3715
16373TIP3    H270535   3.149   0.746  14.165  0.8741 -0.3170  0.2679
16374TIP3   OH270536   1.933   2.171   0.452 -0.4696  0.0525  0.3066
16374TIP3    H170537   1.913   2.114   0.526 -1.1894  0.2917  0.3016
16374TIP3    H270538   1.866   2.239   0.455 -1.8382 -1.1247 -1.8344
16375TIP3   OH270539   2.968   2.782  12.342  0.1135  0.2060  1.1136
16375TIP3    H170540   2.998   2.824  12.422  1.2174  2.0956 -0.2610
16375TIP3    H270541   2.918   2.849  12.296  2.9240  0.5138 -1.6828
16376TIP3   OH270542   4.995   5.614   5.030 -0.1274 -0.4067 -0.2227
16376TIP3    H170543   5.072   5.629   5.086  0.0746  1.0539 -0.8682
16376TIP3    H270544   4.923   5.601   5.092  0.3607 -0.3005  0.3804
16377TIP3   OH270545   4.554   1.744   0.820  0.1609 -0.3356 -0.0508
16377TIP3    H170546   4.502   1.670   0.788 -0.2063 -0.2342  0.3137
16377TIP3    H270547   4.536   1.748   0.914  1.5875 -0.9079  0.2639
16378TIP3   OH270548   4.662   3.041  15.956 -0.1996  0.2904  0.1992
16378TIP3    H170549   4.645   3.030  15.863  0.8967  0.2279  0.0074
16378TIP3    H270550   4.652   3.135  15.972  0.2048  0.3811 -0.0943
16379TIP3   OH270551   0.806   5.603  14.587  0.0375  0.1127  0.1438
16379TIP3    H170552   0.771   5.620  14.675 -0.3975 -1.2742  0.2568
16379TIP3    H270553   0.872   5.535  14.600 -1.5476 -1.6537 -0.8672
16380TIP3   OH270554   1.628   5.069   4.490  0.7017  0.3812  0.1999
16380TIP3    H170555   1.620   5.164   4.489 -1.5637  0.2225 -0.7783
16380TIP3    H270556   1.559   5.040   4.550  1.2564 -0.6509  0.3410
16381TIP3   OH270557   3.370   3.736   1.003 -0.1546 -0.3010  0.1925
16381TIP3    H170558   3.425   3.813   0.995  2.4195 -2.1710 -0.7634
16381TIP3    H270559   3.333   3.723   0.915 -1.0132  0.1529  0.4853
16382TIP3   OH270560   2.885   6.095   2.003  0.1500  0.5503 -0.0839
16382TIP3    H170561   2.930   6.178   1.986 -0.8475  1.1853  0.3098
16382TIP3    H270562   2.799   6.121   2.035  0.0128 -0.6463  0.5429
16383TIP3   OH270563   6.506   1.246  15.066  0.3441 -0.0631 -0.0626
16383TIP3    H170564   6.471   1.219  15.151  0.8412  0.3915  0.2933
16383TIP3    H270565   6.567   1.317  15.087  2.0620 -1.3576 -0.5942
16384TIP3   OH270566   0.993   1.448  13.006  0.6380 -0.0049  0.2335
16384TIP3    H170567   0.900   1.465  13.021  0.8162  0.5318  0.7822
16384TIP3    H270568   1.013   1.495  12.925  0.4700  0.0187  0.2058
16385TIP3   OH270569   3.620   1.129  12.002  0.0648  0.0952 -0.0857
16385TIP3    H170570   3.564   1.116  11.925 -0.9921  2.4234  0.2474
16385TIP3    H270571   3.596   1.216  12.035  0.3583 -0.9206  2.9958
16386TIP3   OH270572   3.680   5.556  16.172 -0.1057  0.2355 -0.1895
16386TIP3    H170573   3.590   5.580  16.154  0.3322  0.4198 -2.2541
16386TIP3    H270574   3.715   5.529  16.087  1.9560  0.7539  0.4708
16387TIP3   OH270575   6.101   3.256  14.789 -0.6299  0.0413  0.5728
16387TIP3    H170576   6.178   3.209  14.823  0.5609  2.4211  1.3158
16387TIP3    H270577   6.075   3.314  14.861 -2.7500 -0.2694  0.0803
16388TIP3   OH270578   2.847   6.381  14.002 -0.1349  0.2207 -0.2486
16388TIP3    H170579   2.918   6.330  13.963  0.2965 -0.0498  0.8723
16388TIP3    H270580   2.799   6.417  13.928  2.1076  1.7278 -1.0073
16389TIP3   OH270581   3.063   3.269   5.570 -0.2804  0.0933 -0.6826
16389TIP3    H170582   3.022   3.183   5.573  0.9010 -0.4733 -0.1156
16389TIP3    H270583   3.066   3.291   5.477  0.8892 -1.2377 -0.9935
16390TIP3   OH270584   4.033   5.799  17.083 -0.4068  0.2937  0.1603
16390TIP3    H170585   3.965   5.740  17.114  0.0788  0.6922  2.0476
16390TIP3    H270586   4.056   5.766  16.996 -1.3252 -1.2680  0.4978
16391TIP3   OH270587   2.099   6.622   1.017  0.8864  0.6295  0.4916
16391TIP3    H170588   2.179   6.617   1.068  0.4367 -0.6519  1.0842
16391TIP3    H270589   2.128   6.618   0.926  1.5470  0.9978  0.6810
16392TIP3   OH270590   6.246   4.666  13.614 -0.1685  0.1737 -0.1923
16392TIP3    H170591   6.226   4.749  13.572 -0.4974 -0.1152 -0.6210
16392TIP3    H270592   6.326   4.682  13.665  1.5776 -0.0539 -2.7642
16393TIP3   OH270593   6.749   5.869  13.654 -0.1718 -0.1568  0.1993
16393TIP3    H170594   6.663   5.847  13.688 -0.7830 -2.0303 -2.4539
16393TIP3    H270595   6.806   5.798  13.685 -0.3226 -0.8046 -0.9914
16394TIP3   OH270596   5.837   5.076   1.716  0.4033  0.1450 -0.4448
16394TIP3    H170597   5.804   5.011   1.777  2.3564 -0.5790 -0.1212
16394TIP3    H270598   5.759   5.114   1.676 -0.7877 -1.4173  0.3730
16395TIP3   OH270599   3.179   2.027  12.985  0.0494  0.4040  0.2598
16395TIP3    H170600   3.215   2.011  12.898  0.2134  3.3998 -0.2740
16395TIP3    H270601   3.119   1.954  13.000  2.0896 -1.6530 -1.1750
16396TIP3   OH270602   6.704   3.021   3.258  0.0960  0.5886  0.0991
16396TIP3    H170603   6.669   3.049   3.343  1.1655  1.9746  0.1157
16396TIP3    H270604   6.799   3.035   3.265  0.0241  2.4107 -1.9046
16397TIP3   OH270605   1.152   0.114  16.681 -0.2575 -0.3156  0.5292
16397TIP3    H170606   1.085   0.047  16.697 -2.3436  1.5116 -0.3495
16397TIP3    H270607   1.139   0.178  16.750  3.1015 -1.7573  2.6081
16398TIP3   OH270608   6.693   0.490  16.043  0.6387  0.5014  0.3646
16398TIP3    H170609   6.769   0.441  16.009 -0.0175  0.3712 -0.9614
16398TIP3    H270610   6.622   0.426  16.043  0.2693  0.9128  0.5849
16399TIP3   OH270611   3.451   5.616  16.833  0.1265 -0.6006 -0.6630
16399TIP3    H170612   3.492   5.532  16.854 -0.0672 -0.2492  1.2045
16399TIP3    H270613   3.392   5.633  16.906  0.1515  1.1527 -1.0271
16400TIP3   OH270614   1.324   5.634  13.947 -0.4788  0.1921  0.4206
16400TIP3    H170615   1.413   5.605  13.963 -0.5702 -1.3995 -1.6572
16400TIP3    H270616   1.330   5.730  13.940  0.6200  0.3077  2.7594
16401TIP3   OH270617   6.507   4.293  15.846 -0.1132 -0.1795 -0.5462
16401TIP3    H170618   6.429   4.288  15.901 -0.6872 -2.1187 -1.4851
16401TIP3    H270619   6.489   4.366  15.787  0.1109  1.3171  1.2147
16402TIP3   OH270620   6.209   2.826  13.254  0.0841  0.1470  0.4277
16402TIP3    H170621   6.248   2.911  13.233 -0.8312  0.9182  1.7553
16402TIP3    H270622   6.215   2.776  13.173  1.4681  1.1535 -0.1196
16403TIP3   OH270623   2.694   3.334   3.668 -0.0079 -0.4328 -0.0570
16403TIP3    H170624   2.690   3.375   3.582  0.7511 -0.9416 -0.3405
16403TIP3    H270625   2.746   3.394   3.721  1.0395 -0.9829 -0.4510
16404TIP3   OH270626   6.636   4.266   1.666  0.7468  0.1389 -0.6233
16404TIP3    H170627   6.571   4.262   1.736 -0.3621 -0.2169 -1.6418
16404TIP3    H270628   6.594   4.221   1.592  2.0846  0.0639 -1.3584
16405TIP3   OH270629   0.459   4.780   3.213  0.1599  0.5616 -0.4017
16405TIP3    H170630   0.403   4.713   3.174  2.2864 -1.3451 -0.2671
16405TIP3    H270631   0.410   4.812   3.288 -0.6590 -1.2100 -0.1778
16406TIP3   OH270632   0.378   3.845   3.188 -0.2498 -0.7027  0.3638
16406TIP3    H170633   0.421   3.765   3.217 -2.5981 -2.2570 -0.3123
16406TIP3    H270634   0.350   3.888   3.269 -0.1446 -1.2270  0.6774
16407TIP3   OH270635   5.846   5.986   2.275  0.2643 -0.0080 -0.0294
16407TIP3    H170636   5.844   5.938   2.358  2.3663 -1.3343 -0.7130
16407TIP3    H270637   5.938   6.011   2.265 -0.1104  0.7382 -1.6292
16408TIP3   OH270638   1.394   3.917   6.053 -0.4027 -0.3650  0.5677
16408TIP3    H170639   1.457   3.857   6.090  0.0111  1.0593  2.2595
16408TIP3    H270640   1.310   3.893   6.094 -0.8710 -1.9049 -1.2662
16409TIP3   OH270641   2.671   0.157   5.133  0.0187  0.0468  0.3401
16409TIP3    H170642   2.597   0.146   5.193 -1.3847 -0.8519 -1.4753
16409TIP3    H270643   2.660   0.246   5.099 -0.0955  0.0018  0.2580
16410TIP3   OH270644   2.215   5.963   2.155 -0.2539 -0.1199  0.3349
16410TIP3    H170645   2.124   5.951   2.128 -1.0382  1.1911  2.3159
16410TIP3    H270646   2.210   6.007   2.240  2.2495  0.8428  0.0351
16411TIP3   OH270647   4.849   2.544  16.047 -0.0780  0.4072 -0.1497
16411TIP3    H170648   4.780   2.556  16.113 -0.8245 -0.1799 -0.8158
16411TIP3    H270649   4.909   2.616  16.063 -2.8578  3.2941 -2.0323
16412TIP3   OH270650   2.031   5.953   0.351  0.1708 -0.3361  0.1696
16412TIP3    H170651   2.099   5.907   0.301 -1.9479  0.5472 -3.7038
16412TIP3    H270652   1.986   5.884   0.399  0.7630 -1.5608 -0.9767
16413TIP3   OH270653   5.355   6.746   4.129  0.5685  0.2317 -0.4937
16413TIP3    H170654   5.330   6.834   4.103 -1.4129 -0.1466  0.0257
16413TIP3    H270655   5.361   6.697   4.047  1.1221  0.7133 -0.7393
16414TIP3   OH270656   2.467   6.223   2.993  0.2424  0.0824  0.8652
16414TIP3    H170657   2.550   6.270   2.986  0.0897 -0.0359 -2.3335
16414TIP3    H270658   2.491   6.131   2.989  0.0225  0.0295  0.7476
16415TIP3   OH270659   5.053   3.359   0.316  0.5421  0.9206 -0.1712
16415TIP3    H170660   5.057   3.264   0.307  0.8992  0.6262  2.6421
16415TIP3    H270661   5.143   3.385   0.335  0.1617  1.6357  0.6751
16416TIP3   OH270662   6.238   1.676   4.918 -0.4017  0.4337 -0.3607
16416TIP3    H170663   6.193   1.739   4.861 -0.9431  0.7836  0.4349
16416TIP3    H270664   6.191   1.594   4.905  1.1134 -0.1397 -2.3704
16417TIP3   OH270665   6.163   5.014   1.280  0.3804 -0.4798 -0.5656
16417TIP3    H170666   6.082   5.009   1.332  0.0399  2.2076 -0.7804
16417TIP3    H270667   6.162   4.934   1.228 -1.9273 -0.7161 -0.2374
16418TIP3   OH270668   2.211   6.757   2.100 -0.0208  0.6437 -0.6272
16418TIP3    H170669   2.301   6.777   2.124 -0.0570  1.2131 -0.9588
16418TIP3    H270670   2.209   6.767   2.004 -0.3510  0.3091 -0.6569
16419TIP3   OH270671   3.320   0.673   2.280 -0.0013 -0.3065 -0.4575
16419TIP3    H170672   3.339   0.757   2.238 -0.1916 -0.3153 -0.5594
16419TIP3    H270673   3.372   0.675   2.360 -0.2605  0.0438 -0.2985
16420TIP3   OH270674   6.549   5.656   5.789  0.3422  0.5097  0.3110
16420TIP3    H170675   6.457   5.658   5.761  0.7115  1.4307 -0.8762
16420TIP3    H270676   6.585   5.740   5.759  2.2055 -0.8473 -1.4486
16421TIP3   OH270677   3.230   0.112  14.929 -0.2355  0.1726 -0.0928
16421TIP3    H170678   3.167   0.155  14.987 -0.5115 -1.9949  1.2581
16421TIP3    H270679   3.193   0.122  14.841 -0.2317  2.7535  0.1508
16422TIP3   OH270680   1.468   6.371  11.271  0.4390 -0.3414 -0.4404
16422TIP3    H170681   1.432   6.282  11.269  0.9818 -0.5383 -1.6850
16422TIP3    H270682   1.445   6.403  11.358  0.4471 -1.7829  0.1148
16423TIP3   OH270683   1.848   4.943   4.031 -0.0487  0.5335  0.2482
16423TIP3    H170684   1.856   5.014   4.094  0.3567 -1.0441  1.9988
16423TIP3    H270685   1.935   4.904   4.026 -1.1925 -2.5665  2.6080
16424TIP3   OH270686   6.443   3.746  15.994 -0.2930  0.7325 -0.3227
16424TIP3    H170687   6.371   3.765  15.934 -0.8010  1.2209  0.4250
16424TIP3    H270688   6.445   3.651  16.000 -0.8337  0.7133 -0.4042
16425TIP3   OH270689   5.640   1.413  11.236  0.6956  0.0001  0.1655
16425TIP3    H170690   5.709   1.478  11.246  0.9520 -0.2772  0.2269
16425TIP3    H270691   5.567   1.446  11.289  0.7738  0.3053  0.0783
16426TIP3   OH270692   1.698   0.847  10.838 -0.3574  0.3728 -0.7705
16426TIP3    H170693   1.719   0.911  10.907 -0.9855  1.6177 -1.7075
16426TIP3    H270694   1.783   0.823  10.801  0.1762 -1.8290  1.7333
16427TIP3   OH270695   2.909   5.123  15.954  0.2540  0.4330 -0.1737
16427TIP3    H170696   2.941   5.114  16.043 -0.5497  0.4489  0.1255
16427TIP3    H270697   2.975   5.175  15.909  1.9628 -1.7566 -0.2806
16428TIP3   OH270698   1.715   4.460   5.339 -0.2446 -0.6131  0.3361
16428TIP3    H170699   1.705   4.365   5.330 -0.4801 -0.5947  0.3833
16428TIP3    H270700   1.628   4.490   5.365 -0.0876 -0.4261  0.6561
16429TIP3   OH270701   5.193   2.501  13.499  0.2410 -0.2585 -0.7487
16429TIP3    H170702   5.107   2.531  13.468  0.4214 -0.2906 -1.2828
16429TIP3    H270703   5.224   2.573  13.555  0.2176  0.1034 -1.1952
16430TIP3   OH270704   1.482   6.553  11.499 -0.6216  0.1091 -0.0502
16430TIP3    H170705   1.530   6.481  11.541 -1.8183 -0.5388  0.2497
16430TIP3    H270706   1.518   6.632  11.540  0.6311 -0.3158 -0.3009
16431TIP3   OH270707   1.340   1.326   1.874 -0.7000 -0.1953  0.0956
16431TIP3    H170708   1.382   1.408   1.900 -2.0516  0.8121 -0.8560
16431TIP3    H270709   1.353   1.320   1.780 -3.2643  0.5110 -0.3586
16432TIP3   OH270710   3.402   4.029   0.237  0.4715 -0.5085  0.1746
16432TIP3    H170711   3.360   4.005   0.154 -0.4228  2.1335 -0.1670
16432TIP3    H270712   3.495   4.015   0.221  0.3047 -0.0482 -1.2661
16433TIP3   OH270713   2.149   6.783   2.982  0.0351  0.3025 -0.8635
16433TIP3    H170714   2.133   6.869   2.944 -0.8903  0.6089  0.1689
16433TIP3    H270715   2.196   6.801   3.063 -0.6855 -0.1200 -0.3472
16434TIP3   OH270716   2.351   1.686  17.088 -0.2600 -0.2176 -0.1714
16434TIP3    H170717   2.273   1.739  17.069 -0.0480 -0.0152 -0.4690
16434TIP3    H270718   2.370   1.706  17.180  0.4540  1.0534 -0.5786
16435TIP3   OH270719   4.733   6.046  11.483 -0.0766  0.2457 -0.0034
16435TIP3    H170720   4.638   6.051  11.472 -0.1210  1.7463  0.9345
16435TIP3    H270721   4.762   6.137  11.481  1.1766 -0.1146  1.0827
16436TIP3   OH270722   5.401   1.840   4.739  0.1785 -0.1285  0.0064
16436TIP3    H170723   5.308   1.818   4.733  0.2830 -0.5526 -0.0435
16436TIP3    H270724   5.443   1.760   4.773  0.3484  0.4564  1.2083
16437TIP3   OH270725   4.815   3.652   5.852 -0.8369  0.1193 -0.0331
16437TIP3    H170726   4.856   3.642   5.937 -0.9509  0.3463  0.0496
16437TIP3    H270727   4.811   3.564   5.816  1.7432  0.3567 -0.9857
16438TIP3   OH270728   1.755   5.611   3.458  0.7593 -0.1775 -0.5260
16438TIP3    H170729   1.789   5.691   3.499 -0.5334 -0.1667  0.5984
16438TIP3    H270730   1.819   5.543   3.481  1.3743  0.3420 -0.6811
16439TIP3   OH270731   4.141   2.735   3.411 -0.6887  0.3400  0.4649
16439TIP3    H170732   4.202   2.707   3.343 -2.4464 -2.5113 -0.0532
16439TIP3    H270733   4.194   2.785   3.473  2.3632 -2.6802  0.4443
16440TIP3   OH270734   2.190   0.157  10.455 -0.2343 -0.6856 -0.2122
16440TIP3    H170735   2.275   0.186  10.421  0.1890 -2.0888 -0.3982
16440TIP3    H270736   2.200   0.063  10.465 -2.3121 -1.1107 -1.7856
16441TIP3   OH270737   2.450   0.420   3.225 -0.5171  0.5457  0.0737
16441TIP3    H170738   2.526   0.390   3.176  0.6623  1.9043  1.0416
16441TIP3    H270739   2.402   0.475   3.164 -0.7389 -0.3009 -0.5334
16442TIP3   OH270740   3.579   4.489   4.996  0.0236 -0.7017  0.2721
16442TIP3    H170741   3.635   4.553   4.954 -1.9660  1.1759  0.4050
16442TIP3    H270742   3.577   4.515   5.089 -0.7041 -0.9872  0.3475
16443TIP3   OH270743   1.338   2.257  14.538 -0.2155  0.0630 -0.3933
16443TIP3    H170744   1.404   2.222  14.597  0.4436  0.6289 -0.7895
16443TIP3    H270745   1.265   2.196  14.544  0.7883 -1.2052 -0.8346
16444TIP3   OH270746   5.741   0.113  15.937 -0.0050  0.3091  0.2430
16444TIP3    H170747   5.673   0.173  15.967 -1.3515 -1.0397 -0.0158
16444TIP3    H270748   5.693   0.045  15.888  1.3679 -1.4426  1.2725
16445TIP3   OH270749   0.392   3.739   2.682  0.7291 -0.1245 -0.3831
16445TIP3    H170750   0.367   3.701   2.766 -0.9750 -1.5743 -1.5072
16445TIP3    H270751   0.487   3.750   2.688  0.7392 -1.0561  1.3926
16446TIP3   OH270752   1.487   0.656  16.745 -0.2540  0.0161  0.1225
16446TIP3    H170753   1.518   0.746  16.753 -2.1826  0.8035 -0.8539
16446TIP3    H270754   1.451   0.636  16.831 -1.0034  0.6609 -0.0286
16447TIP3   OH270755   0.335   3.995   2.635 -0.1825 -0.3097 -0.7008
16447TIP3    H170756   0.380   3.914   2.661  0.0655 -0.1764 -0.7091
16447TIP3    H270757   0.244   3.980   2.657  0.1704  0.1821  1.1901
16448TIP3   OH270758   3.884   4.791  14.993 -0.4223 -0.2759 -0.1774
16448TIP3    H170759   3.922   4.711  15.028 -0.5991  0.1392  0.9792
16448TIP3    H270760   3.957   4.853  14.990 -0.7870  0.2486  1.2103
16449TIP3   OH270761   1.105   0.748   6.204  0.2581 -0.1494 -0.2243
16449TIP3    H170762   1.028   0.791   6.239  0.3018  1.2215 -1.7446
16449TIP3    H270763   1.162   0.820   6.176  1.6185 -1.1563 -0.0891
16450TIP3   OH270764   1.823   2.088   1.432 -0.2257 -0.2849 -0.4910
16450TIP3    H170765   1.904   2.090   1.483 -0.3660 -0.1665 -0.2752
16450TIP3    H270766   1.776   2.011   1.465 -0.8515  0.4649  0.3726
16451TIP3   OH270767   0.877   6.380   6.289 -0.4871 -0.3854  0.5182
16451TIP3    H170768   0.794   6.332   6.287 -1.1811  0.7878  0.9006
16451TIP3    H270769   0.855   6.468   6.259  0.7679 -0.2842 -0.1314
16452TIP3   OH270770   1.825   1.943   0.614  0.2029  0.2224 -0.1024
16452TIP3    H170771   1.829   1.908   0.703  0.9178  0.5237 -0.0093
16452TIP3    H270772   1.858   1.872   0.559 -1.2510 -0.3597 -0.2573
16453TIP3   OH270773   3.730   6.361   4.909  0.1999  0.1453  0.2044
16453TIP3    H170774   3.770   6.274   4.906  0.5507  0.2250  2.0510
16453TIP3    H270775   3.646   6.347   4.951  0.8493  0.8921  1.8049
16454TIP3   OH270776   6.725   0.821   3.300 -0.1377 -0.3703  0.0872
16454TIP3    H170777   6.669   0.857   3.369  0.9417  0.4940  0.5457
16454TIP3    H270778   6.809   0.804   3.344  1.8851  3.9378 -1.8230
16455TIP3   OH270779   3.981   1.693   1.094 -0.0763  0.4116  0.5141
16455TIP3    H170780   3.961   1.644   1.175  1.8814 -0.6275  0.4046
16455TIP3    H270781   4.043   1.637   1.048 -1.1982  0.9917 -1.7515
16456TIP3   OH270782   6.770   6.606  11.900  0.5413 -0.0943  0.6221
16456TIP3    H170783   6.827   6.568  11.967  1.1328  1.3465  0.9593
16456TIP3    H270784   6.706   6.658  11.950  0.2327 -0.0061  0.1355
16457TIP3   OH270785   1.799   1.719  14.825 -0.2780  0.3351  0.4077
16457TIP3    H170786   1.709   1.695  14.848 -0.4282  0.3281 -0.1937
16457TIP3    H270787   1.797   1.813  14.811 -0.4677  0.1450 -0.8842
16458TIP3   OH270788   5.451   6.195   2.560 -0.5348 -0.1046 -0.1828
16458TIP3    H170789   5.490   6.116   2.523  1.1594  0.6623 -0.0471
16458TIP3    H270790   5.361   6.195   2.527 -0.5709 -2.1312 -0.1046
16459TIP3   OH270791   4.800   3.634   2.611  0.1122 -0.7012  0.0744
16459TIP3    H170792   4.882   3.683   2.602  0.0855 -1.0494 -2.5036
16459TIP3    H270793   4.773   3.649   2.701  3.1992 -0.8796  1.0882
16460TIP3   OH270794   0.226   3.705  16.641 -0.5185  0.4455  0.1417
16460TIP3    H170795   0.232   3.712  16.737 -0.6479  3.3063 -0.0398
16460TIP3    H270796   0.150   3.649  16.627 -0.4374 -0.0934  1.7207
16461TIP3   OH270797   4.548   0.056  16.764  0.2356 -0.2425  0.5662
16461TIP3    H170798   4.622   0.083  16.818  0.5096  0.6503 -0.2420
16461TIP3    H270799   4.581   0.059  16.674 -1.1273  1.4015  0.0989
16462TIP3   OH270800   1.370   4.745   2.475 -0.2101  0.3355 -0.5039
16462TIP3    H170801   1.363   4.686   2.400  2.2920  1.5890 -1.7845
16462TIP3    H270802   1.317   4.822   2.450  0.1413  0.5007 -0.7470
16463TIP3   OH270803   3.644   0.886  16.963  0.3152  0.0845  0.3778
16463TIP3    H170804   3.568   0.836  16.932  1.7382 -1.7862 -0.2539
16463TIP3    H270805   3.637   0.884  17.058 -0.2989 -0.2964  0.3264
16464TIP3   OH270806   6.215   3.888   5.687 -0.1078 -0.6216 -0.0017
16464TIP3    H170807   6.239   3.879   5.779 -0.6051  0.1021  0.1997
16464TIP3    H270808   6.120   3.875   5.685 -0.1111 -0.5603 -0.4009
16465TIP3   OH270809   4.177   3.385   0.939  0.0829  0.0312 -0.2399
16465TIP3    H170810   4.231   3.443   0.992 -0.8577 -0.5813  1.4169
16465TIP3    H270811   4.087   3.405   0.965 -0.2586 -2.0823  0.3025
16466TIP3   OH270812   1.189   3.865   4.938 -0.3837 -0.2296 -0.0896
16466TIP3    H170813   1.178   3.841   5.030 -2.0559 -0.1435 -0.2443
16466TIP3    H270814   1.283   3.856   4.922  0.0203  0.3210  1.7806
16467TIP3   OH270815   3.335   0.939   5.538  0.2375  0.5280 -0.1904
16467TIP3    H170816   3.384   0.961   5.618 -0.0334 -2.7431  0.9226
16467TIP3    H270817   3.244   0.962   5.559  0.3597  0.8420  0.0002
16468TIP3   OH270818   0.920   2.054   3.430  0.0070 -0.1759  0.1710
16468TIP3    H170819   0.829   2.047   3.400  0.4871 -1.0417 -1.1331
16468TIP3    H270820   0.914   2.046   3.525 -1.6524  3.6940  0.4707
16469TIP3   OH270821   0.032   2.419   1.769  0.0190  0.0213  0.0408
16469TIP3    H170822  -0.018   2.491   1.731  1.5140  0.1652 -1.7071
16469TIP3    H270823  -0.035   2.361   1.807 -1.5354 -0.0474 -2.6725
16470TIP3   OH270824   0.273   1.622   0.949 -0.1332 -0.5875  0.2103
16470TIP3    H170825   0.320   1.703   0.929 -0.2589 -1.1598 -2.4570
16470TIP3    H270826   0.239   1.636   1.038 -0.3455  2.3781 -0.2899
16471TIP3   OH270827   1.702   3.712  12.139 -0.6028  0.2641  0.3959
16471TIP3    H170828   1.788   3.693  12.177 -0.7424 -0.9742  0.1307
16471TIP3    H270829   1.640   3.672  12.200 -0.9797  0.9027  0.4333
16472TIP3   OH270830   3.288   4.778   4.783  0.1780  0.4912  0.2635
16472TIP3    H170831   3.221   4.821   4.836  0.0634  0.9752 -0.2729
16472TIP3    H270832   3.267   4.685   4.788  0.2339  0.5207  1.1593
16473TIP3   OH270833   3.676   2.150  12.564 -0.5510  0.3253 -0.0108
16473TIP3    H170834   3.734   2.192  12.628 -1.4526  0.1594  0.9160
16473TIP3    H270835   3.590   2.188  12.582 -0.7829  0.3670 -1.2143
16474TIP3   OH270836   6.140   5.558   4.728  0.6034 -0.1043 -0.0769
16474TIP3    H170837   6.223   5.602   4.747  0.1046  0.2889  1.2140
16474TIP3    H270838   6.127   5.498   4.802  0.4658 -1.2540 -1.0168
16475TIP3   OH270839   0.276   6.544  10.539 -0.1122  0.5895  0.1754
16475TIP3    H170840   0.328   6.576  10.465  1.1698 -0.9959  0.3602
16475TIP3    H270841   0.258   6.452  10.517  0.6417 -0.0074  2.0299
16476TIP3   OH270842   3.320   0.312   5.816  0.3694  0.1374  0.5637
16476TIP3    H170843   3.328   0.308   5.912 -0.0597 -0.9058  0.5603
16476TIP3    H270844   3.285   0.399   5.798  1.2730  0.6639  1.2997
16477TIP3   OH270845   6.329   3.927   0.733  0.3352  0.0804 -0.3546
16477TIP3    H170846   6.309   3.839   0.700 -0.3665  0.0948  0.0302
16477TIP3    H270847   6.339   3.980   0.654 -0.1755 -0.1377 -0.5660
16478TIP3   OH270848   3.358   1.461  15.150 -0.0733  0.2238  0.0092
16478TIP3    H170849   3.281   1.452  15.094 -0.0704 -0.0239  0.0416
16478TIP3    H270850   3.414   1.386  15.126 -0.2208 -0.0710  0.5714
16479TIP3   OH270851   3.785   4.316   4.270 -0.0284  0.3169 -0.0806
16479TIP3    H170852   3.709   4.367   4.299 -0.5648 -0.9060  0.6451
16479TIP3    H270853   3.834   4.297   4.350  0.5346  0.2529 -0.4366
16480TIP3   OH270854   1.696   0.327   3.147  0.2045  0.6160  0.1924
16480TIP3    H170855   1.632   0.384   3.103 -0.9754 -0.9521 -0.1706
16480TIP3    H270856   1.781   0.356   3.114 -0.5555  0.5177 -1.8839
16481TIP3   OH270857   0.197   5.194   0.423  0.1276  0.2520  0.1002
16481TIP3    H170858   0.249   5.265   0.460 -1.2002  1.1390  0.2823
16481TIP3    H270859   0.257   5.151   0.361  2.0004 -0.5535  2.4021
16482TIP3   OH270860   5.377   5.081  12.334  0.0952  0.4267  0.2852
16482TIP3    H170861   5.432   5.124  12.269 -0.2472  1.1265  0.4513
16482TIP3    H270862   5.338   5.153  12.383 -1.0755 -0.0626  0.0754
16483TIP3   OH270863   3.185   1.613  16.883 -0.4865  0.2755  0.8396
16483TIP3    H170864   3.252   1.679  16.900 -0.0036 -0.3269  1.2959
16483TIP3    H270865   3.223   1.557  16.816 -1.9224  1.9579 -1.4251
16484TIP3   OH270866   0.146   1.554   1.938 -0.2988 -0.2827 -0.2442
16484TIP3    H170867   0.064   1.602   1.954 -0.9312 -1.2682 -0.4715
16484TIP3    H270868   0.203   1.617   1.895 -1.0970  0.2864 -0.4825
16485TIP3   OH270869   3.378   5.922   5.635 -0.6422  0.1165 -0.1769
16485TIP3    H170870   3.473   5.909   5.640 -0.6304 -0.3138 -1.5142
16485TIP3    H270871   3.345   5.882   5.716  0.0469 -2.3937 -1.0724
16486TIP3   OH270872   3.381   6.293  16.962  0.0699  0.0822 -0.2906
16486TIP3    H170873   3.311   6.357  16.947 -1.2912 -1.4526 -0.6022
16486TIP3    H270874   3.354   6.216  16.912  2.1429 -0.4272 -0.6476
16487TIP3   OH270875   5.263   1.175   5.475 -0.2070 -0.7998  0.2495
16487TIP3    H170876   5.170   1.156   5.463 -0.0358  0.0170 -2.6209
16487TIP3    H270877   5.266   1.229   5.554 -2.3695  0.7037 -0.6643
16488TIP3   OH270878   4.429   6.190  15.673 -0.4133  0.0238 -0.1403
16488TIP3    H170879   4.409   6.168  15.764  0.1605  0.7473  0.1655
16488TIP3    H270880   4.433   6.106  15.628 -2.0518 -0.2541  0.2246
16489TIP3   OH270881   0.477   3.607   5.508 -0.5999 -0.1556 -0.4551
16489TIP3    H170882   0.384   3.632   5.512 -0.6646 -0.3314 -0.8526
16489TIP3    H270883   0.492   3.586   5.416 -0.0216  0.4171 -0.4933
16490TIP3   OH270884   2.614   0.363  16.034 -0.0536 -0.3229 -0.3043
16490TIP3    H170885   2.668   0.441  16.023  0.6106 -0.6547  0.4778
16490TIP3    H270886   2.626   0.313  15.953  1.4743 -0.7827  0.1841
16491TIP3   OH270887   1.519   0.145   2.619  0.2094 -0.3595 -0.2259
16491TIP3    H170888   1.551   0.056   2.634  0.0063 -0.2185  1.1098
16491TIP3    H270889   1.426   0.142   2.645 -0.5963 -0.4871 -2.9881
16492TIP3   OH270890   0.856   3.918  15.873  0.2539  0.5818  0.0290
16492TIP3    H170891   0.937   3.904  15.822 -0.6491  2.0729 -1.8774
16492TIP3    H270892   0.786   3.901  15.811 -0.9011  0.4335  1.3631
16493TIP3   OH270893   2.402   3.855   4.244  0.1117 -0.0252 -0.9014
16493TIP3    H170894   2.455   3.913   4.191 -0.4322  1.4206  0.1188
16493TIP3    H270895   2.322   3.843   4.193 -0.4612  1.4544 -0.3723
16494TIP3   OH270896   1.018   4.879  16.776 -0.0096  0.2904 -0.6085
16494TIP3    H170897   1.091   4.824  16.804 -0.2336 -1.2799 -2.9525
16494TIP3    H270898   1.058   4.947  16.722  0.1137  1.7122  1.2185
16495TIP3   OH270899   5.775   1.055  15.001  0.6472 -0.1333  0.2526
16495TIP3    H170900   5.818   1.079  14.919  1.9773 -0.8281  0.7301
16495TIP3    H270901   5.847   1.048  15.064 -0.3866  0.5867  1.5254
16496TIP3   OH270902   3.545   6.706   4.871  0.4135 -0.3029  0.3441
16496TIP3    H170903   3.507   6.789   4.843 -0.5363 -0.8806 -0.1109
16496TIP3    H270904   3.478   6.667   4.928 -0.5942 -2.2590 -2.0944
16497TIP3   OH270905   4.084   1.796  11.555  0.0534 -0.1877  0.1418
16497TIP3    H170906   4.021   1.725  11.542 -0.8902  0.1797  2.5213
16497TIP3    H270907   4.057   1.837  11.637  2.1569  1.2878  0.1208
16498TIP3   OH270908   4.822   4.352  15.882 -0.4420  0.1880 -0.1422
16498TIP3    H170909   4.872   4.422  15.841 -0.7046  0.3969 -0.1049
16498TIP3    H270910   4.731   4.371  15.860 -0.3686 -1.1687 -1.7333
16499TIP3   OH270911   1.673   6.075   1.875  0.3638 -0.6370  0.2428
16499TIP3    H170912   1.581   6.061   1.852  0.7976 -2.5800 -0.4427
16499TIP3    H270913   1.674   6.161   1.918 -2.0595 -1.4366  2.0186
16500TIP3   OH270914   1.608   3.573  12.349 -0.0330  0.1498 -0.1671
16500TIP3    H170915   1.688   3.540  12.389 -0.2053 -0.7473 -0.5367
16500TIP3    H270916   1.548   3.586  12.423 -0.4342 -1.7325 -0.1433
16501TIP3   OH270917   2.783   5.192  13.816 -0.4764  0.4959  0.1903
16501TIP3    H170918   2.695   5.159  13.833 -0.9429 -0.3060 -3.4138
16501TIP3    H270919   2.769   5.275  13.770  0.6742  1.0337  0.7861
16502TIP3   OH270920   4.869   0.660  12.182  0.1211  0.1318  0.1564
16502TIP3    H170921   4.797   0.722  12.168  0.7387  0.5530 -1.3327
16502TIP3    H270922   4.943   0.715  12.206  1.1665  0.2006 -3.0281
16503TIP3   OH270923   0.518   6.622   0.863 -0.8445  0.1134 -0.1059
16503TIP3    H170924   0.519   6.526   0.853  0.9933  0.0555  0.5855
16503TIP3    H270925   0.497   6.636   0.955 -0.0162  0.3474  0.0504
16504TIP3   OH270926   3.729   5.235   0.502 -0.2142 -0.2938  0.2197
16504TIP3    H170927   3.640   5.266   0.487 -0.9135 -2.0385  0.6179
16504TIP3    H270928   3.754   5.191   0.421  0.8947  1.5456 -0.4680
16505TIP3   OH270929   3.731   4.688  12.016  0.2077 -0.1591  0.4105
16505TIP3    H170930   3.806   4.741  11.989 -1.1087  1.4461 -0.1590
16505TIP3    H270931   3.671   4.750  12.056 -1.7602 -1.0420 -1.0664
16506TIP3   OH270932   5.957   4.507  17.102  0.7380 -0.2006 -0.1327
16506TIP3    H170933   5.870   4.547  17.111  0.4006 -1.1943  1.2208
16506TIP3    H270934   5.947   4.446  17.028  0.2499 -0.3795  0.0742
16507TIP3   OH270935   3.360   1.124   1.161  0.0666  0.0366 -0.5825
16507TIP3    H170936   3.265   1.134   1.152  0.0245  0.3368  0.1889
16507TIP3    H270937   3.371   1.041   1.207  0.0908  1.1622  1.4698
16508TIP3   OH270938   0.194   2.743   2.070  0.0456  0.9623 -0.4429
16508TIP3    H170939   0.153   2.829   2.071 -1.8127  0.1076  0.4927
16508TIP3    H270940   0.282   2.758   2.104  0.2647  2.7182 -1.7122
16509TIP3   OH270941   5.439   0.029   0.653 -0.2380  0.0231 -0.4653
16509TIP3    H170942   5.490   0.108   0.632  0.7087 -1.1178 -2.6527
16509TIP3    H270943   5.348   0.055   0.639 -0.0438  1.1694  0.3445
16510TIP3   OH270944   4.859   1.872  16.820  0.0807  0.7604  0.4133
16510TIP3    H170945   4.932   1.818  16.790 -0.2750  0.2049  0.5363
16510TIP3    H270946   4.830   1.919  16.742 -1.0519 -0.9175 -0.2098
16511TIP3   OH270947   3.103   5.127   1.251  0.5001  0.1630  0.8729
16511TIP3    H170948   3.057   5.083   1.180  0.0214 -1.9659  2.4667
16511TIP3    H270949   3.130   5.211   1.213 -3.0939  0.7353 -0.6629
16512TIP3   OH270950   2.661   6.493   5.740 -0.1605  0.2911 -0.4823
16512TIP3    H170951   2.705   6.530   5.817  0.5775  0.1586 -0.8335
16512TIP3    H270952   2.732   6.480   5.677 -0.5061 -1.2105 -0.5568
16513TIP3   OH270953   2.151   1.661  12.203 -0.3272 -0.4510 -0.8270
16513TIP3    H170954   2.071   1.609  12.205  0.4717 -1.6435  0.5502
16513TIP3    H270955   2.218   1.605  12.243  0.6901  1.3870  0.1181
16514TIP3   OH270956   4.320   4.125  15.418  0.3999  0.6453 -0.7041
16514TIP3    H170957   4.325   4.069  15.496 -0.4816 -1.4198 -2.0853
16514TIP3    H270958   4.411   4.151  15.402  0.6406  0.7833  0.7811
16515TIP3   OH270959   6.313   1.905   1.046  0.0149 -0.1343  0.0534
16515TIP3    H170960   6.291   1.813   1.033 -0.4564 -0.0427  0.1850
16515TIP3    H270961   6.399   1.916   1.005  0.1002 -0.6454  0.0996
16516TIP3   OH270962   1.739   2.565  16.543  0.4173 -0.1242  0.2272
16516TIP3    H170963   1.694   2.498  16.491 -1.1455  1.1818 -0.1336
16516TIP3    H270964   1.761   2.634  16.480 -0.2604  0.8486  1.0395
16517TIP3   OH270965   3.097   6.760  11.647  0.0760  0.2902 -0.1002
16517TIP3    H170966   3.118   6.735  11.557 -0.9517 -0.9193 -0.0252
16517TIP3    H270967   3.052   6.683  11.683  1.2060  0.4400  1.7008
16518TIP3   OH270968   3.429   4.861   3.347  0.0088 -0.1657  0.3424
16518TIP3    H170969   3.339   4.886   3.366  0.2525 -0.0135  1.3293
16518TIP3    H270970   3.482   4.909   3.410  0.7323 -0.7579  0.2048
16519TIP3   OH270971   3.735   0.512  14.678 -0.0894 -0.4406  0.1436
16519TIP3    H170972   3.774   0.449  14.738  1.9817  1.7706  1.2381
16519TIP3    H270973   3.796   0.515  14.604 -0.6630 -0.4139 -0.3277
16520TIP3   OH270974   0.246   1.477  12.819  0.0266 -0.4104  0.7359
16520TIP3    H170975   0.323   1.500  12.768 -0.1705 -0.7180  0.2958
16520TIP3    H270976   0.225   1.557  12.868 -1.1652  0.6630 -1.4312
16521TIP3   OH270977   1.954   1.742   3.627 -0.3539  0.2647 -0.0189
16521TIP3    H170978   1.899   1.751   3.549 -0.0131  0.9324 -0.1897
16521TIP3    H270979   1.952   1.829   3.668 -0.6043 -0.1038  0.7707
16522TIP3   OH270980   4.621   6.615  16.335  0.0504  0.0403 -0.2125
16522TIP3    H170981   4.530   6.608  16.308  0.1369 -2.3383  0.0219
16522TIP3    H270982   4.625   6.696  16.385 -1.5678  1.0118 -1.5913
16523TIP3   OH270983   3.926   1.902  15.183  0.0837 -0.0341  0.3118
16523TIP3    H170984   3.990   1.909  15.112  0.0103  2.8046  0.4985
16523TIP3    H270985   3.860   1.968  15.162 -1.6966 -1.4783  1.2567
16524TIP3   OH270986   3.223   0.100   5.662  0.1795 -0.1247 -0.0077
16524TIP3    H170987   3.256   0.041   5.731  0.1569 -2.2108 -1.7152
16524TIP3    H270988   3.239   0.188   5.696 -0.5573 -1.1015  2.9954
16525TIP3   OH270989   1.014   3.731   1.550 -0.5982  0.2807 -0.1156
16525TIP3    H170990   1.081   3.775   1.601 -0.3169 -0.4267  0.1329
16525TIP3    H270991   0.934   3.781   1.565 -0.4563  0.2287  0.8030
16526TIP3   OH270992   4.776   5.441  16.166 -0.0842  0.5697 -0.0134
16526TIP3    H170993   4.837   5.376  16.132 -1.6545 -1.1226  0.2802
16526TIP3    H270994   4.798   5.449  16.259 -0.6494 -0.4597  0.2170
16527TIP3   OH270995   4.729   2.253  15.242  0.4520 -0.2801 -0.3797
16527TIP3    H170996   4.765   2.341  15.246 -1.8744  0.6449  1.4734
16527TIP3    H270997   4.646   2.259  15.289 -1.6957 -2.5171 -3.6639
16528TIP3   OH270998   6.402   2.135  15.743  1.0835  0.0803  0.6293
16528TIP3    H170999   6.367   2.048  15.758  1.6792 -0.5095 -1.3074
16528TIP3    H271000   6.411   2.173  15.831  0.3463 -1.6069  1.4430
16529TIP3   OH271001   5.507   4.895  13.069  0.3056  0.1791 -0.0857
16529TIP3    H171002   5.503   4.813  13.021 -0.0555  0.4824 -0.5752
16529TIP3    H271003   5.504   4.870  13.162  1.6570 -0.4544 -0.1955
16530TIP3   OH271004   2.929   5.983   0.904 -0.2063 -0.1304  0.1657
16530TIP3    H171005   2.851   6.017   0.947 -0.3140 -1.3428  0.9601
16530TIP3    H271006   2.911   5.992   0.810 -1.1679 -0.1411  0.3445
16531TIP3   OH271007   1.491   0.442  14.146  0.0099 -0.0289  0.6376
16531TIP3    H171008   1.399   0.469  14.137  0.0183 -0.5327 -1.1544
16531TIP3    H271009   1.509   0.449  14.239 -1.1684  2.3555  0.7411
16532TIP3   OH271010   1.475   4.167  14.800 -0.3825  0.2050  0.2217
16532TIP3    H171011   1.491   4.101  14.733  0.1494  0.3209  0.2295
16532TIP3    H271012   1.442   4.243  14.751  2.5170  1.2135 -0.2605
16533TIP3   OH271013   1.367   2.924   2.990 -0.1671 -0.1282 -0.3759
16533TIP3    H171014   1.305   2.916   2.919 -1.6874 -1.7075  1.0828
16533TIP3    H271015   1.348   2.850   3.047  0.4794  1.5182  2.0760
16534TIP3   OH271016   3.816   1.629   2.006  0.0160 -0.2885  0.6617
16534TIP3    H171017   3.746   1.587   1.956  1.4815  0.3186 -2.0225
16534TIP3    H271018   3.893   1.575   1.990  0.9586  1.0211  0.6563
16535TIP3   OH271019   3.076   0.484  10.892  0.2465  0.0564 -0.0422
16535TIP3    H171020   3.151   0.480  10.833  0.0358  0.0724 -0.3166
16535TIP3    H271021   3.012   0.424  10.853  0.1248  0.0334  0.1945
16536TIP3   OH271022   0.951   6.045   6.078  0.4301 -0.4386 -0.8175
16536TIP3    H171023   0.897   6.024   6.154  0.1396  2.1987 -0.2241
16536TIP3    H271024   1.040   6.045   6.111  0.3716 -0.1084 -0.6538
16537TIP3   OH271025   1.902   3.128   3.918  0.0449  0.2615  0.1199
16537TIP3    H171026   1.938   3.209   3.881 -1.2873  0.7732 -0.0841
16537TIP3    H271027   1.877   3.152   4.007 -0.0781 -0.0107  0.1584
16538TIP3   OH271028   2.924   2.084   2.509  0.0921  0.0516  0.4136
16538TIP3    H171029   2.978   2.011   2.478 -0.3582 -0.8026  1.6158
16538TIP3    H271030   2.860   2.097   2.439  0.6168 -0.2404 -0.1277
16539TIP3   OH271031   4.143   1.353  10.854 -0.6358  0.4778  0.0368
16539TIP3    H171032   4.149   1.448  10.868  0.4964  0.5652 -0.9536
16539TIP3    H271033   4.226   1.330  10.812 -0.8153 -0.9895  0.4561
16540TIP3   OH271034   2.709   4.035   0.838  0.1366 -0.6541 -0.2342
16540TIP3    H171035   2.692   4.059   0.929  1.9720 -1.3557  0.3100
16540TIP3    H271036   2.712   4.118   0.791  0.4807 -0.2023  0.5806
16541TIP3   OH271037   3.024   3.444   1.865  0.0027  0.2769  0.2021
16541TIP3    H171038   3.059   3.526   1.832 -0.9958  0.7226  0.2414
16541TIP3    H271039   2.956   3.419   1.802  0.2336 -0.4620  0.2406
16542TIP3   OH271040   5.551   4.646   5.049 -0.3987 -0.3076 -0.0592
16542TIP3    H171041   5.585   4.676   5.133  0.3502  1.9010 -1.1309
16542TIP3    H271042   5.626   4.650   4.990 -0.8347 -2.1506 -0.7966
16543TIP3   OH271043   4.463   5.919   4.430  0.2971 -0.2391  0.5259
16543TIP3    H171044   4.474   5.826   4.452  0.2924 -0.0357  1.3797
16543TIP3    H271045   4.391   5.919   4.367 -0.3603 -0.7269  1.2629
16544TIP3   OH271046   6.306   5.557  10.592  0.2219  0.4066  0.9186
16544TIP3    H171047   6.225   5.578  10.640 -0.1140 -0.0115  0.5338
16544TIP3    H271048   6.279   5.552  10.500  0.6314  0.0126  0.8172
16545TIP3   OH271049   5.420   6.041   3.300 -0.5097 -0.0371  0.0088
16545TIP3    H171050   5.509   6.033   3.334  0.5691 -0.0688 -2.6380
16545TIP3    H271051   5.381   5.955   3.314  0.8887 -0.9306 -1.4209
16546TIP3   OH271052   6.313   1.898   5.823 -0.0710  0.7762 -0.1435
16546TIP3    H171053   6.358   1.934   5.899  0.1350  1.3883 -0.5537
16546TIP3    H271054   6.371   1.828   5.792 -0.2712  0.3683  0.4043
16547TIP3   OH271055   3.715   6.494  12.087  0.2815  0.1287 -0.2216
16547TIP3    H171056   3.732   6.486  11.993  2.0975 -0.8523  0.1477
16547TIP3    H271057   3.725   6.587  12.105 -0.7590  0.4218 -1.1151
16548TIP3   OH271058   3.091   3.109  14.447 -0.2568  0.1634  0.1180
16548TIP3    H171059   3.065   3.194  14.480  1.3717  1.1052 -0.9609
16548TIP3    H271060   3.153   3.075  14.511  0.3231  0.5072 -0.2567
16549TIP3   OH271061   1.382   4.425  14.339 -0.2897  0.2636 -0.3827
16549TIP3    H171062   1.372   4.395  14.248  0.3354 -3.9118  0.8023
16549TIP3    H271063   1.475   4.413  14.357 -0.4410  0.9361  0.8615
16550TIP3   OH271064   0.113   1.743  14.352 -0.4041 -0.2296  0.1119
16550TIP3    H171065   0.050   1.763  14.283 -1.7807  0.4891  1.5303
16550TIP3    H271066   0.171   1.819  14.354  0.1522 -0.6249 -0.7992
16551TIP3   OH271067   5.772   2.694  13.654  0.0187 -0.1408  0.3630
16551TIP3    H171068   5.688   2.723  13.617  0.7760 -0.3991 -1.6438
16551TIP3    H271069   5.778   2.602  13.631 -0.3632 -0.8172  2.8878
16552TIP3   OH271070   4.365   5.237  14.936 -0.1359  0.4358 -0.0977
16552TIP3    H171071   4.330   5.307  14.881 -2.1112  0.1919  0.8294
16552TIP3    H271072   4.313   5.160  14.913  0.8138 -0.3029  0.1984
16553TIP3   OH271073   3.719   4.697  15.898  0.1925 -0.1173  1.1575
16553TIP3    H171074   3.722   4.723  15.806 -1.3506 -1.2236  0.7896
16553TIP3    H271075   3.696   4.777  15.945 -0.3493  0.1385  0.4591
16554TIP3   OH271076   2.624   6.492   1.455 -0.2891 -0.0471  0.3006
16554TIP3    H171077   2.696   6.526   1.508 -1.3585  0.5215  1.3925
16554TIP3    H271078   2.606   6.405   1.491  0.5886 -0.6580 -0.7023
16555TIP3   OH271079   1.449   2.190  17.154  0.1196 -0.2988 -0.7424
16555TIP3    H171080   1.368   2.236  17.173  0.1667 -0.1809 -0.8309
16555TIP3    H271081   1.422   2.112  17.105  0.0263 -0.4441 -0.4611
16556TIP3   OH271082   5.683   0.254  11.756 -0.7766  0.2015  0.2802
16556TIP3    H171083   5.672   0.275  11.663  0.7345  2.5900  0.5878
16556TIP3    H271084   5.669   0.338  11.801  1.9298 -0.1632  1.9170
16557TIP3   OH271085   1.937   5.627   4.614 -0.4814  0.2458  0.1342
16557TIP3    H171086   1.981   5.629   4.529 -0.2478  1.5313  0.2821
16557TIP3    H271087   1.882   5.548   4.610 -0.3901  0.2362 -1.1620
16558TIP3   OH271088   0.020   1.758   3.040  0.5649  0.2493  0.5030
16558TIP3    H171089  -0.049   1.802   2.991  0.0607  0.9853  1.8271
16558TIP3    H271090   0.082   1.729   2.974  0.0564  1.4804 -0.5446
16559TIP3   OH271091   4.347   0.358   5.727 -0.5429  0.6329  0.4124
16559TIP3    H171092   4.425   0.409   5.747  0.6717 -0.9817 -0.0266
16559TIP3    H271093   4.313   0.329   5.812 -1.6020  2.6442  0.7013
16560TIP3   OH271094   1.539   2.601  15.999 -0.3524  0.4699  0.2493
16560TIP3    H171095   1.574   2.513  16.006  3.2118  1.8048  0.3028
16560TIP3    H271096   1.560   2.629  15.910  1.1345  2.2244  1.1013
16561TIP3   OH271097   5.821   6.114   0.442 -0.3406 -0.2475  0.0734
16561TIP3    H171098   5.866   6.148   0.519  1.0845 -1.6158 -0.1487
16561TIP3    H271099   5.761   6.047   0.476  1.5652 -2.1133 -0.1665
16562TIP3   OH271100   0.313   5.709   5.852 -0.7158 -0.2093  0.3258
16562TIP3    H171101   0.398   5.748   5.875 -1.3609  1.2108  0.3439
16562TIP3    H271102   0.315   5.622   5.892  1.3295 -0.7812 -0.9466
16563TIP3   OH271103   1.579   3.935  16.956  0.5188 -0.0867 -0.3190
16563TIP3    H171104   1.591   3.904  17.046  1.1254 -1.3696 -0.8294
16563TIP3    H271105   1.600   4.028  16.960  2.1684 -0.4808  0.5532
16564TIP3   OH271106   6.068   3.204   1.641 -0.3779  0.0215  0.2554
16564TIP3    H171107   6.020   3.281   1.611 -0.2894  0.9110  2.3003
16564TIP3    H271108   6.133   3.187   1.573 -0.7404  1.4499 -0.4522
16565TIP3   OH271109   5.188   0.824   4.136  0.2787 -0.4566  0.3313
16565TIP3    H171110   5.110   0.771   4.119  0.4186 -1.0922  1.5752
16565TIP3    H271111   5.155   0.901   4.183  0.4097 -0.7329  0.8703
16566TIP3   OH271112   4.707   1.900  10.729 -0.0784 -0.4402  0.8589
16566TIP3    H171113   4.798   1.928  10.725 -0.1009 -0.4122  0.5387
16566TIP3    H271114   4.693   1.877  10.821  0.5065 -1.3009  0.7450
16567TIP3   OH271115   1.680   0.800  11.539 -0.0659 -0.3348  0.2278
16567TIP3    H171116   1.775   0.810  11.533 -0.1629  0.3198 -0.1489
16567TIP3    H271117   1.659   0.728  11.479  0.1321 -0.1620 -0.0459
16568TIP3   OH271118   1.791   3.350  16.505 -0.0165  0.2122  0.2854
16568TIP3    H171119   1.886   3.343  16.518  0.3442  2.1257 -1.1565
16568TIP3    H271120   1.781   3.408  16.429 -2.3462 -0.0274  0.3731
16569TIP3   OH271121   0.730   3.696  16.031 -0.4645 -0.3762  0.2861
16569TIP3    H171122   0.639   3.723  16.036  0.2406  2.0611  0.8701
16569TIP3    H271123   0.776   3.774  15.999  1.3269 -1.7392 -0.5234
16570TIP3   OH271124   6.710   5.913  16.245 -0.0692 -0.4767  0.0984
16570TIP3    H171125   6.630   5.903  16.296  0.2486  0.1631  0.7355
16570TIP3    H271126   6.769   5.847  16.280  0.8870  1.3199  2.0480
16571TIP3   OH271127   4.753   1.960  15.654 -0.4133  0.7588 -0.2670
16571TIP3    H171128   4.720   2.039  15.697 -0.7238  0.6819 -0.3658
16571TIP3    H271129   4.675   1.912  15.629 -0.2267  0.7531 -0.8349
16572TIP3   OH271130   0.923   2.466  11.054  0.3017  0.4272 -0.0681
16572TIP3    H171131   0.870   2.421  10.988  0.1175  0.8972 -0.2444
16572TIP3    H271132   0.887   2.555  11.057  0.6923  0.5764  0.2410
16573TIP3   OH271133   5.018   1.483  12.555 -0.1245 -0.2953 -0.4603
16573TIP3    H171134   4.945   1.505  12.612  0.3634 -0.9873  0.4626
16573TIP3    H271135   4.980   1.432  12.484 -0.4830 -1.0610  0.2676
16574TIP3   OH271136   4.640   1.217   1.863 -0.5361 -0.5617  0.5256
16574TIP3    H171137   4.684   1.133   1.852 -0.4833 -0.5155  0.3845
16574TIP3    H271138   4.573   1.219   1.795  1.4632  0.8173 -1.4778
16575TIP3   OH271139   2.479   3.093   3.188 -0.6033 -0.6662  0.4184
16575TIP3    H171140   2.435   3.021   3.142 -0.5199 -0.2636 -0.2975
16575TIP3    H271141   2.566   3.059   3.209 -0.1247 -0.3587 -1.0089
16576TIP3   OH271142   5.574   3.639   1.591  0.8574 -0.2888  0.4035
16576TIP3    H171143   5.565   3.674   1.502 -0.0938 -1.5398 -0.0087
16576TIP3    H271144   5.484   3.621   1.618  1.2309 -1.0565  1.1482
16577TIP3   OH271145   5.044   5.639  13.877  0.6468 -0.5119  0.0604
16577TIP3    H171146   5.137   5.659  13.866  0.8835 -0.6597  1.6990
16577TIP3    H271147   5.031   5.557  13.830  1.2699 -0.3269 -0.4407
16578TIP3   OH271148   2.868   5.353   2.525 -0.0323  0.5328  0.1491
16578TIP3    H171149   2.940   5.387   2.577 -1.1867  0.6501  1.7252
16578TIP3    H271150   2.879   5.258   2.527 -0.7535  0.4706  1.6513
16579TIP3   OH271151   3.937   1.850  16.590 -0.4296 -0.1444  0.3165
16579TIP3    H171152   3.895   1.875  16.673  2.0960  0.9805  1.3329
16579TIP3    H271153   4.027   1.881  16.600  0.2346 -1.1378 -2.3758
16580TIP3   OH271154   6.089   4.264  12.672 -0.0614 -0.4273  0.0204
16580TIP3    H171155   6.107   4.179  12.631 -0.2818 -0.7827  0.6518
16580TIP3    H271156   5.998   4.283  12.649  0.3537  0.2166 -1.1371
16581TIP3   OH271157   5.344   4.061  15.740 -0.0881 -0.0692 -0.3776
16581TIP3    H171158   5.348   4.042  15.646  2.2136 -1.4246 -0.0331
16581TIP3    H271159   5.339   4.157  15.745  1.7166  0.1227 -1.8455
16582TIP3   OH271160   0.235   1.372   4.457  0.0215  0.4875  0.0798
16582TIP3    H171161   0.146   1.350   4.486 -0.3727 -0.8979 -2.0582
16582TIP3    H271162   0.240   1.467   4.466 -2.5094  0.8715 -1.8696
16583TIP3   OH271163   2.430   1.386  16.089 -0.0744  0.1912  0.2465
16583TIP3    H171164   2.379   1.467  16.089  0.1012  0.3059 -0.8464
16583TIP3    H271165   2.428   1.357  16.180 -1.4670  0.5874  0.3577
16584TIP3   OH271166   0.498   1.768   5.195  0.7146  0.2381 -0.3548
16584TIP3    H171167   0.474   1.802   5.109  0.5478 -0.4869 -0.5989
16584TIP3    H271168   0.462   1.679   5.196  2.7172 -0.6048 -0.4367
16585TIP3   OH271169   5.708   1.582  15.486 -0.1510 -0.4137  0.1190
16585TIP3    H171170   5.696   1.500  15.534  0.5528  0.0496  1.1174
16585TIP3    H271171   5.696   1.559  15.394  0.5409 -1.7220  0.3513
16586TIP3   OH271172   6.377   2.500   2.559  0.1115 -0.4889  0.0415
16586TIP3    H171173   6.427   2.573   2.524  0.2772 -0.0949  1.0641
16586TIP3    H271174   6.407   2.423   2.511 -0.8621  0.2677 -1.8236
16587TIP3   OH271175   3.544   3.376  10.555 -0.0918  0.0200 -0.1097
16587TIP3    H171176   3.581   3.332  10.479 -1.0220 -2.0551  0.6077
16587TIP3    H271177   3.468   3.424  10.521 -0.5358 -0.9398 -0.4983
16588TIP3   OH271178   5.737   3.764   3.293  0.6758  0.1131  0.0248
16588TIP3    H171179   5.822   3.803   3.272  0.0718  0.8608 -1.0857
16588TIP3    H271180   5.699   3.744   3.208  0.0252 -0.8506  0.5371
16589TIP3   OH271181   0.807   0.051   5.293  0.3811 -0.0385  0.2236
16589TIP3    H171182   0.741   0.065   5.360 -1.5034  0.2314 -1.6250
16589TIP3    H271183   0.761   0.000   5.225  2.0093  0.3144 -1.1700
16590TIP3   OH271184   5.911   0.677  14.938 -0.5749 -0.1688 -0.2121
16590TIP3    H171185   5.827   0.633  14.946 -0.2225 -0.9946 -0.9992
16590TIP3    H271186   5.919   0.698  14.845  0.1423 -0.2141 -0.1673
16591TIP3   OH271187   6.728   3.527  12.685  0.0771  0.4444 -0.0659
16591TIP3    H171188   6.675   3.452  12.711  0.0172  0.8011  0.8683
16591TIP3    H271189   6.677   3.572  12.618 -1.7914  1.9726  2.3098
16592TIP3   OH271190   3.676   0.458  14.360 -0.1998  0.0593 -0.0693
16592TIP3    H171191   3.633   0.493  14.438 -0.6435  0.2831 -0.4175
16592TIP3    H271192   3.608   0.408  14.315  0.2606 -0.7185  0.0930
16593TIP3   OH271193   6.126   1.933   1.981  0.7575 -0.3100 -0.2060
16593TIP3    H171194   6.090   1.956   2.066  0.0077 -1.3858 -0.2225
16593TIP3    H271195   6.049   1.918   1.925  1.2012 -1.9106 -0.4326
16594TIP3   OH271196   4.076   0.095  14.047  0.1237 -0.4759  0.2109
16594TIP3    H171197   4.077   0.185  14.014  0.6969 -0.3691  0.5193
16594TIP3    H271198   4.042   0.102  14.136  0.0295 -0.5793  0.1826
16595TIP3   OH271199   1.393   3.495   0.133  0.3673  0.4018 -0.0916
16595TIP3    H171200   1.476   3.447   0.129  0.6322  0.8390  0.1365
16595TIP3    H271201   1.363   3.484   0.223 -0.3103 -0.5589 -0.4173
16596TIP3   OH271202   1.409   2.470   3.235  0.3386 -0.5885  0.2956
16596TIP3    H171203   1.323   2.441   3.204 -1.3220  0.9885  3.2786
16596TIP3    H271204   1.418   2.560   3.203  1.5143 -1.1960 -1.1612
16597TIP3   OH271205   3.785   2.921  14.358  0.1313  0.2168 -0.3214
16597TIP3    H171206   3.868   2.966  14.374  1.0930 -0.9090 -1.9537
16597TIP3    H271207   3.810   2.840  14.314 -1.7750 -0.5844  0.0169
16598TIP3   OH271208   5.939   4.957  12.539 -0.1077 -0.3970  0.4939
16598TIP3    H171209   5.898   4.870  12.534  1.2383 -1.0543  0.8789
16598TIP3    H271210   5.974   4.963  12.628 -0.6596  0.7592  0.6432
16599TIP3   OH271211   0.412   1.798  12.343 -0.2930  0.4125 -0.2298
16599TIP3    H171212   0.408   1.882  12.389 -1.3889  1.1240 -1.5887
16599TIP3    H271213   0.505   1.781  12.330 -0.1090  2.1158 -1.2138
16600TIP3   OH271214   1.413   6.763   0.694  0.0124  0.5615 -0.0429
16600TIP3    H171215   1.425   6.858   0.704  2.8209  0.3777 -1.3231
16600TIP3    H271216   1.483   6.725   0.746 -0.5664 -0.8153 -0.2630
16601TIP3   OH271217   0.670   6.439   2.774  0.3270  0.3019  0.0685
16601TIP3    H171218   0.760   6.408   2.775  0.3727  0.3956 -0.8376
16601TIP3    H271219   0.676   6.534   2.787  0.1681 -0.0453  3.1976
16602TIP3   OH271220   0.599   3.506  16.389 -0.2537 -0.1852  0.0297
16602TIP3    H171221   0.624   3.563  16.462  0.6203  0.3807 -0.7063
16602TIP3    H271222   0.524   3.549  16.350  2.5127  2.3555 -2.6849
16603TIP3   OH271223   2.187   0.911   3.248  0.0476 -0.4093 -0.0370
16603TIP3    H171224   2.251   0.980   3.237  0.2911 -0.6719 -0.2606
16603TIP3    H271225   2.234   0.842   3.296 -0.3648 -0.1765  0.7246
16604TIP3   OH271226   0.815   0.198  14.175  0.4348  0.0698 -0.2388
16604TIP3    H171227   0.800   0.155  14.091  1.3252  0.3835 -0.5568
16604TIP3    H271228   0.852   0.283  14.153  1.3322 -0.1232  0.4945
16605TIP3   OH271229   6.531   4.001  13.578 -0.5086 -0.3258  0.1585
16605TIP3    H171230   6.579   4.074  13.540  0.9065 -0.4697  1.6060
16605TIP3    H271231   6.491   4.037  13.657 -0.4912 -0.9142  0.4398
16606TIP3   OH271232   4.550   2.519   4.639 -0.0407  0.3639  0.9891
16606TIP3    H171233   4.523   2.607   4.613 -1.5817 -0.1535  0.7435
16606TIP3    H271234   4.501   2.461   4.580  1.2174 -0.6459  0.9158
16607TIP3   OH271235   5.617   3.388  10.633  0.0126 -0.2328  0.1376
16607TIP3    H171236   5.694   3.444  10.631  0.2455 -0.5321  0.5912
16607TIP3    H271237   5.554   3.431  10.575  1.2096 -0.9911 -1.7456
16608TIP3   OH271238   3.305   0.415  14.899  0.0088 -0.7248 -0.2488
16608TIP3    H171239   3.400   0.410  14.913  0.0592 -1.2108 -0.7323
16608TIP3    H271240   3.289   0.353  14.827 -0.6768 -0.6595 -0.1467
16609TIP3   OH271241   5.292   3.852   0.289  0.1169 -0.0604  0.4636
16609TIP3    H171242   5.218   3.794   0.301  0.8389 -0.9844  0.5165
16609TIP3    H271243   5.351   3.833   0.362  1.5917 -1.1866 -0.9674
16610TIP3   OH271244   4.296   6.528  14.205 -0.6652  0.1166 -0.4458
16610TIP3    H171245   4.361   6.474  14.159 -0.1588  1.1136 -0.9125
16610TIP3    H271246   4.225   6.539  14.142 -1.8585 -1.9931  0.4900
16611TIP3   OH271247   2.932   4.709  13.398 -0.1682 -0.2022 -0.1880
16611TIP3    H171248   3.022   4.722  13.369  0.4530 -1.3045  1.2212
16611TIP3    H271249   2.910   4.789  13.446 -0.2212  0.3907 -1.1764
16612TIP3   OH271250   6.430   0.718   1.997 -0.1137 -0.3041 -0.0038
16612TIP3    H171251   6.432   0.792   2.058  1.9771 -0.2602 -0.0942
16612TIP3    H271252   6.345   0.726   1.954  0.2224  2.2923 -0.2974
16613TIP3   OH271253   0.476   5.139   6.401  0.0830 -0.2676 -1.0255
16613TIP3    H171254   0.403   5.201   6.398  0.5805  0.3853  0.1148
16613TIP3    H271255   0.471   5.093   6.317 -0.7745  0.7550 -1.5573
16614TIP3   OH271256   2.018   4.323   5.229  0.4139  1.1054 -0.0598
16614TIP3    H171257   2.055   4.262   5.292 -0.3465  1.2555  0.5354
16614TIP3    H271258   1.943   4.277   5.191  2.0847  0.2015 -2.3861
16615TIP3   OH271259   2.551   2.275   1.026  0.7564  0.0297  0.4348
16615TIP3    H171260   2.563   2.314   1.112  3.0460 -0.8456  0.5619
16615TIP3    H271261   2.477   2.214   1.037 -0.8659  2.0631  0.9862
16616TIP3   OH271262   4.425   4.088  14.942  0.5540  1.0206  0.5178
16616TIP3    H171263   4.353   4.136  14.900 -0.9011 -1.2952  0.3144
16616TIP3    H271264   4.411   4.102  15.036  0.1649  1.0547  0.4572
16617TIP3   OH271265   6.266   4.002  14.817 -0.5749  0.3664  0.0889
16617TIP3    H171266   6.225   3.916  14.824  1.3563 -0.5256  0.7367
16617TIP3    H271267   6.273   4.018  14.723 -0.8750 -0.2315 -0.0360
16618TIP3   OH271268   0.719   4.011  12.539 -0.0215 -0.2152  0.3120
16618TIP3    H171269   0.678   4.080  12.592  0.4589  0.3204 -0.0082
16618TIP3    H271270   0.794   3.982  12.591  0.9926  0.9532 -0.4762
16619TIP3   OH271271   1.568   5.540  11.724  0.1899 -0.1621 -0.1237
16619TIP3    H171272   1.536   5.461  11.680 -1.0401  0.4317 -0.3089
16619TIP3    H271273   1.497   5.603  11.715  1.4474  1.2077 -0.5964
16620TIP3   OH271274   4.975   2.164  13.502  0.3827  0.0409 -0.2585
16620TIP3    H171275   5.014   2.085  13.539  0.3943 -0.9662 -2.3972
16620TIP3    H271276   4.921   2.133  13.429  1.4461  2.1282 -1.9742
16621TIP3   OH271277   3.229   0.957  16.977 -0.7174 -0.0714 -0.4821
16621TIP3    H171278   3.307   0.909  16.950 -0.3060 -0.0989  0.7136
16621TIP3    H271279   3.237   0.963  17.073 -2.2969 -0.2974 -0.3196
16622TIP3   OH271280   3.765   4.028  14.271  0.0437  0.1487 -0.3001
16622TIP3    H171281   3.725   3.941  14.269  2.5950 -1.0864  0.3734
16622TIP3    H271282   3.744   4.063  14.357 -0.9696  0.2137 -0.5640
16623TIP3   OH271283   4.384   6.053  16.879  0.7563 -0.0502  0.2998
16623TIP3    H171284   4.452   6.054  16.946  0.6143  2.4292  0.4718
16623TIP3    H271285   4.377   6.145  16.851  0.4732 -0.9351 -2.7388
16624TIP3   OH271286   5.148   1.510   0.604 -0.0681  0.5208 -0.0328
16624TIP3    H171287   5.082   1.488   0.670 -0.4050  2.1936  0.2102
16624TIP3    H271288   5.107   1.577   0.550  1.1986  1.1271 -0.2660
16625TIP3   OH271289   0.896   1.714  12.085 -0.4707 -0.0948  0.1914
16625TIP3    H171290   0.969   1.757  12.129  0.1634 -0.1066 -0.8227
16625TIP3    H271291   0.842   1.786  12.052 -0.4997 -0.0817  0.2683
16626TIP3   OH271292   1.969   1.255   2.738  0.0391  0.3409  0.3580
16626TIP3    H171293   1.945   1.163   2.731  0.3590  0.4092 -2.1504
16626TIP3    H271294   1.907   1.291   2.802 -0.7703 -1.3917  0.5722
16627TIP3   OH271295   4.602   2.990  15.406 -0.3323  0.2094  0.6654
16627TIP3    H171296   4.679   2.999  15.350 -0.5071  1.1543  0.5590
16627TIP3    H271297   4.539   2.942  15.353 -0.1019  0.1397  0.4557
16628TIP3   OH271298   1.798   3.283   4.543 -0.2239  0.4817  0.7683
16628TIP3    H171299   1.813   3.202   4.493 -0.4858  2.1072 -2.0562
16628TIP3    H271300   1.883   3.302   4.583  0.1288 -0.6173  0.5605
16629TIP3   OH271301   2.620   5.257   0.403 -0.6763  0.3838  0.1594
16629TIP3    H171302   2.715   5.267   0.406 -0.7997  1.4234  0.7247
16629TIP3    H271303   2.601   5.187   0.465 -0.3519  0.7321  0.6496
16630TIP3   OH271304   1.934   4.830  11.547  0.5599  0.2869 -0.4333
16630TIP3    H171305   2.004   4.868  11.601 -0.6370 -0.8234  2.0043
16630TIP3    H271306   1.928   4.888  11.471  2.4109  1.8437  0.5525
16631TIP3   OH271307   6.319   3.798   5.240  0.2373 -0.0919 -0.3175
16631TIP3    H171308   6.241   3.819   5.189  1.4118  1.0005 -1.7318
16631TIP3    H271309   6.357   3.883   5.262  1.0307 -0.6099  0.3553
16632TIP3   OH271310   1.337   6.077  12.299 -0.3383 -0.4843  0.0872
16632TIP3    H171311   1.290   5.995  12.313  0.5248 -1.5032 -2.5683
16632TIP3    H271312   1.332   6.092  12.205  1.7315  1.1453  0.1833
16633TIP3   OH271313   2.049   2.243   1.323  0.5185 -0.1209  0.1081
16633TIP3    H171314   1.963   2.223   1.359  1.1094 -1.7831  0.6738
16633TIP3    H271315   2.032   2.288   1.241 -0.8820 -0.1115  0.4006
16634TIP3   OH271316   3.518   5.443  13.425  0.0200  0.4936  0.5633
16634TIP3    H171317   3.548   5.355  13.401 -0.5118  0.9728 -1.9794
16634TIP3    H271318   3.423   5.439  13.417 -0.1216  0.8695  1.9949
16635TIP3   OH271319   3.296   5.681  13.537 -0.1969  0.2645  0.2125
16635TIP3    H171320   3.221   5.702  13.593 -0.3768 -0.0511  0.0928
16635TIP3    H271321   3.328   5.597  13.572  0.1835  0.4685  0.3516
16636TIP3   OH271322   1.913   1.788  12.946  0.1856 -0.3672  0.0104
16636TIP3    H171323   1.903   1.882  12.932 -1.0653 -0.2022  1.8721
16636TIP3    H271324   1.832   1.750  12.914 -0.1114 -0.6074  1.0302
16637TIP3   OH271325   3.535   5.017   0.478 -1.0728 -0.6190  0.2379
16637TIP3    H171326   3.596   5.075   0.524 -1.5745  0.8431 -0.8927
16637TIP3    H271327   3.572   5.010   0.390 -0.0346 -3.5033  0.8333
16638TIP3   OH271328   0.269   0.601   2.863  0.0649  0.0890  0.1054
16638TIP3    H171329   0.316   0.685   2.862 -0.5927  0.4632 -1.1719
16638TIP3    H271330   0.336   0.536   2.880  0.8877  0.7171 -0.6836
16639TIP3   OH271331   3.142   3.886  15.727  0.8186 -0.6814 -0.5937
16639TIP3    H171332   3.219   3.834  15.709  1.3493  0.2764 -1.1374
16639TIP3    H271333   3.167   3.976  15.704 -0.5703 -0.4176 -1.1638
16640TIP3   OH271334   4.092   5.322   1.006 -0.1428 -0.1160 -0.0862
16640TIP3    H171335   4.076   5.415   0.988 -3.0197 -0.3164  1.2529
16640TIP3    H271336   4.143   5.323   1.088  2.3986  0.3285 -1.6062
16641TIP3   OH271337   5.825   3.301   3.398  0.7159 -0.3803 -0.0722
16641TIP3    H171338   5.854   3.385   3.362  1.5603 -0.2342  0.9278
16641TIP3    H271339   5.775   3.324   3.476  2.7072 -0.8805  1.3894
16642TIP3   OH271340   1.355   1.531   0.490 -0.1816 -0.5836  0.0881
16642TIP3    H171341   1.425   1.533   0.556  0.3433 -0.3429 -0.4691
16642TIP3    H271342   1.397   1.563   0.410 -1.2265  0.6872  0.0310
16643TIP3   OH271343   6.185   5.111   3.355  0.4374 -0.3586 -0.2503
16643TIP3    H171344   6.123   5.051   3.397  0.7970 -1.0789 -0.7431
16643TIP3    H271345   6.140   5.195   3.355  0.2731 -0.4377  1.2100
16644TIP3   OH271346   1.501   2.152   1.636 -0.1180 -0.5918 -0.0497
16644TIP3    H171347   1.458   2.100   1.569  0.0589 -1.5575  0.5687
16644TIP3    H271348   1.558   2.090   1.681  0.1032  0.1432  0.6960
16645TIP3   OH271349   5.004   5.721   3.860  0.1742  0.4182 -0.0061
16645TIP3    H171350   4.983   5.810   3.832  0.6170  0.6723  0.4589
16645TIP3    H271351   4.971   5.716   3.949 -0.1083  0.0238 -0.1351
16646TIP3   OH271352   2.655   4.976   4.847 -0.1236  0.2395  0.4487
16646TIP3    H171353   2.693   4.992   4.934  1.5695 -1.2611  0.0164
16646TIP3    H271354   2.675   4.885   4.829 -1.0458  0.3611 -1.2572
16647TIP3   OH271355   3.554   6.074  11.950  0.1047 -0.3999  0.2351
16647TIP3    H171356   3.558   6.123  12.032 -0.2678 -0.2055  0.1363
16647TIP3    H271357   3.645   6.071  11.921  0.0842  0.6071  0.0254
16648TIP3   OH271358   6.593   2.845   6.103 -0.2771 -0.0118  0.6678
16648TIP3    H171359   6.620   2.777   6.165  0.5811 -0.4229 -0.1499
16648TIP3    H271360   6.500   2.828   6.087 -0.4563 -0.0235  1.6853
16649TIP3   OH271361   4.860   6.641   5.366  0.2144  0.0806  0.5771
16649TIP3    H171362   4.904   6.675   5.444  2.3466 -0.5547 -0.3178
16649TIP3    H271363   4.897   6.690   5.294 -1.7924  0.6998 -0.0761
16650TIP3   OH271364   5.209   2.689  13.805 -0.1991 -0.2414 -0.1907
16650TIP3    H171365   5.180   2.732  13.886 -0.7277  0.1325 -0.5705
16650TIP3    H271366   5.158   2.732  13.736  1.2177  0.3794 -0.8712
16651TIP3   OH271367   0.377   2.488  14.875 -0.1897  0.2001  0.4163
16651TIP3    H171368   0.288   2.457  14.891 -0.5956  1.0252 -0.1801
16651TIP3    H271369   0.365   2.579  14.846  0.9035  0.6011  1.2045
16652TIP3   OH271370   3.293   0.587   5.572  0.0282 -0.1722  0.0689
16652TIP3    H171371   3.286   0.592   5.667 -0.4455  0.1224  0.0195
16652TIP3    H271372   3.206   0.561   5.543 -0.2159  1.0977 -0.3776
16653TIP3   OH271373   4.326   3.915   6.162  0.3621  0.2039  0.6531
16653TIP3    H171374   4.360   3.901   6.250 -0.8841 -1.6826  0.8604
16653TIP3    H271375   4.241   3.872   6.162 -0.2425  1.3488 -1.0804
16654TIP3   OH271376   4.105   0.576   1.416  0.1408  0.0284  0.1309
16654TIP3    H171377   4.114   0.518   1.492  0.9875  1.6210  1.2814
16654TIP3    H271378   4.075   0.659   1.453 -0.8932  0.3788 -1.4703
16655TIP3   OH271379   2.806   6.681   0.991 -0.1172  0.0553  0.5420
16655TIP3    H171380   2.754   6.758   0.968  1.8135  1.3201  0.2116
16655TIP3    H271381   2.743   6.619   1.026 -1.8303  1.5300  0.1801
16656TIP3   OH271382   1.719   3.442  14.726 -0.1200  0.4037  0.1299
16656TIP3    H171383   1.702   3.393  14.806 -1.7605  1.1602  0.2734
16656TIP3    H271384   1.814   3.437  14.714 -0.0998 -1.4642  0.9762
16657TIP3   OH271385   6.612   5.869  15.221  0.3600 -0.3771  0.6385
16657TIP3    H171386   6.622   5.778  15.195  1.5071 -0.0935  0.0696
16657TIP3    H271387   6.701   5.904  15.223  0.0187  0.4793  1.7843
16658TIP3   OH271388   1.744   2.009   4.726  0.7010 -0.1796 -0.5125
16658TIP3    H171389   1.810   2.065   4.686 -0.8149  1.6557 -0.5438
16658TIP3    H271390   1.756   1.924   4.685  0.4909  1.1260 -3.4177
16659TIP3   OH271391   5.731   5.737   2.750  0.6330 -0.5612  0.1183
16659TIP3    H171392   5.821   5.730   2.783  1.5801 -1.9352 -2.5196
16659TIP3    H271393   5.693   5.811   2.797  2.4701 -1.2458  2.7828
16660TIP3   OH271394   3.009   2.375  12.572 -0.1108 -0.0050  0.2213
16660TIP3    H171395   3.029   2.318  12.647  0.3496  0.5923  0.5646
16660TIP3    H271396   2.917   2.359  12.553  0.3257 -1.8243 -0.5191
16661TIP3   OH271397   3.397   4.087  17.078  0.4736 -0.3305 -0.2153
16661TIP3    H171398   3.366   4.000  17.052 -1.5184  0.9567 -2.3855
16661TIP3    H271399   3.321   4.127  17.121  0.8589  0.9004 -0.6557
16662TIP3   OH271400   3.007   5.996   4.696  0.2295  0.4958  0.1462
16662TIP3    H171401   2.927   5.984   4.748  0.2503  0.5181  0.1844
16662TIP3    H271402   3.051   5.912   4.701 -0.4215  0.0822 -0.9543
16663TIP3   OH271403   1.192   2.229  11.262  0.1652  0.6416 -0.1518
16663TIP3    H171404   1.193   2.323  11.245 -2.2728  0.5705 -0.8750
16663TIP3    H271405   1.128   2.194  11.200 -0.5090 -1.2210  1.5336
16664TIP3   OH271406   3.769   1.568  13.664  0.2803 -0.4210 -0.2535
16664TIP3    H171407   3.709   1.494  13.659  0.9155 -0.9363 -0.2673
16664TIP3    H271408   3.855   1.532  13.642  0.7935  0.0757  0.8841
16665TIP3   OH271409   3.341   2.016   4.837  0.0460 -0.6327  0.1613
16665TIP3    H171410   3.414   1.965   4.874  0.5643 -0.7555 -1.0138
16665TIP3    H271411   3.353   2.009   4.743 -0.0315  1.4345 -0.0235
16666TIP3   OH271412   0.295   6.758  10.705 -0.3361 -0.4812  0.0126
16666TIP3    H171413   0.342   6.696  10.761 -0.6286 -1.0633 -0.3775
16666TIP3    H271414   0.285   6.712  10.621  0.7907  0.6766 -0.7812
16667TIP3   OH271415   5.888   1.834   2.547 -0.3415  0.2974  0.7607
16667TIP3    H171416   5.943   1.758   2.525 -0.4577  0.4321  0.0029
16667TIP3    H271417   5.817   1.797   2.598 -0.8206 -0.2276 -0.2731
16668TIP3   OH271418   6.002   2.164  16.927 -0.4745  0.2475 -0.3948
16668TIP3    H171419   6.016   2.077  16.888 -1.4437  0.5357 -1.4273
16668TIP3    H271420   5.997   2.223  16.852  1.8167  1.4624  0.3801
16669TIP3   OH271421   4.110   5.054   1.327  0.4343 -0.3801 -0.2407
16669TIP3    H171422   4.064   4.971   1.344 -1.0051  0.8873  2.4058
16669TIP3    H271423   4.051   5.121   1.362  1.6158  1.7815 -2.2612
16670TIP3   OH271424   3.251   4.726   1.564 -0.9684  0.2496  0.8981
16670TIP3    H171425   3.301   4.674   1.501 -1.3265 -0.7118  1.3966
16670TIP3    H271426   3.241   4.812   1.522  0.5800  0.2684  0.5454
16671TIP3   OH271427   1.570   2.562   5.113  0.0874  0.0178 -0.2060
16671TIP3    H171428   1.609   2.476   5.128 -0.1675 -0.2581 -1.1013
16671TIP3    H271429   1.583   2.609   5.195  2.7959  0.1240 -0.6369
16672TIP3   OH271430   4.316   1.142   0.699  1.1556 -0.1333  0.0184
16672TIP3    H171431   4.408   1.164   0.711  1.0748  0.2447 -0.0494
16672TIP3    H271432   4.297   1.165   0.609  0.7528  0.6834  0.3030
16673TIP3   OH271433   5.658   0.196  12.938  0.0426 -0.0217  0.2131
16673TIP3    H171434   5.566   0.200  12.913  0.0745 -0.5892 -0.0029
16673TIP3    H271435   5.682   0.287  12.956 -0.7190  0.0578  0.8611
16674TIP3   OH271436   4.816   0.041  17.170 -0.0169  0.2714  0.6298
16674TIP3    H171437   4.909   0.036  17.190 -0.1111  0.8611  1.2406
16674TIP3    H271438   4.783   0.111  17.227 -0.8039  0.1559  0.3234
16675TIP3   OH271439   1.303   3.960  14.611 -0.1143  0.4070 -0.4903
16675TIP3    H171440   1.392   3.992  14.594 -0.4258  2.0692  0.8885
16675TIP3    H271441   1.274   3.924  14.527  2.8395 -2.6274 -0.3087
16676TIP3   OH271442   5.206   3.683  16.218 -0.1048 -1.0008 -0.1651
16676TIP3    H171443   5.247   3.769  16.220  1.7086 -1.8385 -0.1550
16676TIP3    H271444   5.150   3.681  16.296  0.9151 -0.3288  0.6042
16677TIP3   OH271445   5.033   6.372  10.705  0.0775 -0.0250 -0.7453
16677TIP3    H171446   5.114   6.420  10.726 -0.9931  1.2880  0.4791
16677TIP3    H271447   4.965   6.440  10.704 -1.2991 -1.3766  0.0182
16678TIP3   OH271448   3.612   0.768  14.667 -0.2137  0.7692  0.2528
16678TIP3    H171449   3.704   0.783  14.648 -0.4264 -0.2977 -1.6804
16678TIP3    H271450   3.612   0.711  14.744  0.7293  1.0595  0.4725
16679TIP3   OH271451   6.370   4.505   3.509 -0.1794 -0.0892 -0.1360
16679TIP3    H171452   6.286   4.476   3.473 -0.5432  0.1413  0.5286
16679TIP3    H271453   6.380   4.456   3.590  0.9758 -1.1204 -0.8970
16680TIP3   OH271454   0.056   2.020  15.912  0.3425  0.3459  0.4403
16680TIP3    H171455  -0.005   2.058  15.847 -0.7307 -1.3324  0.4320
16680TIP3    H271456   0.045   2.075  15.989  0.1034  1.1164 -0.1270
16681TIP3   OH271457   1.183   2.191   5.280  0.1394  0.0879  0.1095
16681TIP3    H171458   1.237   2.239   5.218  1.1571  0.0186  0.9371
16681TIP3    H271459   1.104   2.167   5.231  1.2932 -0.6789 -1.3847
16682TIP3   OH271460   5.161   1.968  16.085 -0.2656  0.3437  0.3926
16682TIP3    H171461   5.074   1.962  16.046 -0.5738 -0.4397  1.2069
16682TIP3    H271462   5.152   1.928  16.172  1.0399 -0.2601  0.2578
16683TIP3   OH271463   3.181   5.541   0.294 -0.6467  0.4409  0.3928
16683TIP3    H171464   3.257   5.564   0.242 -1.0481  1.0468  0.0701
16683TIP3    H271465   3.152   5.457   0.258 -0.4127  0.4396  0.2053
16684TIP3   OH271466   0.022   6.475   0.765  0.7421 -0.1200  0.1897
16684TIP3    H171467   0.013   6.388   0.803 -0.3396 -1.5567 -3.1700
16684TIP3    H271468   0.074   6.462   0.686  0.6217  2.2818 -0.3395
16685TIP3   OH271469   4.603   1.678   4.870 -1.1931 -0.0614 -0.1186
16685TIP3    H171470   4.539   1.740   4.906 -1.4679 -0.5717  0.2868
16685TIP3    H271471   4.688   1.712   4.898 -1.2468  0.9666 -1.1969
16686TIP3   OH271472   3.676   0.481   1.318 -0.0779 -0.2274  0.2879
16686TIP3    H171473   3.677   0.411   1.384 -1.9498 -1.4997 -0.9711
16686TIP3    H271474   3.764   0.479   1.280 -0.3964 -2.6678 -0.4530
16687TIP3   OH271475   5.231   1.656  12.301  0.3704 -0.6796  0.1529
16687TIP3    H171476   5.294   1.588  12.323  0.7011 -0.1226  0.9505
16687TIP3    H271477   5.201   1.689  12.386 -1.9965 -1.8491 -0.1755
16688TIP3   OH271478   2.373   5.733  13.583  0.1775 -0.2167 -0.1993
16688TIP3    H171479   2.336   5.805  13.532 -0.3469 -1.3521 -1.4549
16688TIP3    H271480   2.425   5.776  13.651 -0.9326  1.3583 -0.3173
16689TIP3   OH271481   4.283   4.065  12.023  0.4623 -0.5962 -0.3707
16689TIP3    H171482   4.328   4.005  12.083  2.0991  0.9916  0.0294
16689TIP3    H271483   4.340   4.141  12.018 -2.5808  1.8445  0.7598
16690TIP3   OH271484   5.913   5.345   3.037  0.2251 -0.2308  0.1589
16690TIP3    H171485   5.942   5.291   3.110 -2.0026 -0.3972  0.9284
16690TIP3    H271486   5.864   5.416   3.077  0.6824  0.7905 -1.0523
16691TIP3   OH271487   6.595   2.225   5.344  0.0236  0.5700  0.0674
16691TIP3    H171488   6.665   2.186   5.291 -0.4174 -0.2812  0.1078
16691TIP3    H271489   6.517   2.221   5.288 -0.5807 -0.8792  0.9813
16692TIP3   OH271490   3.342   2.809   6.723 -0.1685 -0.4852  0.9699
16692TIP3    H171491   3.425   2.798   6.769  0.5449  1.2601  0.1463
16692TIP3    H271492   3.319   2.721   6.692  0.4806 -1.2690  2.6906
16693TIP3   OH271493   0.350   3.581  11.715  0.4014 -0.4981 -0.3979
16693TIP3    H171494   0.262   3.587  11.679  0.2768  1.4381  0.2152
16693TIP3    H271495   0.392   3.512  11.663 -0.4763  0.7050 -2.7871
16694TIP3   OH271496   4.154   5.156   1.954 -0.1483 -0.0858  0.4333
16694TIP3    H171497   4.233   5.205   1.974  0.1374 -0.3413 -0.0493
16694TIP3    H271498   4.160   5.076   2.007  0.7152 -0.8657 -0.8054
16695TIP3   OH271499   0.210   5.972  15.348 -0.1774 -0.3936  0.6161
16695TIP3    H171500   0.128   5.947  15.390 -0.4721  0.3444  0.4924
16695TIP3    H271501   0.245   6.042  15.404 -0.2960  0.2087 -0.0662
16696TIP3   OH271502   2.914   6.527  17.049 -0.3493  0.8452  0.4281
16696TIP3    H171503   2.872   6.517  17.134 -0.1499 -1.5340  0.2877
16696TIP3    H271504   2.901   6.443  17.006  0.5793  1.6240 -1.4339
16697TIP3   OH271505   2.982   5.244   0.873 -0.5266 -0.0062  0.0331
16697TIP3    H171506   2.974   5.211   0.784 -0.8692 -1.3066  0.5311
16697TIP3    H271507   3.057   5.198   0.910 -1.3346 -0.6358  0.9115
16698TIP3   OH271508   0.129   4.787  17.180 -0.1455  0.1554  0.9506
16698TIP3    H171509   0.037   4.779  17.208 -0.5786 -1.1265 -0.7782
16698TIP3    H271510   0.163   4.698  17.185 -0.0736 -0.0323 -1.9560
16699TIP3   OH271511   4.143   2.582   1.292 -0.0568 -0.1986 -0.0450
16699TIP3    H171512   4.197   2.645   1.244  1.3615 -0.3870  1.2594
16699TIP3    H271513   4.076   2.556   1.229  1.2257  0.2243 -1.6411
16700TIP3   OH271514   6.457   4.415   3.769  0.1757 -0.5083  0.2557
16700TIP3    H171515   6.494   4.501   3.789 -0.0185  0.2330 -2.3875
16700TIP3    H271516   6.530   4.366   3.731 -0.6403 -0.2178 -1.7324
16701TIP3   OH271517   6.220   2.608  11.394 -0.4202 -0.9941 -0.2530
16701TIP3    H171518   6.152   2.545  11.371 -1.4068  0.2871 -0.8636
16701TIP3    H271519   6.221   2.609  11.490 -1.1963 -1.0707 -0.2458
16702TIP3   OH271520   2.689   5.957  12.519 -0.3123  0.1661 -0.4465
16702TIP3    H171521   2.657   5.940  12.430 -1.1006  1.8132 -0.4937
16702TIP3    H271522   2.609   5.965  12.571  0.1602 -2.0915  0.6847
16703TIP3   OH271523   1.275   3.800  16.519  0.1128  0.4364  0.4251
16703TIP3    H171524   1.226   3.764  16.593  2.3312 -1.4637  1.0345
16703TIP3    H271525   1.267   3.734  16.451  0.0244  1.1231 -0.2403
16704TIP3   OH271526   1.021   4.467  12.194 -0.0099 -0.1107  0.0816
16704TIP3    H171527   1.014   4.539  12.132 -1.3785 -0.0063  0.3345
16704TIP3    H271528   0.931   4.452  12.224  0.7344  0.6037  2.9090
16705TIP3   OH271529   0.446   5.141   4.581 -0.2137 -0.6820 -0.8179
16705TIP3    H171530   0.493   5.220   4.607  0.5882 -1.3140 -0.2880
16705TIP3    H271531   0.376   5.171   4.524 -0.1122  0.4371 -0.3522
16706TIP3   OH271532   1.233   0.705  17.091 -0.7096 -0.1311 -0.2318
16706TIP3    H171533   1.154   0.687  17.142  0.4412  0.4705  1.8370
16706TIP3    H271534   1.209   0.687  17.001 -2.1869 -3.4295  0.7474
16707TIP3   OH271535   4.963   2.745   1.389  0.4865  0.2835  0.0978
16707TIP3    H171536   4.892   2.754   1.453  1.1349  0.0384  0.8599
16707TIP3    H271537   5.038   2.790   1.430  1.0604 -0.3522 -0.2390
16708TIP3   OH271538   6.001   3.085   2.484 -0.0710  0.4992 -0.0123
16708TIP3    H171539   6.031   3.167   2.443  0.0063 -0.7840 -2.5580
16708TIP3    H271540   6.082   3.045   2.517  0.1130  0.5970 -0.3370
16709TIP3   OH271541   1.912   4.464   0.554  0.5337  0.1538 -0.0057
16709TIP3    H171542   1.931   4.468   0.648 -0.0491 -0.2503  0.1328
16709TIP3    H271543   1.880   4.375   0.540 -1.5985  0.9160 -0.1531
16710TIP3   OH271544   2.522   3.786  14.038  0.3068  0.2885 -0.7894
16710TIP3    H171545   2.477   3.766  13.957  0.2953 -3.0080 -0.0234
16710TIP3    H271546   2.606   3.823  14.011  1.1867 -2.7387 -2.3820
16711TIP3   OH271547   6.723   0.796  10.535  0.2671  0.0560 -0.1494
16711TIP3    H171548   6.735   0.721  10.477  0.2149 -0.0547 -0.0187
16711TIP3    H271549   6.628   0.806  10.542  0.1982 -1.5600  1.9750
16712TIP3   OH271550   1.684   0.734   5.027  0.7642  0.2150 -0.7757
16712TIP3    H171551   1.747   0.679   5.073  0.4389 -1.0610 -1.8202
16712TIP3    H271552   1.710   0.824   5.048  0.0018 -0.3194  2.7203
16713TIP3   OH271553   2.610   6.068  10.893  0.4906 -0.4037  0.0967
16713TIP3    H171554   2.600   5.979  10.925  2.3881 -0.6968 -0.0585
16713TIP3    H271555   2.705   6.082  10.891  0.2783  0.9516 -1.6703
16714TIP3   OH271556   3.822   2.908  12.943  0.3638  0.0793  0.6154
16714TIP3    H171557   3.830   2.821  12.982  0.2859 -0.9937 -1.7073
16714TIP3    H271558   3.911   2.943  12.944  0.9600 -1.3175 -1.3136
16715TIP3   OH271559   1.361   0.268   1.312 -0.3535 -0.4074 -0.7605
16715TIP3    H171560   1.447   0.292   1.348 -1.1596 -1.0708  1.6730
16715TIP3    H271561   1.309   0.348   1.318 -0.7677 -0.7635  0.4070
16716TIP3   OH271562   1.870   1.481  14.238 -0.3123 -0.1893  0.7553
16716TIP3    H171563   1.862   1.508  14.329  1.4387 -3.6752  2.0688
16716TIP3    H271564   1.794   1.425  14.223 -0.2667 -0.1307  0.3152
16717TIP3   OH271565   4.268   0.581  11.865 -0.5275 -0.1138  0.3061
16717TIP3    H171566   4.181   0.561  11.831 -0.1419  0.7400 -1.2268
16717TIP3    H271567   4.329   0.539  11.804  0.1746  1.7585 -0.3312
16718TIP3   OH271568   1.751   0.239   0.085  0.2314  0.0649  0.0184
16718TIP3    H171569   1.661   0.211   0.099  0.5749 -2.1461 -1.8661
16718TIP3    H271570   1.802   0.195   0.153 -0.0265  0.7355  0.6383
16719TIP3   OH271571   4.195   6.764  14.381  0.0744  0.1099  0.4745
16719TIP3    H171572   4.233   6.727  14.461 -0.3042  0.5765  0.8722
16719TIP3    H271573   4.184   6.688  14.324  0.0000 -0.2896  1.0079
16720TIP3   OH271574   3.710   1.326   4.225  0.1928 -0.1728  0.1812
16720TIP3    H171575   3.770   1.257   4.253 -0.7427 -1.4042 -0.7791
16720TIP3    H271576   3.623   1.290   4.241 -0.3097  1.4543  1.2287
16721TIP3   OH271577   6.443   2.279  12.358 -0.2395 -0.2425  0.2231
16721TIP3    H171578   6.508   2.271  12.428  0.5446 -0.0948 -0.4851
16721TIP3    H271579   6.469   2.213  12.294 -0.0729  0.6465 -0.6279
16722TIP3   OH271580   4.615   1.450   1.057  0.1614 -0.0319  0.1068
16722TIP3    H171581   4.553   1.382   1.081  0.1457  0.8812  2.8588
16722TIP3    H271582   4.618   1.448   0.962 -2.0249 -1.9002  0.0457
16723TIP3   OH271583   4.335   2.585   0.351  0.0484 -0.7755  0.0358
16723TIP3    H171584   4.355   2.492   0.360 -1.8199 -1.1252  0.9321
16723TIP3    H271585   4.322   2.615   0.441  2.0319  0.6918 -0.1494
16724TIP3   OH271586   6.128   1.199   4.763  0.2408 -0.1787  0.0491
16724TIP3    H171587   6.077   1.165   4.689 -0.8210 -0.1949  0.7785
16724TIP3    H271588   6.115   1.294   4.759 -0.5995 -0.2570  0.7725
16725TIP3   OH271589   3.567   0.291   0.269  0.7278 -0.2948  0.6067
16725TIP3    H171590   3.615   0.258   0.193 -0.9124  0.0000 -0.6038
16725TIP3    H271591   3.631   0.343   0.318  1.4675  0.6983 -1.3444
16726TIP3   OH271592   1.296   0.467   0.540 -0.7794  0.1348  0.2513
16726TIP3    H171593   1.214   0.433   0.575  0.2814 -0.3781  2.3309
16726TIP3    H271594   1.320   0.539   0.598  0.0082  0.5701 -0.5969
16727TIP3   OH271595   0.457   1.362  10.654  0.6941  0.1122 -0.6766
16727TIP3    H171596   0.447   1.277  10.612  0.8027 -0.4777  0.4575
16727TIP3    H271597   0.397   1.420  10.608  0.6571 -0.5692 -1.4890
16728TIP3   OH271598   0.476   5.533  14.189  0.3892 -0.4606  0.5297
16728TIP3    H171599   0.413   5.598  14.158  2.8605  1.4972 -0.5075
16728TIP3    H271600   0.488   5.553  14.282  1.2559  0.6809  0.1803
16729TIP3   OH271601   2.521   1.999  15.902 -0.5923 -0.2873  1.4531
16729TIP3    H171602   2.508   1.986  15.996  1.2088 -3.1395  1.3696
16729TIP3    H271603   2.603   2.048  15.896 -0.5600 -0.3517  1.3660
16730TIP3   OH271604   1.840   6.665   6.336  0.3915  0.2378 -0.4994
16730TIP3    H171605   1.814   6.616   6.414 -1.7039  0.1665 -1.2095
16730TIP3    H271606   1.918   6.713   6.363  0.1314 -0.3676  1.4142
16731TIP3   OH271607   2.577   3.385   0.224  0.6377 -0.0916 -0.0613
16731TIP3    H171608   2.619   3.391   0.137  1.4698 -2.0551  0.1805
16731TIP3    H271609   2.498   3.333   0.209 -0.1796  1.1102  0.0349
16732TIP3   OH271610   1.436   5.032   3.958 -0.7088  0.0944  0.0438
16732TIP3    H171611   1.382   5.066   4.028 -0.3944  0.1761  0.2468
16732TIP3    H271612   1.463   4.945   3.988 -1.3886 -0.2770 -0.4078
16733TIP3   OH271613   3.246   1.613   4.828 -0.3269  0.1413 -0.7194
16733TIP3    H171614   3.200   1.660   4.758 -0.5136  3.0711  1.3110
16733TIP3    H271615   3.337   1.609   4.798 -1.1936 -2.9664 -3.3212
16734TIP3   OH271616   5.260   6.409   3.972  0.4337 -0.8592  0.2075
16734TIP3    H171617   5.344   6.384   3.933  0.6571  0.3013 -0.0731
16734TIP3    H271618   5.202   6.424   3.898  0.2021 -0.8821  0.3827
16735TIP3   OH271619   6.461   2.904   5.208  0.3964 -0.1009 -0.3996
16735TIP3    H171620   6.437   2.983   5.255 -1.3837 -0.5653 -0.4946
16735TIP3    H271621   6.491   2.844   5.276  0.3090  0.1340 -0.1526
16736TIP3   OH271622   5.509   3.877  11.389  0.1606  0.2753 -0.4320
16736TIP3    H171623   5.556   3.924  11.320  2.2158  2.0358  2.1042
16736TIP3    H271624   5.445   3.941  11.422 -0.8819 -0.5910 -0.7638
16737TIP3   OH271625   5.419   6.504  15.728 -0.0193 -0.3079  0.1335
16737TIP3    H171626   5.341   6.455  15.701  0.7365 -1.0510 -0.7474
16737TIP3    H271627   5.388   6.564  15.795 -1.6500  0.4102 -1.2210
16738TIP3   OH271628   4.102   3.003  16.434  0.2781 -0.0795  0.0367
16738TIP3    H171629   4.193   2.976  16.445 -0.2521 -1.4561  1.1614
16738TIP3    H271630   4.102   3.056  16.354  2.0594 -0.0577  0.0352
16739TIP3   OH271631   3.595   3.470   2.926 -0.3479 -0.1939 -0.1280
16739TIP3    H171632   3.641   3.513   2.854 -1.2040  0.2532 -0.4177
16739TIP3    H271633   3.547   3.398   2.884 -1.7353  0.7552 -0.1681
16740TIP3   OH271634   1.600   5.398   2.745  0.1105  0.0382  0.5367
16740TIP3    H171635   1.517   5.372   2.707 -0.2944  0.9912  0.7563
16740TIP3    H271636   1.594   5.493   2.754  2.3599  0.4748 -2.1141
16741TIP3   OH271637   1.729   0.378   4.526  0.0145  0.8659  0.0758
16741TIP3    H171638   1.676   0.369   4.447 -2.2677 -1.1498  1.7819
16741TIP3    H271639   1.678   0.336   4.595  3.2441 -0.0225  2.0610
16742TIP3   OH271640   3.440   4.383  15.648  0.4283  0.4459  0.0921
16742TIP3    H171641   3.447   4.434  15.567 -0.6243  1.9789  0.9283
16742TIP3    H271642   3.399   4.444  15.710 -1.7121 -1.7157  0.8709
16743TIP3   OH271643   4.828   3.236  11.992  0.8278 -0.3021  1.1508
16743TIP3    H171644   4.787   3.316  12.025  0.5834 -0.4534  1.2151
16743TIP3    H271645   4.796   3.167  12.050 -0.1219 -0.6707  0.2086
16744TIP3   OH271646   5.420   3.933  16.158  0.1370 -0.1214 -0.5758
16744TIP3    H171647   5.468   4.004  16.200 -0.9251  0.5204 -0.4603
16744TIP3    H271648   5.342   3.974  16.122 -0.0567 -1.0711 -1.2559
16745TIP3   OH271649   1.944   0.952  16.511 -0.1479 -0.5226 -0.0635
16745TIP3    H171650   2.010   1.021  16.517 -0.0822 -0.6935  1.4246
16745TIP3    H271651   1.974   0.896  16.439  0.3763  0.3999 -0.5659
16746TIP3   OH271652   6.378   1.088  11.311 -0.4593  0.1421  0.7190
16746TIP3    H171653   6.360   1.132  11.228  1.2707  1.6551  1.1243
16746TIP3    H271654   6.342   1.000  11.299 -0.4197  0.3979 -1.5527
16747TIP3   OH271655   1.978   0.199  15.249 -0.2917  0.2623  0.2414
16747TIP3    H171656   1.946   0.253  15.322 -0.4430  0.2097  0.2136
16747TIP3    H271657   1.938   0.113  15.264 -0.7483  0.3967 -0.1988
16748TIP3   OH271658   5.374   0.316   0.355  0.2132 -0.0376  0.9693
16748TIP3    H171659   5.326   0.260   0.295  0.5308 -0.0846  0.7594
16748TIP3    H271660   5.443   0.356   0.302  0.4503 -0.0228  1.2809
16749TIP3   OH271661   3.992   3.146  12.801  0.4907  0.6213  0.0511
16749TIP3    H171662   4.028   3.231  12.779  1.6524 -0.0245 -0.5622
16749TIP3    H271663   4.051   3.111  12.868  0.5106 -0.0585 -0.3150
16750TIP3   OH271664   5.845   5.362  10.773  0.8693  0.0922 -0.2365
16750TIP3    H171665   5.773   5.379  10.834  0.2861 -1.6371 -0.4198
16750TIP3    H271666   5.863   5.447  10.734  0.4849  0.9941  1.5141
16751TIP3   OH271667   4.881   4.568   6.000 -0.2598  0.3771  0.0796
16751TIP3    H171668   4.940   4.493   5.997 -0.9893 -0.2127  0.2048
16751TIP3    H271669   4.900   4.611   6.084 -0.9230 -0.5678  0.7176
16752TIP3   OH271670   3.209   5.910  12.053  0.0060  0.4642  0.3473
16752TIP3    H171671   3.277   5.849  12.079 -0.4314  0.4976  1.5800
16752TIP3    H271672   3.149   5.858  11.999 -0.1820 -0.1169  1.1069
16753TIP3   OH271673   3.562   6.077   2.528  0.1684  0.4459  0.1068
16753TIP3    H171674   3.491   6.065   2.464  0.0103  0.0937  0.3526
16753TIP3    H271675   3.639   6.040   2.485  0.9309  3.6520 -1.5131
16754TIP3   OH271676   5.248   6.358   2.420  0.3309  0.0329  0.1055
16754TIP3    H171677   5.331   6.405   2.428 -0.9519  2.6004 -1.0598
16754TIP3    H271678   5.216   6.380   2.333  0.0453 -3.7126 -0.8012
16755TIP3   OH271679   0.197   3.079   4.159  1.1101  0.1936 -0.3979
16755TIP3    H171680   0.186   3.102   4.251 -0.6421  1.4273 -0.8878
16755TIP3    H271681   0.112   3.044   4.133  1.4762  0.2156 -1.6419
16756TIP3   OH271682   4.479   3.095  11.269  0.1000 -0.2282  0.1086
16756TIP3    H171683   4.463   3.151  11.193 -0.0585 -0.8718 -0.3266
16756TIP3    H271684   4.571   3.072  11.263 -0.3785 -1.8890 -0.9661
16757TIP3   OH271685   2.615   6.705   2.007  0.5982 -0.4126 -0.4013
16757TIP3    H171686   2.683   6.639   2.019 -0.9449 -2.0874 -0.5825
16757TIP3    H271687   2.539   6.655   1.977 -0.6176  1.4589 -0.4972
16758TIP3   OH271688   0.102   3.905  10.670  0.3593  0.5822  0.0579
16758TIP3    H171689   0.153   3.984  10.685 -0.4099  0.7427  1.9245
16758TIP3    H271690   0.128   3.845  10.740  1.1009 -0.9288 -1.4601
16759TIP3   OH271691   4.551   1.445  12.553 -0.0554  0.3364  0.5324
16759TIP3    H171692   4.638   1.484  12.566  0.5062 -0.8366  0.4345
16759TIP3    H271693   4.534   1.454  12.459 -0.1108  0.7162  0.5791
16760TIP3   OH271694   5.798   3.449  14.250 -0.0947  0.4184 -0.1267
16760TIP3    H171695   5.858   3.491  14.312 -0.3530  0.5274  0.0466
16760TIP3    H271696   5.803   3.503  14.171  0.2402  0.2756 -0.2067
16761TIP3   OH271697   1.606   0.562  11.384  0.4504 -0.2862 -0.3636
16761TIP3    H171698   1.629   0.478  11.423  0.3916 -0.6171 -1.0451
16761TIP3    H271699   1.533   0.543  11.325 -1.3355  0.6821  1.4741
16762TIP3   OH271700   6.291   0.988  13.543 -0.2557  0.1621 -0.0383
16762TIP3    H171701   6.316   0.907  13.586  1.4726  1.8209  2.1904
16762TIP3    H271702   6.212   1.016  13.590 -1.1672 -0.4791 -1.1632
16763TIP3   OH271703   5.957   4.660   5.109  0.1973 -0.6266  0.1453
16763TIP3    H171704   5.976   4.646   5.016  2.3742 -1.9909  0.7321
16763TIP3    H271705   5.988   4.579   5.151  0.0657  0.3441  2.1364
16764TIP3   OH271706   1.091   3.697  15.927 -0.4385  0.0284  0.3561
16764TIP3    H171707   1.087   3.654  15.841 -0.5148 -0.2363  0.4935
16764TIP3    H271708   1.071   3.789  15.908 -1.8381 -0.2788  0.2870
16765TIP3   OH271709   5.058   2.978   1.021  0.3194 -0.2863  0.0755
16765TIP3    H171710   4.989   2.915   1.043 -0.0255  0.4250  1.0756
16765TIP3    H271711   5.128   2.961   1.085  0.4334 -0.0019  0.0305
16766TIP3   OH271712   2.414   6.313   4.472 -0.3787  0.5407 -0.4252
16766TIP3    H171713   2.404   6.377   4.543  1.3403  0.6026 -0.2256
16766TIP3    H271714   2.460   6.240   4.512  0.8211  0.6721 -1.5357
16767TIP3   OH271715   1.880   5.267  11.301  0.2513 -0.2230  0.4790
16767TIP3    H171716   1.870   5.346  11.354  1.8055  1.3986 -1.5583
16767TIP3    H271717   1.822   5.281  11.226  3.5756  0.9303 -2.0019
16768TIP3   OH271718   3.595   2.861   3.131 -0.4016  0.0790  0.1171
16768TIP3    H171719   3.670   2.882   3.188 -0.7528  0.4898  0.4333
16768TIP3    H271720   3.587   2.766   3.137 -0.4147  0.1144  0.7350
16769TIP3   OH271721   5.163   3.156  16.709 -0.4886 -0.5545  0.1253
16769TIP3    H171722   5.203   3.096  16.647 -0.9121  0.1244 -0.8174
16769TIP3    H271723   5.178   3.116  16.795 -1.6711 -2.5361 -0.5489
16770TIP3   OH271724   1.138   0.641  11.003 -0.1953 -0.2750  0.3413
16770TIP3    H171725   1.094   0.616  10.921 -1.3762  0.6667  0.6674
16770TIP3    H271726   1.213   0.694  10.974  0.0761 -0.9190 -0.1679
16771TIP3   OH271727   4.534   1.203   1.026  0.2006 -0.4116 -0.1136
16771TIP3    H171728   4.570   1.132   1.080  0.4072 -0.2036  0.0214
16771TIP3    H271729   4.497   1.158   0.950  0.4209 -0.6579 -0.0773
16772TIP3   OH271730   3.045   5.190   2.784 -0.2165  0.1958 -0.2723
16772TIP3    H171731   3.082   5.276   2.762  0.5255 -0.3368 -1.1701
16772TIP3    H271732   2.957   5.209   2.817 -0.0082  1.3082 -0.3408
16773TIP3   OH271733   4.678   4.634  14.427  0.7054 -0.2541 -0.0475
16773TIP3    H171734   4.670   4.721  14.387  1.3648  0.3398  1.0665
16773TIP3    H271735   4.597   4.623  14.477  1.4955  0.6388  1.5004
16774TIP3   OH271736   0.882   6.315  13.720 -0.3326  0.2510  0.7473
16774TIP3    H171737   0.942   6.379  13.680 -1.9751  1.2858 -0.1504
16774TIP3    H271738   0.931   6.233  13.721  0.8165  0.8864 -0.7167
16775TIP3   OH271739   6.730   1.103   0.625  0.3964  0.6206  0.4807
16775TIP3    H171740   6.647   1.075   0.589  1.1456 -0.1211 -0.7093
16775TIP3    H271741   6.769   1.157   0.556  1.4983 -0.1619  0.4786
16776TIP3   OH271742   5.583   2.086   2.231  0.2167  0.0002  0.8554
16776TIP3    H171743   5.529   2.144   2.285  0.4186 -0.8362  1.9761
16776TIP3    H271744   5.520   2.036   2.179  0.0749  2.0037 -0.9735
16777TIP3   OH271745   5.087   2.590   5.542 -0.4548 -0.4564 -0.0310
16777TIP3    H171746   5.059   2.647   5.470 -0.3413 -0.0385  0.2534
16777TIP3    H271747   5.006   2.550   5.573 -0.9388  1.5817  1.5043
16778TIP3   OH271748   2.172   0.742   4.837  0.7137 -0.5323 -0.0927
16778TIP3    H171749   2.236   0.704   4.898  0.8478 -1.0110 -0.5349
16778TIP3    H271750   2.092   0.692   4.852  0.8233 -0.8299 -0.5067
16779TIP3   OH271751   1.768   1.529  11.392 -0.2602 -0.3760  0.1503
16779TIP3    H171752   1.820   1.461  11.349 -1.9301 -1.8015  0.3103
16779TIP3    H271753   1.760   1.598  11.326 -0.0571 -1.1331 -0.6772
16780TIP3   OH271754   1.189   3.287   0.053  0.3917 -0.2112  0.2498
16780TIP3    H171755   1.135   3.264   0.130  1.1902 -0.2612  0.7986
16780TIP3    H271756   1.255   3.347   0.088 -1.5920  2.9078 -1.1340
16781TIP3   OH271757   5.516   4.971  13.488  0.0087  0.1939  0.5600
16781TIP3    H171758   5.509   5.064  13.509  1.1349  0.6221 -0.8743
16781TIP3    H271759   5.607   4.960  13.459 -0.3737 -1.1653 -0.1598
16782TIP3   OH271760   6.565   1.563   0.883  0.1123  0.1171  0.3293
16782TIP3    H171761   6.516   1.485   0.909 -1.2115  0.4013 -1.2517
16782TIP3    H271762   6.565   1.618   0.962  0.4333 -1.1349  1.2280
16783TIP3   OH271763   0.594   2.272   5.435  0.1288  0.7121 -0.4816
16783TIP3    H171764   0.655   2.320   5.379 -1.0561  1.9452 -0.7360
16783TIP3    H271765   0.560   2.337   5.496 -0.1594 -0.1817  0.3148
16784TIP3   OH271766   3.216   1.555   1.292  0.2664 -0.4927  0.0211
16784TIP3    H171767   3.218   1.651   1.289 -1.7222 -0.4090  0.5781
16784TIP3    H271768   3.302   1.530   1.325 -0.5830  1.2970  3.9105
16785TIP3   OH271769   4.277   1.952  15.722 -0.1213  0.1271 -0.0905
16785TIP3    H171770   4.225   1.887  15.675  0.0457  0.4754 -0.7773
16785TIP3    H271771   4.303   2.015  15.654  1.2847 -0.0958  0.2148
16786TIP3   OH271772   1.393   3.943   3.145 -0.3933 -0.9218 -0.2097
16786TIP3    H171773   1.380   3.851   3.170  1.9065 -0.5997  2.3816
16786TIP3    H271774   1.479   3.966   3.180 -1.5086  2.6460  0.3956
16787TIP3   OH271775   4.683   3.923   2.730 -0.1846 -0.3140  0.2810
16787TIP3    H171776   4.677   3.830   2.750  2.5600 -0.7974 -0.8382
16787TIP3    H271777   4.653   3.931   2.640 -5.6946  0.7937  2.0312
16788TIP3   OH271778   0.647   2.939   6.366 -0.2737 -0.9173 -0.2342
16788TIP3    H171779   0.698   2.859   6.350  1.0089  0.2103 -1.9485
16788TIP3    H271780   0.684   2.975   6.447  0.9860 -0.6438 -0.9178
16789TIP3   OH271781   2.639   3.621  12.011  0.3604 -0.0090 -0.1831
16789TIP3    H171782   2.616   3.670  11.932 -1.4950  1.1331  1.0366
16789TIP3    H271783   2.729   3.590  11.995  0.1026  0.4238 -2.6052
16790TIP3   OH271784   6.099   4.474   0.332  0.5084  0.2058  0.2394
16790TIP3    H171785   6.118   4.381   0.318 -0.5616 -0.0816  0.6914
16790TIP3    H271786   6.072   4.506   0.246  0.4454 -0.0033  0.1809
16791TIP3   OH271787   4.512   1.603  16.422  0.2431  0.3580 -1.2068
16791TIP3    H171788   4.578   1.639  16.481 -0.3536 -0.5470  0.0360
16791TIP3    H271789   4.561   1.550  16.360  0.5711 -1.5445  0.6361
16792TIP3   OH271790   2.741   3.699  14.810 -0.0350 -0.5084 -0.0499
16792TIP3    H171791   2.724   3.784  14.851  1.4715  0.4093 -1.2832
16792TIP3    H271792   2.683   3.697  14.733  0.1536 -0.4753 -0.1909
16793TIP3   OH271793   6.417   0.108  11.803 -0.7031 -0.0947 -0.1189
16793TIP3    H171794   6.370   0.096  11.886  0.0238 -0.6168  0.2192
16793TIP3    H271795   6.465   0.190  11.815 -0.8246 -0.0205 -0.1343
16794TIP3   OH271796   4.723   2.340   3.404  0.4834 -0.2892  0.3826
16794TIP3    H171797   4.793   2.329   3.340  0.7875 -0.3897  0.7246
16794TIP3    H271798   4.687   2.252   3.416  0.4044 -0.2644  0.3225
16795TIP3   OH271799   4.688   2.824   5.490 -0.3544  0.2006 -0.3202
16795TIP3    H171800   4.600   2.832   5.453 -0.8249  2.9286  1.2024
16795TIP3    H271801   4.676   2.844   5.583  1.4839 -2.0904  0.4586
16796TIP3   OH271802   6.267   2.277  14.100  0.2633 -0.4255  0.1303
16796TIP3    H171803   6.286   2.265  14.006  2.4313 -0.6216  0.5653
16796TIP3    H271804   6.319   2.353  14.125 -0.8491  0.0490  1.0422
16797TIP3   OH271805   3.949   0.934   2.956 -0.2847  0.3074 -0.1317
16797TIP3    H171806   3.866   0.887   2.944 -1.1538  1.4926  1.0825
16797TIP3    H271807   3.932   0.994   3.028  1.5000  0.9182 -0.1965
16798TIP3   OH271808   4.732   4.596   3.123  0.0440  0.5301 -0.6433
16798TIP3    H171809   4.689   4.520   3.162  1.4439  0.3038  0.5016
16798TIP3    H271810   4.825   4.579   3.133  0.3924  1.9215 -1.3220
16799TIP3   OH271811   3.543   4.921  10.358 -0.1994  0.1565  0.6519
16799TIP3    H171812   3.519   4.836  10.394  0.3946 -0.4425 -0.3232
16799TIP3    H271813   3.461   4.957  10.324 -0.2067 -0.7017 -0.2784
16800TIP3   OH271814   2.859   5.797   2.410 -0.1275 -0.4924 -0.1909
16800TIP3    H171815   2.773   5.817   2.374 -0.0015 -1.4222 -1.0188
16800TIP3    H271816   2.918   5.803   2.335  1.0887  3.5018  0.9826
16801TIP3   OH271817   6.585   3.687  14.370  0.2280  1.0317 -0.1617
16801TIP3    H171818   6.679   3.704  14.363  0.5200 -0.1891  0.6501
16801TIP3    H271819   6.577   3.627  14.444 -1.0939  0.2942 -0.8859
16802TIP3   OH271820   1.637   1.248  15.363 -0.1928 -0.3413 -0.3816
16802TIP3    H171821   1.553   1.295  15.368 -0.2347 -0.5969  2.0457
16802TIP3    H271822   1.693   1.303  15.309 -0.3265  2.4132  2.1622
16803TIP3   OH271823   6.736   6.751   4.620 -0.1351 -0.1588  0.3612
16803TIP3    H171824   6.691   6.683   4.570 -1.5134  0.6550  0.4612
16803TIP3    H271825   6.782   6.802   4.554  2.6053 -2.3734  0.4658
16804TIP3   OH271826   4.104   3.900  16.200  0.1433  0.1807 -0.2400
16804TIP3    H171827   4.059   3.818  16.179  0.9599 -0.0554 -1.1435
16804TIP3    H271828   4.087   3.957  16.125  0.4775  0.4581 -0.1116
16805TIP3   OH271829   6.383   5.892  15.388 -0.2757  0.0877 -0.6150
16805TIP3    H171830   6.371   5.986  15.402 -0.1593  0.1534 -0.9634
16805TIP3    H271831   6.473   5.885  15.356 -0.5666 -0.0637 -1.3896
16806TIP3   OH271832   3.140   1.022   4.663 -0.1063  0.2855  0.3098
16806TIP3    H171833   3.146   0.993   4.572  1.2525 -0.8024  0.7324
16806TIP3    H271834   3.107   0.946   4.710  1.6171  0.0144  1.1188
16807TIP3   OH271835   6.403   3.840   2.798 -0.0711  0.4850 -0.2158
16807TIP3    H171836   6.470   3.846   2.867  1.0261  0.7537 -1.2980
16807TIP3    H271837   6.448   3.866   2.718 -1.5883  1.1080 -0.8938
16808TIP3   OH271838   2.161   5.227  10.863  0.4611 -0.8560 -0.0028
16808TIP3    H171839   2.068   5.231  10.883  0.4182  0.5539 -0.4074
16808TIP3    H271840   2.187   5.137  10.885 -1.1080 -1.4311 -0.4434
16809TIP3   OH271841   4.262   2.650   0.609 -0.7266 -0.5156  0.2529
16809TIP3    H171842   4.200   2.702   0.660  0.0582 -0.4018  1.1002
16809TIP3    H271843   4.298   2.587   0.671  0.5161 -0.1281 -0.0532
16810TIP3   OH271844   4.605   2.765  15.941  0.1747 -0.2439 -0.1152
16810TIP3    H171845   4.630   2.834  16.002 -0.8874 -0.2889  0.3967
16810TIP3    H271846   4.682   2.751  15.886 -0.0100  2.1934 -1.0393
16811TIP3   OH271847   2.631   4.070   3.479 -0.6819  0.0048 -0.3327
16811TIP3    H171848   2.667   4.153   3.511  0.9822 -0.9499  0.3253
16811TIP3    H271849   2.560   4.096   3.421 -0.4058  1.8894  0.1271
16812TIP3   OH271850   4.456   3.991   0.067  0.0070 -0.0692 -0.6411
16812TIP3    H171851   4.447   3.967  -0.025  0.6577 -2.6406 -0.0600
16812TIP3    H271852   4.366   3.993   0.100 -0.0941 -1.2494 -0.8270
16813TIP3   OH271853   5.061   4.465  15.013  0.8185 -0.4200  0.3285
16813TIP3    H171854   5.025   4.514  15.087  1.8539 -0.2429  0.7279
16813TIP3    H271855   4.993   4.468  14.946 -0.5430 -1.4167  1.6207
16814TIP3   OH271856   4.511   2.439  15.631  0.0836 -0.1704 -0.6335
16814TIP3    H171857   4.423   2.474  15.637  0.3498  0.7859 -1.9976
16814TIP3    H271858   4.568   2.511  15.660  0.5668  0.2303 -2.4724
16815TIP3   OH271859   6.072   5.828   1.251 -0.5550 -0.0724 -0.4812
16815TIP3    H171860   6.037   5.916   1.262 -1.2420 -0.6067  1.7163
16815TIP3    H271861   6.026   5.775   1.315  1.2945 -1.6324 -0.3923
16816TIP3   OH271862   2.581   5.308  12.260  0.2324  0.6895  0.4717
16816TIP3    H171863   2.618   5.394  12.278  2.7762  0.0793 -1.4927
16816TIP3    H271864   2.566   5.308  12.165 -1.6090 -0.3319  0.7405
16817TIP3   OH271865   6.426   5.181   3.555  0.6996 -0.0533  0.2524
16817TIP3    H171866   6.345   5.171   3.504  0.6674  0.2736  0.2374
16817TIP3    H271867   6.421   5.270   3.589  1.7734  0.4955 -0.9923
16818TIP3   OH271868   0.992   6.196  15.053 -0.0338  0.5764 -0.2648
16818TIP3    H171869   0.901   6.165  15.049  0.0501  0.3693 -0.5598
16818TIP3    H271870   1.015   6.214  14.962  0.6899 -0.7205 -0.3367
16819TIP3   OH271871   0.556   0.805  12.217 -0.0297  0.3167  0.3941
16819TIP3    H171872   0.550   0.866  12.144  0.5890  1.2536  1.1189
16819TIP3    H271873   0.527   0.721  12.180  1.5453  0.4729 -1.2912
16820TIP3   OH271874   5.672   4.001  11.192 -0.6035 -0.3978  0.1918
16820TIP3    H171875   5.659   4.088  11.230  1.0248  0.2026 -0.5868
16820TIP3    H271876   5.723   4.017  11.113  0.9674 -2.2000  0.8083
16821TIP3   OH271877   6.596   5.527   2.541 -0.3153 -0.3164 -0.1819
16821TIP3    H171878   6.658   5.479   2.596 -1.1550 -0.2412  0.8390
16821TIP3    H271879   6.528   5.464   2.520 -1.2586  0.3099  0.9066
16822TIP3   OH271880   1.415   2.992  12.951  0.1571  0.0144 -1.2308
16822TIP3    H171881   1.457   3.052  12.889  1.3672  1.0893  0.5789
16822TIP3    H271882   1.390   3.048  13.025  0.0782 -1.4841 -0.1046
16823TIP3   OH271883   5.534   2.010   2.575 -0.7651 -0.1109  0.2661
16823TIP3    H171884   5.524   1.979   2.664 -0.8069 -0.0643  0.2779
16823TIP3    H271885   5.494   2.097   2.575 -0.7348 -0.0965  0.2106
16824TIP3   OH271886   5.419   3.476  16.672 -0.2803 -0.1691 -0.2657
16824TIP3    H171887   5.409   3.537  16.598  0.7672 -1.9598 -1.9371
16824TIP3    H271888   5.467   3.526  16.738  2.6710  0.1362 -2.5440
16825TIP3   OH271889   5.181   4.429   5.777  0.0817 -0.1099  0.4409
16825TIP3    H171890   5.087   4.409   5.771  0.0324 -0.1492  1.2454
16825TIP3    H271891   5.217   4.356   5.827  0.2121  0.8744  1.8062
16826TIP3   OH271892   4.305   1.759  12.689  0.2594 -0.4680  0.3756
16826TIP3    H171893   4.356   1.739  12.610 -0.7420 -2.4529  0.1849
16826TIP3    H271894   4.244   1.827  12.662  1.4194  0.4625  0.0571
16827TIP3   OH271895   3.254   4.232   5.561  0.7484 -0.1443 -0.1971
16827TIP3    H171896   3.247   4.140   5.535  0.3938 -0.2280  0.1868
16827TIP3    H271897   3.343   4.257   5.536  0.1741  0.0073 -2.2026
16828TIP3   OH271898   3.419   4.227   5.184 -0.1808 -0.1504 -0.5737
16828TIP3    H171899   3.470   4.275   5.249 -1.7399  1.1823 -0.2766
16828TIP3    H271900   3.483   4.175   5.136  1.0998 -0.5187  1.4839
16829TIP3   OH271901   4.734   5.725  14.587  0.3692 -0.0752 -0.2204
16829TIP3    H171902   4.777   5.640  14.594 -0.6188 -0.4270  2.1230
16829TIP3    H271903   4.795   5.786  14.629 -0.3294 -0.1761  0.9606
16830TIP3   OH271904   6.449   5.584  14.793 -0.0080 -0.4696 -0.1110
16830TIP3    H171905   6.489   5.531  14.862 -2.4175 -1.4186  0.6236
16830TIP3    H271906   6.370   5.536  14.769 -0.6758  1.2882 -1.5866
16831TIP3   OH271907   0.645   3.092   2.228  0.1111 -0.3617 -0.1381
16831TIP3    H171908   0.662   3.010   2.182  2.2463 -0.5877  0.9657
16831TIP3    H271909   0.732   3.120   2.259 -0.6566  2.0585 -0.0838
16832TIP3   OH271910   4.004   3.520   4.122 -0.0880 -0.5081  0.0449
16832TIP3    H171911   3.923   3.568   4.107  0.3058  0.0229 -0.3971
16832TIP3    H271912   4.010   3.458   4.049  0.1233 -0.2469 -0.1606
16833TIP3   OH271913   2.075   4.557  15.746  0.3557 -0.3171  0.0464
16833TIP3    H171914   1.995   4.505  15.754  0.0542  0.1608  0.1815
16833TIP3    H271915   2.068   4.598  15.659  2.0524 -2.9089 -1.3780
16834TIP3   OH271916   2.264   3.855  15.221 -0.5644 -0.2808 -0.1753
16834TIP3    H171917   2.204   3.858  15.296 -1.8185 -1.0804 -1.1346
16834TIP3    H271918   2.350   3.874  15.259 -1.3035  0.1351  1.3365
16835TIP3   OH271919   5.918   4.973  15.171  0.3061  0.2467 -0.2968
16835TIP3    H171920   5.924   4.899  15.111  0.2858  0.9212 -1.1298
16835TIP3    H271921   6.009   4.993  15.194  0.3245  0.1140 -0.2543
16836TIP3   OH271922   1.679   2.134  15.061  0.4689  0.1310  0.3272
16836TIP3    H171923   1.733   2.111  14.985 -0.0582 -2.2914  0.6370
16836TIP3    H271924   1.727   2.101  15.136 -0.3720 -0.0661  0.7921
16837TIP3   OH271925   4.404   1.110   4.851 -0.1107 -0.2848 -0.0826
16837TIP3    H171926   4.498   1.097   4.841 -0.3914 -1.2830 -1.5640
16837TIP3    H271927   4.364   1.039   4.801 -1.6567 -0.8981  1.9404
16838TIP3   OH271928   4.388   0.800   2.347 -0.2156 -0.3763  0.5457
16838TIP3    H171929   4.389   0.754   2.263 -1.0900 -0.5226  0.6168
16838TIP3    H271930   4.471   0.775   2.388  0.6160  0.3585 -0.6218
16839TIP3   OH271931   2.725   6.756  14.064 -0.8961 -0.3393  0.5395
16839TIP3    H171932   2.687   6.695  14.001 -0.4564 -0.4415  0.3718
16839TIP3    H271933   2.799   6.708  14.102 -0.0660  0.3811 -0.1693
16840TIP3   OH271934   0.815   3.959  13.480  1.1402 -0.0582 -0.5108
16840TIP3    H171935   0.863   3.980  13.400  0.4121 -1.0831 -1.2321
16840TIP3    H271936   0.833   3.866  13.495 -1.7548 -0.8433 -1.6144
16841TIP3   OH271937   3.606   6.173  15.370 -0.5612 -0.5835 -0.0626
16841TIP3    H171938   3.617   6.261  15.406 -1.5831 -0.7684  0.7030
16841TIP3    H271939   3.620   6.183  15.276  0.1480  0.2498  0.1312
16842TIP3   OH271940   2.468   5.509   4.031 -0.2997  0.4393 -0.1324
16842TIP3    H171941   2.496   5.600   4.024 -0.8952  0.4506 -2.7504
16842TIP3    H271942   2.409   5.496   3.957 -2.0204 -1.4464  1.4911
16843TIP3   OH271943   3.085   4.435  16.841  0.3372  0.3267 -0.2553
16843TIP3    H171944   3.131   4.364  16.796  3.2659  1.4341  0.8387
16843TIP3    H271945   3.105   4.513  16.789  0.5367  0.9939  0.7980
16844TIP3   OH271946   3.666   1.544   3.285  0.1605 -0.7797 -0.1361
16844TIP3    H171947   3.586   1.492   3.293 -0.5313  0.4580  1.1539
16844TIP3    H271948   3.679   1.555   3.191 -2.2850  0.6827 -0.3421
16845TIP3   OH271949   5.926   2.404  16.455 -0.0981  0.0582 -0.0918
16845TIP3    H171950   5.917   2.497  16.473  2.1020  0.5267 -1.2246
16845TIP3    H271951   6.005   2.397  16.402 -1.1997 -2.2586 -1.5433
16846TIP3   OH271952   3.748   5.567   4.447 -0.3672 -0.2356 -0.7514
16846TIP3    H171953   3.653   5.573   4.442 -0.5556 -0.5652  1.7959
16846TIP3    H271954   3.778   5.580   4.357 -2.8562 -1.1787 -1.7504
16847TIP3   OH271955   6.692   0.087   4.849  0.3435  0.7014  0.0610
16847TIP3    H171956   6.717   0.044   4.767 -0.7049  0.1165  0.0370
16847TIP3    H271957   6.603   0.056   4.867  0.1538  1.6522  0.8672
16848TIP3   OH271958   3.960   4.094   2.298 -0.0986  0.0063 -0.1475
16848TIP3    H171959   3.887   4.126   2.351  0.3158  0.5075  0.1162
16848TIP3    H271960   3.986   4.012   2.340 -0.0190  0.2092  0.1973
16849TIP3   OH271961   5.130   4.211  12.775  0.8519  0.7675 -0.5245
16849TIP3    H171962   5.076   4.276  12.730  1.0982  1.4800  0.1932
16849TIP3    H271963   5.219   4.244  12.767  0.9445  0.6734  0.1102
16850TIP3   OH271964   3.993   4.992  12.227  0.4164 -0.1021  0.3453
16850TIP3    H171965   3.951   5.032  12.151 -0.7998  0.3942  1.2655
16850TIP3    H271966   4.083   4.976  12.198 -0.1533 -0.3967 -1.3639
16851TIP3   OH271967   5.087   0.979  12.063  0.0175 -0.1363  0.3536
16851TIP3    H171968   4.993   0.993  12.052 -0.0795 -0.4137  0.7987
16851TIP3    H271969   5.129   1.050  12.015 -0.4213 -0.1114  0.0148
16852TIP3   OH271970   5.618   3.848  16.767  0.0105  0.2208 -0.4425
16852TIP3    H171971   5.687   3.803  16.718 -0.7531  0.3678 -1.6677
16852TIP3    H271972   5.650   3.851  16.857  2.0073  1.0842 -1.1676
16853TIP3   OH271973   6.169   2.210   0.767  0.5347  0.2778  0.8501
16853TIP3    H171974   6.125   2.242   0.846  1.2745  0.5693  1.1546
16853TIP3    H271975   6.110   2.144   0.731  1.0807 -1.2660  2.7262
16854TIP3   OH271976   0.075   5.580   1.555 -0.1050 -0.4687  0.5405
16854TIP3    H171977   0.025   5.498   1.559  0.9204 -1.2965 -2.2836
16854TIP3    H271978   0.121   5.585   1.639 -0.4843 -2.6000  0.8976
16855TIP3   OH271979   2.976   4.365  11.017 -0.6996  0.3827  0.2259
16855TIP3    H171980   2.968   4.272  11.039  0.2248  0.2109 -0.1524
16855TIP3    H271981   2.933   4.373  10.932  1.6343 -0.2506 -1.0776
16856TIP3   OH271982   1.747   3.379  15.591  0.0444  0.0615  0.6570
16856TIP3    H171983   1.653   3.380  15.612  0.2354  0.3660  1.5553
16856TIP3    H271984   1.761   3.294  15.549 -0.1639 -1.1204  2.8645
16857TIP3   OH271985   2.691   4.599   3.222 -0.2915  0.5827 -0.3358
16857TIP3    H171986   2.703   4.605   3.317 -1.2010 -0.5177 -0.1380
16857TIP3    H271987   2.771   4.557   3.190 -0.4404 -0.0317  0.0845
16858TIP3   OH271988   6.478   1.362  12.435  0.6744  0.2637  0.5773
16858TIP3    H171989   6.538   1.328  12.501  0.4047  0.6023  0.9917
16858TIP3    H271990   6.489   1.302  12.361  1.1929  0.0611  0.8163
16859TIP3   OH271991   6.465   3.637   0.829 -0.1169 -0.3054  0.3439
16859TIP3    H171992   6.518   3.572   0.875 -0.4539 -3.0320 -2.9979
16859TIP3    H271993   6.500   3.638   0.740 -1.5517  2.5466 -0.2435
16860TIP3   OH271994   5.687   0.315  13.272 -0.0557 -0.0353 -0.1878
16860TIP3    H171995   5.651   0.232  13.242  0.3533 -0.7972  1.3792
16860TIP3    H271996   5.775   0.318  13.234  0.4696 -1.0067  0.9346
16861TIP3   OH271997   0.647   2.395   2.661  0.3618 -0.5935  0.0419
16861TIP3    H171998   0.652   2.314   2.611  1.3988 -0.8093  0.4599
16861TIP3    H271999   0.563   2.434   2.637 -0.9941 -2.6868  1.1992
16862TIP3   OH272000   3.870   6.086  16.220 -0.1669 -0.3826  0.3897
16862TIP3    H172001   3.836   6.071  16.132  0.9883 -3.6924  0.4209
16862TIP3    H272002   3.793   6.103  16.273 -0.9113  1.2149 -1.1672
16863TIP3   OH272003   5.491   6.694   3.869 -0.1997  0.0448 -0.6150
16863TIP3    H172004   5.562   6.726   3.814  0.6208 -0.3638  0.1945
16863TIP3    H272005   5.411   6.716   3.821  0.3622  2.6859 -0.4181
16864TIP3   OH272006   2.672   4.063  11.101 -0.0820 -0.2054 -0.1848
16864TIP3    H172007   2.650   4.080  11.192 -2.1903 -0.4225 -0.6294
16864TIP3    H272008   2.658   4.146  11.056 -2.1197 -0.8820 -0.8484
16865TIP3   OH272009   4.673   4.257  11.553  0.6098 -0.1550  0.6821
16865TIP3    H172010   4.657   4.301  11.470 -0.8248  0.6350  1.3611
16865TIP3    H272011   4.767   4.267  11.568  0.6146  1.0203 -0.1013
16866TIP3   OH272012   4.368   3.049   0.167 -0.4303 -0.2009  0.3563
16866TIP3    H172013   4.451   3.092   0.146 -0.0485 -0.6427  0.9325
16866TIP3    H272014   4.366   3.045   0.262 -0.2762 -1.7711  0.3115
16867TIP3   OH272015   4.149   2.622  11.500  0.1246 -0.2035 -0.2475
16867TIP3    H172016   4.195   2.610  11.583  0.0016 -1.4750 -0.3486
16867TIP3    H272017   4.211   2.667  11.444  0.2040  0.6820  0.5393
16868TIP3   OH272018   1.417   3.868  12.300  1.1752  0.9469  0.1209
16868TIP3    H172019   1.412   3.804  12.229  2.0495  0.1275  0.8046
16868TIP3    H272020   1.510   3.882  12.315  0.9965  1.9305  0.3906
16869TIP3   OH272021   2.813   6.024  13.495 -0.1701  0.5771  0.2624
16869TIP3    H172022   2.762   6.012  13.575 -0.1138 -0.2509  0.1847
16869TIP3    H272023   2.757   5.987  13.426  0.7096 -0.7605  0.2410
16870TIP3   OH272024   4.950   4.590  12.807 -0.2982 -0.0198 -0.0222
16870TIP3    H172025   5.039   4.625  12.802 -0.5373  0.6802  0.6203
16870TIP3    H272026   4.910   4.616  12.724 -0.5458  1.4338  0.5444
16871TIP3   OH272027   4.443   0.051  15.011 -0.4164 -0.6727  0.4243
16871TIP3    H172028   4.513   0.008  14.962 -1.1849 -2.8194  1.1424
16871TIP3    H272029   4.457   0.026  15.102 -0.6152  1.0190  0.9474
16872TIP3   OH272030   6.295   2.554  11.663 -0.4323 -0.1012  0.3293
16872TIP3    H172031   6.376   2.603  11.677 -1.3427  1.6373 -0.3664
16872TIP3    H272032   6.231   2.598  11.719 -1.3980 -0.1268 -0.7513
16873TIP3   OH272033   5.001   0.885   0.867 -0.9544 -0.3441 -0.0736
16873TIP3    H172034   5.095   0.904   0.862 -0.8031 -0.6727  1.2109
16873TIP3    H272035   4.995   0.792   0.845 -1.2124  0.1143 -2.0679
16874TIP3   OH272036   5.036   0.840  16.119  0.1190  0.3979  0.2123
16874TIP3    H172037   4.982   0.915  16.144  0.5608  1.3795 -1.6785
16874TIP3    H272038   5.121   0.856  16.161 -0.5752 -0.4388  2.0243
16875TIP3   OH272039   2.987   4.133   3.988 -0.1961  0.5144  0.0198
16875TIP3    H172040   2.993   4.229   3.983 -0.7952  0.6094  0.9308
16875TIP3    H272041   2.897   4.113   3.965 -0.8536  0.4045  2.5417
16876TIP3   OH272042   3.263   5.889   1.311 -0.1091 -0.1366  0.0790
16876TIP3    H172043   3.317   5.902   1.389  0.2058 -0.0285 -0.1518
16876TIP3    H272044   3.319   5.918   1.239 -1.2700  2.1378  0.0342
16877TIP3   OH272045   3.975   4.478   2.579 -0.2185  0.3344  0.0947
16877TIP3    H172046   3.986   4.489   2.485  1.1139 -0.2084  0.1825
16877TIP3    H272047   4.049   4.423   2.606 -0.4615  0.6779  1.4940
16878TIP3   OH272048   1.410   0.974  16.883  0.0191  0.3909  0.1935
16878TIP3    H172049   1.442   1.004  16.968  1.6769 -1.5472  0.2936
16878TIP3    H272050   1.489   0.953  16.833 -0.9979 -3.0692 -0.1066
16879TIP3   OH272051   3.403   4.766  11.852 -0.0945 -0.5933  0.3533
16879TIP3    H172052   3.373   4.744  11.763 -1.6763  1.1521  0.4183
16879TIP3    H272053   3.414   4.682  11.895 -2.3694 -1.3911 -0.5378
16880TIP3   OH272054   1.927   1.860  10.966 -0.0101  0.0537 -0.4504
16880TIP3    H172055   1.990   1.813  11.020  0.0552  0.2708 -0.3347
16880TIP3    H272056   1.867   1.793  10.935 -0.0045 -0.0833 -0.1672
16881TIP3   OH272057   2.611   4.245   6.424 -0.0463  0.1722  0.0665
16881TIP3    H172058   2.550   4.267   6.494  0.1024  1.3722 -0.1674
16881TIP3    H272059   2.574   4.287   6.346  0.2987 -0.3429 -0.3772
16882TIP3   OH272060   3.416   1.462   2.055 -0.3220 -0.0587 -0.4290
16882TIP3    H172061   3.488   1.523   2.068  0.8673 -1.2008 -1.4442
16882TIP3    H272062   3.407   1.416   2.138 -0.5617  0.8106  0.0229
16883TIP3   OH272063   1.435   3.734   0.889 -0.2362  0.5258 -0.7052
16883TIP3    H172064   1.401   3.821   0.909 -1.1441  0.4223 -1.7462
16883TIP3    H272065   1.523   3.733   0.927 -1.1683  1.0015  1.5457
16884TIP3   OH272066   3.859   4.254  14.853 -0.6527  0.2967 -0.0126
16884TIP3    H172067   3.880   4.314  14.925 -0.5852  0.1915  0.0551
16884TIP3    H272068   3.840   4.171  14.895  0.1224  0.0327 -0.1619
16885TIP3   OH272069   5.317   0.254   0.108  0.5753  0.3949  0.3262
16885TIP3    H172070   5.285   0.328   0.058  0.9292  0.9523  0.9230
16885TIP3    H272071   5.341   0.189   0.042  1.6580  1.3779 -0.2733
16886TIP3   OH272072   6.185   1.097   5.422 -0.3090 -0.0713  0.2954
16886TIP3    H172073   6.206   1.056   5.338 -0.2065  0.5301  0.0300
16886TIP3    H272074   6.216   1.034   5.488  0.0435 -0.3231 -0.1128
16887TIP3   OH272075   6.094   2.369   2.543  0.0366  0.1925  0.2547
16887TIP3    H172076   6.124   2.313   2.615  0.6388 -1.2140 -1.0673
16887TIP3    H272077   6.163   2.434   2.532  0.3008 -0.0616  0.4226
16888TIP3   OH272078   5.927   5.608  15.285  0.8790  0.2436  0.5327
16888TIP3    H172079   5.953   5.518  15.263 -0.8159 -0.6952  2.2762
16888TIP3    H272080   5.897   5.603  15.375 -2.7335  1.8005 -0.4822
16889TIP3   OH272081   0.639   6.629  14.861  0.0331 -0.1401 -0.2992
16889TIP3    H172082   0.676   6.705  14.905 -2.8617  2.0416 -1.4388
16889TIP3    H272083   0.711   6.592  14.810  1.3163  2.2649 -0.2801
16890TIP3   OH272084   2.935   3.180   1.482 -0.0614  0.2141  0.0838
16890TIP3    H172085   2.975   3.098   1.512 -1.6749 -0.0124  1.6800
16890TIP3    H272086   2.894   3.157   1.399  0.9186 -0.1736 -0.3022
16891TIP3   OH272087   4.126   4.685  13.287 -0.1123  0.4003 -0.1151
16891TIP3    H172088   4.052   4.626  13.275  1.7034 -1.8864 -0.3831
16891TIP3    H272089   4.122   4.711  13.379 -1.3407  0.4683 -0.1802
16892TIP3   OH272090   2.156   0.200  15.051 -0.8294  0.3038  0.2821
16892TIP3    H172091   2.104   0.134  15.005 -0.6939 -0.4315  1.1676
16892TIP3    H272092   2.120   0.201  15.140  0.4597  0.0059  0.8147
16893TIP3   OH272093   3.875   3.903   6.758 -0.0978 -0.1019  0.0562
16893TIP3    H172094   3.783   3.885   6.775 -0.0970  0.0657  0.2504
16893TIP3    H272095   3.874   3.981   6.702 -0.0887 -0.4139 -0.3780
16894TIP3   OH272096   4.907   4.459   5.415  0.0343 -0.2123 -0.0907
16894TIP3    H172097   4.982   4.401   5.424  0.4206  0.5566  1.9485
16894TIP3    H272098   4.851   4.439   5.490 -0.6652  0.8500 -0.3104
16895TIP3   OH272099   3.561   2.612  14.271  0.4813  0.0068  0.0133
16895TIP3    H172100   3.598   2.600  14.184  0.5414  4.1705 -0.6183
16895TIP3    H272101   3.471   2.637  14.256  0.7910  1.8339  1.0898
16896TIP3   OH272102   6.293   3.977   0.333  0.4163  0.0403  0.3568
16896TIP3    H172103   6.296   3.970   0.238  1.5570 -0.0788  0.3902
16896TIP3    H272104   6.249   4.060   0.351 -0.3330 -0.2173 -0.2564
16897TIP3   OH272105   0.307   2.022   3.622 -0.0616  0.1220 -0.4131
16897TIP3    H172106   0.378   1.979   3.573  0.0273 -0.3658  0.1436
16897TIP3    H272107   0.227   1.982   3.588 -0.0920  0.8171 -1.1879
16898TIP3   OH272108   3.456   2.203  13.899 -0.5138 -0.1525 -0.1488
16898TIP3    H172109   3.469   2.201  13.804 -2.4847 -0.2796 -0.4350
16898TIP3    H272110   3.494   2.120  13.930 -1.8618 -1.1431 -1.1024
16899TIP3   OH272111   4.654   1.954   2.229 -0.2543 -0.1445 -0.4139
16899TIP3    H172112   4.732   1.949   2.174 -0.3748 -1.7667 -0.4697
16899TIP3    H272113   4.581   1.957   2.167 -0.2329  1.6662 -0.3650
16900TIP3   OH272114   4.176   1.636  10.996 -0.4665 -0.2034 -0.0265
16900TIP3    H172115   4.272   1.641  10.991 -0.3635  0.0744  1.9300
16900TIP3    H272116   4.149   1.722  11.031 -1.2874 -0.8763  1.0239
16901TIP3   OH272117   5.970   5.349  12.741  0.2716  0.2435 -0.2592
16901TIP3    H172118   5.876   5.369  12.735 -0.0593 -0.8907  0.7851
16901TIP3    H272119   5.982   5.322  12.832  1.5509  0.0668 -0.4772
16902TIP3   OH272120   4.761   6.629  13.885  0.3577  0.4666 -0.1043
16902TIP3    H172121   4.813   6.676  13.820  0.2981 -0.2954 -0.7123
16902TIP3    H272122   4.826   6.590  13.944  0.4448  0.3145 -0.3006
16903TIP3   OH272123   2.037   2.117  14.014  0.0312  0.1841 -0.5100
16903TIP3    H172124   2.077   2.031  14.000  1.2777  0.7042 -0.1638
16903TIP3    H272125   1.956   2.098  14.061  1.0955 -0.6811  1.0298
16904TIP3   OH272126   5.865   5.354   1.831 -0.2157 -0.4651  0.1448
16904TIP3    H172127   5.883   5.261   1.818  0.6244 -0.4155  0.8757
16904TIP3    H272128   5.836   5.360   1.922  0.1120  0.0332  0.2208
16905TIP3   OH272129   1.998   2.653  12.403  0.2951 -0.3463  0.4197
16905TIP3    H172130   1.950   2.726  12.443  0.1780 -0.4102  0.3948
16905TIP3    H272131   1.930   2.593  12.372  0.3603  0.2353 -0.8798
16906TIP3   OH272132   0.448   0.134   4.424 -0.0951  0.2652 -0.0664
16906TIP3    H172133   0.431   0.174   4.338  0.0946  0.6183  0.0591
16906TIP3    H272134   0.484   0.206   4.477 -1.4435  0.4033  0.7132
16907TIP3   OH272135   2.219   3.581  11.534 -0.3824  0.0547  0.9197
16907TIP3    H172136   2.207   3.549  11.623  0.8338 -0.9258  0.7477
16907TIP3    H272137   2.194   3.673  11.538 -2.1677 -0.4496  1.8330
16908TIP3   OH272138   3.877   2.638   0.254  0.1329  0.0531 -0.1117
16908TIP3    H172139   3.844   2.682   0.175  0.2708  0.4386  0.0418
16908TIP3    H272140   3.956   2.687   0.276 -0.0683  0.1295  0.4317
16909TIP3   OH272141   1.862   2.181   5.533  0.3482 -0.4923  0.3566
16909TIP3    H172142   1.849   2.258   5.477  1.3154  0.2294  1.1068
16909TIP3    H272143   1.856   2.215   5.622 -0.8559 -1.5813  0.7009
16910TIP3   OH272144   6.120   0.938  12.802 -0.0534  0.4760 -0.7294
16910TIP3    H172145   6.069   1.017  12.785  0.3276  1.4226  2.3672
16910TIP3    H272146   6.066   0.867  12.767 -1.7098  1.8353 -0.9712
16911TIP3   OH272147   4.629   1.655   1.630  0.4751  0.0523 -0.6895
16911TIP3    H172148   4.612   1.746   1.657  2.7695  0.2325  0.2418
16911TIP3    H272149   4.657   1.611   1.710  0.9184 -1.0979 -1.4662
16912TIP3   OH272150   5.467   0.667   0.193 -0.2330  0.0792 -0.1615
16912TIP3    H172151   5.495   0.744   0.144 -0.0142  0.0764 -0.0410
16912TIP3    H272152   5.527   0.598   0.165  1.7296  0.7549  2.2265
16913TIP3   OH272153   4.383   1.188  14.106  0.4880 -0.1924  0.5426
16913TIP3    H172154   4.315   1.159  14.046  0.2660  0.9754  0.2188
16913TIP3    H272155   4.364   1.142  14.188 -0.9871  0.4932  0.6059
16914TIP3   OH272156   4.188   6.667  14.687  0.1241 -0.1246  0.1501
16914TIP3    H172157   4.101   6.647  14.720  0.6108  0.3046  1.7129
16914TIP3    H272158   4.231   6.582  14.679 -0.2340 -0.2867 -0.0753
16915TIP3   OH272159   0.314   0.523   2.091 -0.0656  0.2557 -0.4230
16915TIP3    H172160   0.252   0.454   2.111 -0.0843  0.8035  1.4899
16915TIP3    H272161   0.266   0.605   2.107  0.6220  0.6904 -0.5386
16916TIP3   OH272162   0.468   3.573  13.830  0.3262 -0.7081 -0.4896
16916TIP3    H172163   0.456   3.479  13.817 -2.7132 -0.3391 -0.6849
16916TIP3    H272164   0.480   3.607  13.741  1.0311 -0.8688 -0.4545
16917TIP3   OH272165   2.126   5.400  14.798  0.3303 -0.2540 -0.6493
16917TIP3    H172166   2.192   5.377  14.732  0.6134 -2.7188  0.4318
16917TIP3    H272167   2.177   5.436  14.871  0.3358 -0.6953 -0.4350
16918TIP3   OH272168   0.547   5.868   3.335  0.4403  0.1571 -0.0931
16918TIP3    H172169   0.537   5.953   3.377 -0.4119  0.3363 -0.6630
16918TIP3    H272170   0.462   5.825   3.346 -0.6772  1.2361 -3.9241
16919TIP3   OH272171   5.866   5.413   4.119  0.1497  0.0962  0.0831
16919TIP3    H172172   5.934   5.379   4.061  0.8848  0.6671  0.6010
16919TIP3    H272173   5.906   5.489   4.161 -1.3101  1.3448 -0.7170
16920TIP3   OH272174   4.534   5.434  13.526 -0.4398  0.0281 -0.4437
16920TIP3    H172175   4.522   5.341  13.546 -2.1501  0.5601  1.2174
16920TIP3    H272176   4.625   5.441  13.497  0.3369 -1.8368  1.3856
16921TIP3   OH272177   4.962   3.977  14.895  0.0820 -0.5792  0.1547
16921TIP3    H172178   5.014   3.896  14.897  1.0616 -0.0015 -1.4813
16921TIP3    H272179   4.999   4.028  14.824 -1.3343  0.8065  0.3825
16922TIP3   OH272180   0.006   2.472   3.766  0.1788  0.4080  0.1129
16922TIP3    H172181   0.076   2.516   3.718  0.1523 -1.4673 -1.7103
16922TIP3    H272182  -0.020   2.535   3.833  2.3145  1.8763 -0.3750
16923TIP3   OH272183   2.290   5.757   1.229 -0.6824  0.0304  0.0603
16923TIP3    H172184   2.258   5.808   1.304 -3.9076  0.3071 -1.4055
16923TIP3    H272185   2.281   5.666   1.258 -0.5176  0.1684  0.5546
16924TIP3   OH272186   0.406   4.946  16.196 -0.6492 -0.3195 -0.2203
16924TIP3    H172187   0.434   5.021  16.144  2.1570 -0.5398  0.8945
16924TIP3    H272188   0.444   4.870  16.152  1.8507 -0.4951  2.1534
16925TIP3   OH272189   4.725   5.983   4.679 -0.0561  0.1276 -0.4289
16925TIP3    H172190   4.712   5.912   4.742 -0.8692  1.4956  0.9951
16925TIP3    H272191   4.775   6.049   4.727 -0.1991  0.9559 -1.4018
16926TIP3   OH272192   1.781   2.364   2.902  0.3402 -0.3272  0.0723
16926TIP3    H172193   1.710   2.320   2.950  0.3655  0.5725  0.9574
16926TIP3    H272194   1.821   2.295   2.850 -1.1029 -0.8787 -0.3304
16927TIP3   OH272195   2.220   0.974  14.017  0.4869  0.3601 -0.6180
16927TIP3    H172196   2.255   1.027  13.946  2.1257  0.1347 -0.0103
16927TIP3    H272197   2.153   1.029  14.058 -1.2153  0.0999 -2.9428
16928TIP3   OH272198   2.067   5.985  16.333  0.4559 -0.2314 -0.1788
16928TIP3    H172199   2.041   5.972  16.424 -1.2224  0.3361 -0.5570
16928TIP3    H272200   1.986   5.973  16.283  0.6040  2.8587 -1.2951
16929TIP3   OH272201   2.974   4.454   2.321  0.1417 -0.4539  0.2563
16929TIP3    H172202   2.975   4.463   2.226  1.6268  0.4132  0.3463
16929TIP3    H272203   2.943   4.364   2.336 -1.7564 -0.0319 -0.9790
16930TIP3   OH272204   3.307   6.570   1.640  0.7403 -0.4427  0.5604
16930TIP3    H172205   3.370   6.544   1.572 -0.4167 -0.9512 -0.3560
16930TIP3    H272206   3.257   6.490   1.657 -1.6392  0.6802 -0.9294
16931TIP3   OH272207   3.987   3.057   4.129 -0.1583 -0.5100  0.2891
16931TIP3    H172208   4.078   3.079   4.147 -0.0693 -0.8820  0.2973
16931TIP3    H272209   3.992   2.979   4.074 -0.4686 -0.3997  0.1019
16932TIP3   OH272210   2.892   0.266  13.036  0.1819 -0.4905  0.2374
16932TIP3    H172211   2.957   0.240  13.102  1.3777  2.5946  0.3836
16932TIP3    H272212   2.944   0.282  12.957 -0.5948  0.5048 -0.0808
16933TIP3   OH272213   6.484   3.645   1.773  0.0180 -0.3560  0.9939
16933TIP3    H172214   6.492   3.556   1.807 -0.0979 -0.5580  0.4933
16933TIP3    H272215   6.454   3.696   1.848 -0.6548 -0.8771  1.0870
16934TIP3   OH272216   4.202   3.798  14.866 -0.5684 -0.0633  0.1279
16934TIP3    H172217   4.119   3.751  14.879 -0.1997 -1.2828 -1.6796
16934TIP3    H272218   4.194   3.837  14.779 -0.1025  1.6891  0.8519
16935TIP3   OH272219   5.507   1.138   5.823  0.6175  0.5677  0.2579
16935TIP3    H172220   5.463   1.055   5.844 -0.5238  1.5141  1.7257
16935TIP3    H272221   5.450   1.205   5.862  2.2521  1.9514  0.2981
16936TIP3   OH272222   3.349   6.479   0.928 -0.7956  0.1521  0.0479
16936TIP3    H172223   3.347   6.439   0.841  0.1836  0.2160 -0.0172
16936TIP3    H272224   3.412   6.551   0.919 -0.7675  0.2165  0.7825
16937TIP3   OH272225   1.493   6.559   4.798 -0.7086  0.0982  0.1967
16937TIP3    H172226   1.421   6.499   4.782 -1.1972  1.0533 -1.2957
16937TIP3    H272227   1.474   6.635   4.743  0.4572  1.1636  1.2121
16938TIP3   OH272228   5.299   5.605  14.911  0.4620 -0.3355  0.3108
16938TIP3    H172229   5.206   5.626  14.922  0.4583 -0.2478  0.1012
16938TIP3    H272230   5.330   5.589  15.000  0.5688  0.9805  0.5203
16939TIP3   OH272231   6.011   3.399   3.803  0.3234  0.2211  0.0717
16939TIP3    H172232   6.085   3.357   3.759 -0.2419 -2.0888  1.2126
16939TIP3    H272233   6.050   3.451   3.872  0.9794  0.6144 -0.5835
16940TIP3   OH272234   0.221   1.009  14.442  0.0278 -0.0792 -0.3621
16940TIP3    H172235   0.171   0.973  14.368  0.2090 -1.0104 -0.0328
16940TIP3    H272236   0.266   1.085  14.405 -0.9907  0.2880 -0.8634
16941TIP3   OH272237   3.995   2.763  13.384 -0.3558  0.3235  0.0395
16941TIP3    H172238   4.007   2.725  13.471 -1.3956  1.5605  0.7361
16941TIP3    H272239   3.940   2.699  13.338 -1.3608  0.5503  0.9124
16942TIP3   OH272240   1.140   3.341  15.155 -0.1743  0.0185 -0.7507
16942TIP3    H172241   1.177   3.362  15.069  0.5532 -1.8851 -0.9364
16942TIP3    H272242   1.212   3.298  15.202 -0.2988  1.7661  1.1343
16943TIP3   OH272243   1.732   6.431  16.158  0.4544 -0.5068 -0.1032
16943TIP3    H172244   1.773   6.517  16.145  0.2690 -0.5787 -1.2047
16943TIP3    H272245   1.783   6.390  16.228  0.5286  0.5113  0.4487
16944TIP3   OH272246   0.872   5.434  15.938 -0.4338 -0.2248  0.0111
16944TIP3    H172247   0.913   5.347  15.941 -0.3206 -0.2938 -2.5025
16944TIP3    H272248   0.787   5.419  15.896 -0.3493  0.8826 -0.5839
16945TIP3   OH272249   4.788   5.092  13.910 -0.2681  0.1493  0.1568
16945TIP3    H172250   4.707   5.110  13.957 -0.1256 -2.2357  1.3881
16945TIP3    H272251   4.845   5.166  13.931 -1.7556  1.3471  0.0853
16946TIP3   OH272252   2.613   4.994  15.437  0.3051  0.7515 -0.2706
16946TIP3    H172253   2.574   4.913  15.405 -1.3296  1.0932  0.7795
16946TIP3    H272254   2.706   4.984  15.422 -0.0442 -0.7127 -1.5025
16947TIP3   OH272255   6.382   4.086  13.103  0.2077 -0.1450  0.5075
16947TIP3    H172256   6.428   4.005  13.126 -0.5820 -0.6582  0.2974
16947TIP3    H272257   6.438   4.156  13.137 -0.3147 -0.8410  2.8638
16948TIP3   OH272258   0.998   3.825   0.305 -0.2770  0.0404  0.7077
16948TIP3    H172259   0.993   3.826   0.401 -1.8783 -1.2156  0.6607
16948TIP3    H272260   0.984   3.916   0.280  0.3191  0.4084  1.6655
16949TIP3   OH272261   6.525   3.601  13.411  0.5393 -0.3795 -0.9803
16949TIP3    H172262   6.497   3.561  13.493 -0.2312  1.0741 -0.5334
16949TIP3    H272263   6.444   3.631  13.370  1.1732  1.5503 -0.8719
16950TIP3   OH272264   2.507   6.281  11.136 -0.4089  0.0074  0.4338
16950TIP3    H172265   2.581   6.303  11.192 -0.7488 -1.2333  1.3843
16950TIP3    H272266   2.532   6.314  11.049  1.2619 -0.4011  0.7427
16951TIP3   OH272267   2.735   2.092   2.311 -0.0054  0.0131  0.5548
16951TIP3    H172268   2.678   2.020   2.284 -1.0294  0.7328  0.7760
16951TIP3    H272269   2.760   2.135   2.229  0.2743 -0.3351  0.4550
16952TIP3   OH272270   1.559   2.498   3.968 -0.2042  0.5623 -0.5044
16952TIP3    H172271   1.481   2.457   3.929  0.5519 -1.5481  0.1505
16952TIP3    H272272   1.584   2.439   4.039  2.7382  0.5317 -1.5029
16953TIP3   OH272273   2.725   4.696  16.798 -0.4176  0.4242 -0.8702
16953TIP3    H172274   2.793   4.628  16.799 -0.5708  0.2399 -2.1166
16953TIP3    H272275   2.708   4.714  16.890  2.0256  1.1891 -0.5377
16954TIP3   OH272276   0.840   6.398  11.092 -0.1490 -0.4596  0.0409
16954TIP3    H172277   0.848   6.457  11.017 -0.6282  0.6498  0.8496
16954TIP3    H272278   0.806   6.453  11.163 -0.1308 -1.5928  0.9520
16955TIP3   OH272279   2.554   5.341   3.054 -0.1834 -0.1829  0.0162
16955TIP3    H172280   2.581   5.429   3.079 -1.4406 -0.1216  1.1764
16955TIP3    H272281   2.463   5.351   3.025 -0.0600 -0.9528 -0.6518
16956TIP3   OH272282   1.699   0.576  14.002 -0.0803  0.4080  0.0496
16956TIP3    H172283   1.620   0.539  14.040  0.1521 -1.4154 -1.1759
16956TIP3    H272284   1.685   0.671  14.005 -1.4165  0.1863  1.6902
16957TIP3   OH272285   1.378   1.667   3.740  0.1401  0.5929  0.0848
16957TIP3    H172286   1.294   1.709   3.759  0.1402 -0.0116  1.4765
16957TIP3    H272287   1.363   1.574   3.754  1.5857  0.6681  2.5117
16958TIP3   OH272288   1.999   3.424   0.882  0.1139  0.2508 -0.5526
16958TIP3    H172289   1.993   3.383   0.796  1.4537  1.6763 -1.3534
16958TIP3    H272290   2.091   3.417   0.906 -0.4962 -1.4244  1.4340
16959TIP3   OH272291   6.512   1.598   2.502 -0.0524  0.8082 -0.3156
16959TIP3    H172292   6.591   1.552   2.474 -1.4956 -0.2957 -2.6696
16959TIP3    H272293   6.445   1.530   2.510 -0.9971  1.8487  0.8072
16960TIP3   OH272294   4.745   5.752   1.750  0.5855 -0.0139  0.4998
16960TIP3    H172295   4.718   5.726   1.838  0.6028  1.5842  1.0047
16960TIP3    H272296   4.837   5.726   1.745  0.1799 -1.4524  0.4013
16961TIP3   OH272297   1.208   2.567   4.066 -0.3358  0.1354 -0.4736
16961TIP3    H172298   1.143   2.614   4.013  0.8928  0.6766 -1.5274
16961TIP3    H272299   1.268   2.635   4.095 -0.3863 -0.3287  0.7190
16962TIP3   OH272300   3.710   1.561  15.826 -0.0504 -0.5389 -0.1259
16962TIP3    H172301   3.658   1.503  15.770 -2.1449 -0.6216  1.8076
16962TIP3    H272302   3.748   1.624  15.766 -1.1052 -1.4498 -1.7994
16963TIP3   OH272303   2.875   1.053  14.857  0.2199 -0.3816 -0.4071
16963TIP3    H172304   2.936   1.123  14.879 -0.0991 -0.3399  0.3726
16963TIP3    H272305   2.886   0.988  14.926 -0.9307 -0.1660  0.0032
16964TIP3   OH272306   5.798   0.894  15.407  0.4015 -0.3775 -0.3299
16964TIP3    H172307   5.885   0.875  15.373  0.7725  0.0031  0.3716
16964TIP3    H272308   5.743   0.822  15.377  0.9567 -0.6064 -0.7950
16965TIP3   OH272309   3.099   0.766   4.393 -0.2978  0.1359  0.6909
16965TIP3    H172310   3.187   0.785   4.360 -0.4697  0.0450  0.1687
16965TIP3    H272311   3.072   0.688   4.344 -0.9610  0.5994  0.3132
16966TIP3   OH272312   2.271   3.792  14.097  0.1154  0.4524  0.3068
16966TIP3    H172313   2.366   3.782  14.092 -0.1847 -2.6568 -0.2101
16966TIP3    H272314   2.249   3.770  14.187 -0.1928  0.2235  0.1787
16967TIP3   OH272315   2.185   0.396  11.865  0.1765  0.1979 -0.1828
16967TIP3    H172316   2.180   0.320  11.923 -3.4539 -1.6971 -2.7783
16967TIP3    H272317   2.257   0.375  11.805 -2.8865 -3.0080 -3.0291
16968TIP3   OH272318   1.568   6.220   1.175  0.0658  0.1726  0.3269
16968TIP3    H172319   1.569   6.228   1.080 -1.0754  0.8212  0.3721
16968TIP3    H272320   1.490   6.168   1.194  0.6559 -0.5292  0.8731
16969TIP3   OH272321   1.947   2.139   4.350 -0.1211  0.1125 -0.1420
16969TIP3    H172322   2.020   2.178   4.302 -2.0080  1.3403 -2.0877
16969TIP3    H272323   1.969   2.046   4.355  2.7552  0.8079  1.4957
16970TIP3   OH272324   1.066   4.596  16.819 -0.3148 -0.2476  0.0817
16970TIP3    H172325   1.135   4.648  16.862  0.0895 -1.0424  0.4094
16970TIP3    H272326   1.015   4.660  16.770  0.9806  0.2931 -0.5930
16971TIP3   OH272327   1.533   5.577  15.222 -0.0951 -0.4632  0.3959
16971TIP3    H172328   1.628   5.567  15.227 -0.0924  0.2242  2.0458
16971TIP3    H272329   1.500   5.488  15.235  0.3291 -0.8854 -1.2620
16972TIP3   OH272330   4.444   0.871   2.945  0.0549 -0.2636  0.2615
16972TIP3    H172331   4.420   0.794   2.996 -0.2100  0.5735  1.4203
16972TIP3    H272332   4.393   0.942   2.983  1.6116  0.8270  0.3518
16973TIP3   OH272333   1.519   2.939   2.347 -0.3868  0.5356  0.0288
16973TIP3    H172334   1.424   2.929   2.354 -0.6959  2.1285 -1.5798
16973TIP3    H272335   1.534   3.033   2.361  0.9938  0.2370  0.6121
16974TIP3   OH272336   1.497   6.122  16.880  0.3048 -0.9666 -0.6651
16974TIP3    H172337   1.529   6.212  16.877 -1.6351 -0.2672 -1.0539
16974TIP3    H272338   1.552   6.079  16.945 -0.8394  1.3657  1.9359
16975TIP3   OH272339   3.870   0.636  16.081 -0.1430 -0.5363  0.2401
16975TIP3    H172340   3.964   0.634  16.064  0.4378  2.5490  2.6696
16975TIP3    H272341   3.850   0.551  16.118  1.3071 -1.8837 -1.9730
16976TIP3   OH272342   0.776   1.770   5.828  0.6641  0.2988  0.3427
16976TIP3    H172343   0.865   1.803   5.818  0.3548  1.9119  2.6599
16976TIP3    H272344   0.720   1.844   5.808 -0.0852  0.3055  2.3318
16977TIP3   OH272345   2.652   5.536   2.465 -0.4012 -0.6742  0.4025
16977TIP3    H172346   2.600   5.457   2.450  0.2630 -0.8998 -0.7817
16977TIP3    H272347   2.743   5.506   2.462 -0.0675  0.5031 -2.3621
16978TIP3   OH272348   4.943   2.017   5.543 -0.3173  0.2349  0.7296
16978TIP3    H172349   5.001   1.968   5.602  0.2953 -0.4071 -0.4019
16978TIP3    H272350   4.887   2.068   5.602 -0.1892 -0.9495  1.8912
16979TIP3   OH272351   2.833   1.557   1.402  0.1234  0.3805 -0.0889
16979TIP3    H172352   2.800   1.602   1.480 -0.7032 -0.8460  0.2745
16979TIP3    H272353   2.853   1.628   1.341  2.1199  1.4289  1.7329
16980TIP3   OH272354   1.458   2.895  12.340  0.2208  0.5340 -0.2836
16980TIP3    H172355   1.375   2.848  12.335 -0.4520  1.4776  1.6222
16980TIP3    H272356   1.452   2.963  12.273 -0.0172 -0.1947 -1.0099
16981TIP3   OH272357   4.481   5.655   3.946 -0.2656 -0.2594  0.1842
16981TIP3    H172358   4.476   5.734   3.999 -2.9786 -0.1181 -0.1765
16981TIP3    H272359   4.537   5.678   3.872 -0.1454  0.9620  0.6527
16982TIP3   OH272360   6.439   6.714   4.912 -0.0576 -0.2565  0.5427
16982TIP3    H172361   6.431   6.630   4.867 -2.0302 -1.1037  2.3619
16982TIP3    H272362   6.473   6.693   4.999  0.6625  0.9827  0.5815
16983TIP3   OH272363   2.399   0.195   2.958 -0.0401  0.2366  0.0943
16983TIP3    H172364   2.336   0.267   2.962 -2.9984 -2.2762  0.6166
16983TIP3    H272365   2.390   0.161   2.869 -1.3912 -1.7856  0.9702
16984TIP3   OH272366   3.777   2.483  13.595  0.3823 -0.6522 -0.2442
16984TIP3    H172367   3.828   2.439  13.527  0.6617 -1.0559  0.2252
16984TIP3    H272368   3.695   2.435  13.599  1.0157 -1.6753  0.8579
16985TIP3   OH272369   1.354   3.340  13.522  0.9045  0.2787 -0.0079
16985TIP3    H172370   1.422   3.326  13.588  1.4130  0.7722 -0.4239
16985TIP3    H272371   1.398   3.388  13.452  0.2176  0.2796 -0.4444
16986TIP3   OH272372   4.670   3.295   2.617  0.1475  0.0486  0.4637
16986TIP3    H172373   4.674   3.347   2.697  0.7587 -0.7480  0.9570
16986TIP3    H272374   4.578   3.299   2.590 -0.5617 -1.6504  2.5383
16987TIP3   OH272375   5.730   2.899   4.690 -0.2305  0.1866 -0.2071
16987TIP3    H172376   5.742   2.906   4.785 -0.6366 -1.2638 -0.0293
16987TIP3    H272377   5.765   2.981   4.655  1.7457 -0.0871  1.0302
16988TIP3   OH272378   0.588   6.056   5.623  0.2500  0.2181 -0.3362
16988TIP3    H172379   0.597   6.129   5.562  2.8957 -0.8324 -1.2547
16988TIP3    H272380   0.613   6.093   5.708 -1.2389  1.0942 -0.2542
16989TIP3   OH272381   4.614   0.470   0.729  0.7171  0.3995  0.6121
16989TIP3    H172382   4.645   0.435   0.813 -1.1515 -1.2666  0.6437
16989TIP3    H272383   4.604   0.564   0.744  0.5538  0.1401  2.2104
16990TIP3   OH272384   5.963   1.103   4.558  0.5260  0.3041  0.5723
16990TIP3    H172385   5.881   1.120   4.605  0.7063  1.5768  0.4606
16990TIP3    H272386   5.943   1.029   4.501 -0.2715  0.0034  1.2305
16991TIP3   OH272387   6.058   1.594   4.003 -0.3944 -0.2212  0.2482
16991TIP3    H172388   6.058   1.668   3.943  0.1283 -1.1971 -0.9671
16991TIP3    H272389   6.116   1.529   3.963 -1.6927 -1.7387  0.7253
16992TIP3   OH272390   3.315   2.289  15.014  0.2494 -0.2263  0.2356
16992TIP3    H172391   3.286   2.236  14.940  0.5429  1.2364 -0.9619
16992TIP3    H272392   3.392   2.336  14.981 -0.0220  0.9480  1.2462
16993TIP3   OH272393   2.759   3.099   3.260 -0.2582  0.5327  0.8613
16993TIP3    H172394   2.756   3.070   3.351 -1.0935 -1.9098  0.0877
16993TIP3    H272395   2.760   3.019   3.209  0.1119  1.8736 -1.3153
16994TIP3   OH272396   5.633   2.002  11.855  0.6549 -0.1952 -0.3142
16994TIP3    H172397   5.691   1.938  11.813 -1.1893  0.8184 -4.6846
16994TIP3    H272398   5.577   1.950  11.912  0.5711 -2.2560 -2.2195
16995TIP3   OH272399   4.336   3.458   2.910  0.0715  0.1087  0.1759
16995TIP3    H172400   4.322   3.367   2.887  0.7239  0.5976 -2.2525
16995TIP3    H272401   4.360   3.456   3.003  0.4265 -2.2045  0.0476
16996TIP3   OH272402   3.516   2.790  16.308  0.2262  0.2392 -0.1091
16996TIP3    H172403   3.611   2.790  16.320  0.2804 -0.4365 -0.5034
16996TIP3    H272404   3.481   2.819  16.392  0.6869 -2.0555  0.9149
16997TIP3   OH272405   0.261   6.051  12.911  0.2004  0.7684 -0.6055
16997TIP3    H172406   0.287   5.971  12.864  1.8569  0.2397  1.1052
16997TIP3    H272407   0.313   6.048  12.992 -2.0950  1.9545  0.9602
16998TIP3   OH272408   5.553   3.106   6.094  0.4590 -0.4234  0.1440
16998TIP3    H172409   5.595   3.124   6.010  1.4952 -0.1370  0.7103
16998TIP3    H272410   5.459   3.109   6.075  0.6709  0.5971 -0.8023
16999TIP3   OH272411   2.756   5.496  13.157  0.2421  0.1311  0.2044
16999TIP3    H172412   2.721   5.507  13.069 -0.4599 -0.7269  0.3655
16999TIP3    H272413   2.831   5.555  13.161 -1.1076  1.9424 -0.2037
17000TIP3   OH272414   2.921   2.857   2.595 -0.4773 -0.4077 -0.0885
17000TIP3    H172415   2.880   2.772   2.611 -0.1819 -0.5706 -0.1893
17000TIP3    H272416   3.015   2.841   2.608 -0.2673 -0.4719 -1.6902
17001TIP3   OH272417   1.067   6.538   0.942 -0.4560 -0.3817  0.5283
17001TIP3    H172418   1.116   6.609   0.901 -0.2588 -0.7182  0.1869
17001TIP3    H272419   0.988   6.581   0.975 -0.4423 -0.0391  0.1291
17002TIP3   OH272420   3.222   1.950  13.824 -0.3101  0.2887  0.3670
17002TIP3    H172421   3.129   1.929  13.809 -0.1165 -1.3771  1.3649
17002TIP3    H272422   3.228   1.967  13.918  1.0252 -3.2549  0.9910
17003TIP3   OH272423   4.251   5.439  14.464 -0.6653  0.5034  0.1060
17003TIP3    H172424   4.247   5.527  14.501 -2.9760  0.3705  0.2694
17003TIP3    H272425   4.162   5.404  14.475  0.6034 -2.4711  1.4998
17004TIP3   OH272426   5.164   1.233  12.265 -0.4672 -0.4278 -0.0288
17004TIP3    H172427   5.142   1.198  12.179  0.9466  0.1685 -0.6515
17004TIP3    H272428   5.089   1.287  12.289 -1.8749 -2.4361  0.1449
17005TIP3   OH272429   1.099   6.108   5.097 -0.1448  0.0424  0.4182
17005TIP3    H172430   1.047   6.029   5.114 -1.6483  1.3608  2.0695
17005TIP3    H272431   1.035   6.174   5.073  0.9394  1.2223  0.7205
17006TIP3   OH272432   6.481   4.140   0.602  0.0310 -0.0933 -0.0949
17006TIP3    H172433   6.538   4.084   0.655  0.8779  2.3898  1.7324
17006TIP3    H272434   6.525   4.147   0.517  1.6490  0.4566  0.7600
17007TIP3   OH272435   4.297   3.821   4.342 -0.1333 -0.2812 -0.0928
17007TIP3    H172436   4.373   3.830   4.284  0.0492  0.6863  0.2979
17007TIP3    H272437   4.303   3.731   4.375  0.0199 -0.6948 -1.2081
17008TIP3   OH272438   6.165   1.670   6.389 -0.0823 -0.1715 -0.2182
17008TIP3    H172439   6.217   1.744   6.419  1.3345 -1.1337 -0.2483
17008TIP3    H272440   6.147   1.690   6.297  0.5859 -0.0235 -0.3197
17009TIP3   OH272441   5.585   0.056   5.160 -0.2251  0.0061  0.5933
17009TIP3    H172442   5.553  -0.012   5.100 -1.0420  0.7133  0.2157
17009TIP3    H272443   5.519   0.061   5.229 -0.0058  0.1920  0.7920
17010TIP3   OH272444   6.782   5.267   4.210  0.0690  0.5389 -0.0673
17010TIP3    H172445   6.837   5.276   4.132  3.0329 -0.5810  1.7886
17010TIP3    H272446   6.800   5.345   4.261 -0.3538  0.3445  0.3834
17011TIP3   OH272447   5.024   3.783   5.292  0.0901  0.5611  0.2854
17011TIP3    H172448   5.010   3.758   5.383  0.9127 -0.4719  0.1454
17011TIP3    H272449   5.071   3.866   5.297 -0.2507  0.7267  0.7957
17012TIP3   OH272450   6.353   4.934  16.549 -0.4865  0.3266 -0.3519
17012TIP3    H172451   6.289   4.986  16.501 -0.9111  0.4808  0.3846
17012TIP3    H272452   6.434   4.943  16.498 -0.8776  0.6655 -0.9178
17013TIP3   OH272453   1.080   4.236  12.444  0.3677  1.0047  0.1894
17013TIP3    H172454   1.061   4.189  12.363  1.0949 -0.0014  0.5868
17013TIP3    H272455   1.023   4.313  12.442 -0.5996  0.2699 -0.6242
17014TIP3   OH272456   6.522   3.577  16.262  0.9860 -0.2157 -0.1232
17014TIP3    H172457   6.569   3.651  16.223  0.3335  0.0717 -0.3736
17014TIP3    H272458   6.539   3.504  16.202  0.8503 -0.0345 -0.3835
17015TIP3   OH272459   5.781   0.090   2.840 -0.4114 -0.1015 -0.0105
17015TIP3    H172460   5.738   0.117   2.759  0.4191 -0.4357 -0.5669
17015TIP3    H272461   5.874   0.084   2.817 -0.4492 -2.5061  0.3232
17016TIP3   OH272462   2.398   4.067   6.035 -0.2787  0.1528  0.0021
17016TIP3    H172463   2.326   4.018   5.995  0.8050  0.0485 -1.8367
17016TIP3    H272464   2.474   4.011   6.025  0.3645  0.9131  0.6163
17017TIP3   OH272465   1.848   0.649  13.343  0.7776  0.3161  0.2374
17017TIP3    H172466   1.777   0.675  13.401  2.0108  0.7706  1.5738
17017TIP3    H272467   1.856   0.554  13.356  0.5699  0.2982  0.2474
17018TIP3   OH272468   2.919   3.980  16.726 -0.8342  0.5663 -0.1591
17018TIP3    H172469   2.841   4.027  16.695 -0.9183 -0.0172 -0.8381
17018TIP3    H272470   2.960   4.041  16.788 -1.4890  1.1291 -0.2682
17019TIP3   OH272471   5.955   2.611  15.067  0.1945 -0.3461 -0.3576
17019TIP3    H172472   5.965   2.651  14.981  1.4343 -0.5456 -0.3251
17019TIP3    H272473   6.020   2.655  15.122 -1.3790  0.5961  0.7853
17020TIP3   OH272474   2.362   3.830   3.298 -0.0028 -0.3376  0.3399
17020TIP3    H172475   2.313   3.812   3.378  0.1040  1.3912  0.8232
17020TIP3    H272476   2.345   3.755   3.241 -3.6408  0.5072  0.2567
17021TIP3   OH272477   2.040   1.480   2.619  0.1999 -0.2378 -0.3531
17021TIP3    H172478   2.047   1.527   2.703  0.5058 -0.1432 -0.4297
17021TIP3    H272479   2.021   1.390   2.644 -1.1973  0.0812 -0.2271
17022TIP3   OH272480   0.801   1.324  13.840  0.5212  0.0839  0.2445
17022TIP3    H172481   0.878   1.367  13.803  1.5632  0.5349  2.8115
17022TIP3    H272482   0.750   1.395  13.879 -0.6297 -0.3592 -0.4131
17023TIP3   OH272483   5.769   0.800  13.732  0.4205  0.1045  0.3824
17023TIP3    H172484   5.690   0.806  13.786 -0.7807 -0.1707 -1.3333
17023TIP3    H272485   5.805   0.888  13.733 -0.7742  0.6108 -0.1041
17024TIP3   OH272486   3.331   2.840  16.510 -0.0405 -0.0972 -0.2099
17024TIP3    H172487   3.330   2.890  16.591 -1.1126  0.3190 -0.4705
17024TIP3    H272488   3.342   2.749  16.539  1.5708  0.2469  0.2742
17025TIP3   OH272489   1.083   5.882  13.469 -0.2822  0.3059 -0.0695
17025TIP3    H172490   0.992   5.866  13.445 -0.6853  1.2062  0.8303
17025TIP3    H272491   1.108   5.960  13.419 -0.6538  1.2822  1.2415
17026TIP3   OH272492   0.495   0.263  11.710 -0.0296  0.2058  0.4808
17026TIP3    H172493   0.550   0.241  11.635  0.8874 -1.8288  1.7103
17026TIP3    H272494   0.408   0.235  11.685 -0.4925  3.0417 -1.3038
17027TIP3   OH272495   6.298   5.143   0.019  0.0989 -0.6260 -0.8565
17027TIP3    H172496   6.286   5.065   0.072  0.5127  0.2602  0.5628
17027TIP3    H272497   6.382   5.179   0.046  0.2694 -0.0973 -2.0335
17028TIP3   OH272498   5.702   5.051  12.436  0.3296  0.1666  0.2588
17028TIP3    H172499   5.783   5.037  12.485  0.2373  1.5364  0.8317
17028TIP3    H272500   5.633   5.031  12.498  0.2195 -1.5311 -0.3950
17029TIP3   OH272501   2.736   5.658   1.311  0.0926  0.1277  0.2209
17029TIP3    H172502   2.722   5.612   1.228 -0.0045 -1.0863  0.9042
17029TIP3    H272503   2.790   5.733   1.288  0.8459 -0.7168 -0.7904
17030TIP3   OH272504   6.463   6.427  16.209 -0.2115 -0.7275  0.1393
17030TIP3    H172505   6.392   6.364  16.208 -1.2200  0.3885  0.2197
17030TIP3    H272506   6.421   6.511  16.231  0.9952  0.0951 -0.5994
17031TIP3   OH272507   5.804   1.904   5.486  0.2314  0.2633  0.8331
17031TIP3    H172508   5.845   1.953   5.414 -1.1570  1.9703  1.1775
17031TIP3    H272509   5.714   1.888   5.456 -0.0092 -0.0315  1.6912
17032TIP3   OH272510   2.616   5.523   4.279 -0.1339  0.0593 -0.2767
17032TIP3    H172511   2.561   5.485   4.211 -0.3867  1.5021 -0.8949
17032TIP3    H272512   2.567   5.509   4.360 -0.2556 -0.8585 -0.5041
17033TIP3   OH272513   3.929   1.080  16.720  0.5013 -0.2109 -0.3886
17033TIP3    H172514   4.000   1.085  16.656  0.0211  1.3901 -0.8295
17033TIP3    H272515   3.858   1.035  16.674  0.2443  0.7161 -0.9114
17034TIP3   OH272516   5.404   5.928  12.640  0.2388  0.2743 -0.0677
17034TIP3    H172517   5.391   5.834  12.624  1.1806  0.1462 -0.0786
17034TIP3    H272518   5.494   5.945  12.612 -0.0286  1.2461 -0.3456
17035TIP3   OH272519   1.198   0.719   2.481 -0.1243  0.7040 -0.0998
17035TIP3    H172520   1.231   0.803   2.513 -0.6363  0.3551  1.3944
17035TIP3    H272521   1.277   0.665   2.468  0.0529  0.6120  1.3005
17036TIP3   OH272522   1.290   0.494  14.754 -0.0267 -0.4057  0.5426
17036TIP3    H172523   1.336   0.474  14.836  1.1210  1.8941  0.4815
17036TIP3    H272524   1.296   0.413  14.703  0.0307 -1.5687  2.3672
17037TIP3   OH272525   5.055   3.130  13.781 -0.0042 -0.1778  0.3233
17037TIP3    H172526   5.027   3.049  13.739  1.4850 -0.9616  0.8166
17037TIP3    H272527   4.994   3.196  13.749  0.6407 -0.8838 -2.5407
17038TIP3   OH272528   6.089   2.965  16.698 -0.8242 -0.0127 -0.3700
17038TIP3    H172529   6.015   2.917  16.660 -1.0349 -0.4345  0.5603
17038TIP3    H272530   6.137   2.999  16.622 -0.5513 -1.8754 -1.0488
17039TIP3   OH272531   0.911   4.083   3.629  0.6620 -0.2809 -0.9643
17039TIP3    H172532   0.983   4.132   3.589  0.5691  0.6814  0.0048
17039TIP3    H272533   0.950   4.001   3.657  1.0819 -0.3128 -1.6410
17040TIP3   OH272534   3.781   4.071  13.656  0.3979  0.0488  0.4238
17040TIP3    H172535   3.817   4.160  13.657  0.5461 -0.0153  0.7876
17040TIP3    H272536   3.853   4.016  13.689 -0.0980 -0.0569  1.3381
17041TIP3   OH272537   0.643   6.231   4.079  0.1389 -0.4218  0.3943
17041TIP3    H172538   0.605   6.144   4.093 -2.4781 -0.1188 -3.9802
17041TIP3    H272539   0.596   6.287   4.140 -0.6186 -1.4959  0.8269
17042TIP3   OH272540   6.422   3.812  10.995  0.5452 -0.0857  0.5083
17042TIP3    H172541   6.339   3.832  10.953  2.0363  0.5050 -2.2518
17042TIP3    H272542   6.425   3.717  10.999  0.0589 -0.1205  0.0086
17043TIP3   OH272543   3.865   5.807  14.455 -0.5738 -0.3514  0.0157
17043TIP3    H172544   3.791   5.751  14.479 -0.6820 -0.1797  0.0780
17043TIP3    H272545   3.928   5.795  14.527 -2.1885  2.5823  2.0330
17044TIP3   OH272546   5.825   5.223   3.722  0.4783  0.2330  0.5038
17044TIP3    H172547   5.898   5.211   3.784  1.0767  2.0722  0.1988
17044TIP3    H272548   5.766   5.284   3.767 -0.3028 -0.3530  0.2718
17045TIP3   OH272549   0.486   0.208  12.117 -0.2032  0.4412  0.0449
17045TIP3    H172550   0.522   0.165  12.194  1.0721  1.6753  0.1655
17045TIP3    H272551   0.418   0.149  12.085  1.5744 -1.7038  0.1312
17046TIP3   OH272552   4.833   4.757  16.275  0.1947  0.0428 -0.0266
17046TIP3    H172553   4.877   4.683  16.316  1.0526 -0.1158 -1.2339
17046TIP3    H272554   4.805   4.725  16.190 -0.1755  0.8567 -0.2170
17047TIP3   OH272555   0.990   3.201  16.118  0.8678 -0.2289  0.0912
17047TIP3    H172556   1.058   3.135  16.130  1.0717 -0.1173 -0.4381
17047TIP3    H272557   0.992   3.252  16.199 -1.0484 -2.4701  1.5910
17048TIP3   OH272558   0.479   5.135  17.223  0.0126  0.4814  0.2558
17048TIP3    H172559   0.441   5.204  17.168 -1.1085 -1.5638 -1.5915
17048TIP3    H272560   0.570   5.128  17.194 -0.0672  0.6740 -0.0394
17049TIP3   OH272561   1.600   1.691  13.104 -0.4660 -0.4963 -0.4076
17049TIP3    H172562   1.657   1.677  13.180 -1.0992  0.0028  0.1700
17049TIP3    H272563   1.511   1.686  13.140 -0.7739 -0.5706 -1.1756
17050TIP3   OH272564   3.633   6.400  13.022  0.5055 -0.0943  0.4587
17050TIP3    H172565   3.615   6.493  13.031 -2.2155 -0.5015 -0.1675
17050TIP3    H272566   3.604   6.378  12.933 -0.2929 -1.8104  1.1061
17051TIP3   OH272567   4.289   5.444   5.609  0.1899  0.4042  0.3507
17051TIP3    H172568   4.202   5.477   5.631 -0.6430 -1.3554 -0.2257
17051TIP3    H272569   4.321   5.404   5.690 -0.3343 -0.6270  0.0564
17052TIP3   OH272570   4.953   3.378  13.022  0.8687  0.0560  0.1350
17052TIP3    H172571   4.970   3.464  13.060  1.0372  0.5854 -1.1195
17052TIP3    H272572   5.034   3.329  13.037  0.8105  0.1474  0.7555
17053TIP3   OH272573   1.738   2.002   6.337  0.7853 -0.1815  0.0972
17053TIP3    H172574   1.762   2.094   6.354  0.0584  0.4684 -2.1715
17053TIP3    H272575   1.772   1.985   6.249  0.0755 -1.8048  0.1286
17054TIP3   OH272576   6.274   3.694   4.309  0.0828  0.0164 -0.1433
17054TIP3    H172577   6.299   3.698   4.217  0.7360  0.6067  0.0585
17054TIP3    H272578   6.190   3.739   4.313 -0.9524 -1.8024 -0.7890
17055TIP3   OH272579   4.697   6.254  15.640  0.5390 -0.6506 -0.0283
17055TIP3    H172580   4.605   6.232  15.626  0.1748  0.3831  0.7865
17055TIP3    H272581   4.707   6.261  15.734  1.5892 -1.3004 -0.0767
17056TIP3   OH272582   5.367   2.357   2.854 -0.2763 -0.2360 -0.1549
17056TIP3    H172583   5.317   2.429   2.816 -0.6832 -0.7522 -0.5969
17056TIP3    H272584   5.411   2.396   2.930 -1.7009  0.1073  0.5151
17057TIP3   OH272585   4.509   1.426   2.894 -0.5228  0.0139 -0.4108
17057TIP3    H172586   4.511   1.415   2.990  0.0654  0.4485 -0.3736
17057TIP3    H272587   4.548   1.345   2.861  1.3684  0.8246 -0.2096
17058TIP3   OH272588   5.374   0.477  12.882 -0.4798 -0.0003  0.1693
17058TIP3    H172589   5.417   0.529  12.950  3.7134 -1.4332 -1.1798
17058TIP3    H272590   5.317   0.417  12.930 -1.2128  2.1562  2.0667
17059TIP3   OH272591   6.653   0.071  11.537 -0.1678 -0.2339 -0.1834
17059TIP3    H172592   6.692  -0.012  11.565 -0.9263 -0.8882 -1.0512
17059TIP3    H272593   6.723   0.116  11.490  0.2007 -0.4375  0.1633
17060TIP3   OH272594   3.741   6.322  16.358  0.0343  0.1010 -0.4403
17060TIP3    H172595   3.835   6.342  16.361  0.2631 -0.7912 -1.2824
17060TIP3    H272596   3.721   6.286  16.444  0.2048  1.4110  0.1525
17061TIP3   OH272597   6.073   0.657  13.132 -0.1293 -0.4614 -0.0793
17061TIP3    H172598   6.163   0.624  13.126  0.1923  0.6819 -2.0576
17061TIP3    H272599   6.019   0.579  13.117  0.6221 -0.2782 -4.3522
17062TIP3   OH272600   2.160   6.143  10.450 -0.0007 -0.1601 -1.0095
17062TIP3    H172601   2.104   6.216  10.425  1.1984  1.3741  0.5904
17062TIP3    H272602   2.104   6.087  10.505 -0.3861  0.5532 -0.6724
17063TIP3   OH272603   4.128   3.278  15.177  0.0535 -0.1076  0.4298
17063TIP3    H172604   4.101   3.370  15.177  0.6031  0.0539  0.0316
17063TIP3    H272605   4.049   3.230  15.150 -0.1923  0.2515  0.4987
17064TIP3   OH272606   5.211   0.695  12.748  0.5762  0.5561 -0.2706
17064TIP3    H172607   5.144   0.627  12.744 -2.6825  3.6556 -1.0240
17064TIP3    H272608   5.257   0.678  12.830 -1.0207 -1.7608  0.2022
17065TIP3   OH272609   5.355   2.607   2.723 -0.3120 -0.3951 -0.1961
17065TIP3    H172610   5.375   2.691   2.766 -1.5598 -1.1440  1.9659
17065TIP3    H272611   5.427   2.593   2.662  1.0645  1.2201  0.9981
17066TIP3   OH272612   4.780   0.120   3.558  0.3372 -0.2488  0.1904
17066TIP3    H172613   4.861   0.169   3.553  1.2283 -1.3073  3.0953
17066TIP3    H272614   4.760   0.115   3.652 -3.0650 -0.0455 -0.4381
17067TIP3   OH272615   5.876   1.600  14.157 -0.1980 -0.1067 -0.6644
17067TIP3    H172616   5.945   1.590  14.223  0.1019 -1.9325 -1.2074
17067TIP3    H272617   5.898   1.681  14.111 -0.3403  1.1335  1.3745
17068TIP3   OH272618   5.858   0.332  16.369  0.3760 -0.1089  0.0621
17068TIP3    H172619   5.904   0.411  16.397  2.2900 -1.3052  0.3450
17068TIP3    H272620   5.847   0.344  16.275  3.1062 -0.7164 -0.3677
17069TIP3   OH272621   3.619   3.915   3.264 -0.4346  0.0735  0.2976
17069TIP3    H172622   3.620   3.867   3.181  1.1434  0.5517  0.0084
17069TIP3    H272623   3.707   3.952   3.271 -0.1990 -0.8482  2.7185
17070TIP3   OH272624   4.060   5.905   2.829  0.1172 -0.2731 -1.0133
17070TIP3    H172625   3.979   5.863   2.855  1.3500 -1.0816  1.6690
17070TIP3    H272626   4.054   5.993   2.867  1.0562 -0.7942  0.3943
17071TIP3   OH272627   5.412   6.674   4.403 -0.5800 -0.6198  0.2025
17071TIP3    H172628   5.388   6.671   4.310  0.0315 -0.9428  0.0472
17071TIP3    H272629   5.413   6.767   4.424 -0.4165 -0.5267 -0.2013
17072TIP3   OH272630   2.922   2.162   5.904 -0.3939 -0.0662  0.3672
17072TIP3    H172631   2.988   2.213   5.858  0.1034 -0.2482  0.8777
17072TIP3    H272632   2.859   2.137   5.836  1.5146 -2.2874 -0.6515
17073TIP3   OH272633   2.162   5.545  15.462 -0.4368  0.4646 -0.3409
17073TIP3    H172634   2.186   5.633  15.432 -0.1200  0.4272 -0.1994
17073TIP3    H272635   2.103   5.560  15.535  0.7949  0.5700  0.6447
17074TIP3   OH272636   1.016   4.599  15.984  0.0896 -0.4544  0.1500
17074TIP3    H172637   0.950   4.616  16.052  0.3908  1.6047 -0.0489
17074TIP3    H272638   1.077   4.538  16.025 -1.3962 -1.6313  0.6745
17075TIP3   OH272639   1.743   2.305   4.414  0.0807 -0.3288 -0.1183
17075TIP3    H172640   1.694   2.310   4.332  0.4407  1.3272 -0.2595
17075TIP3    H272641   1.816   2.245   4.395  0.4760  0.4726 -1.1872
17076TIP3   OH272642   6.390   4.526  14.412  0.3240  0.0782  0.8167
17076TIP3    H172643   6.476   4.492  14.388 -0.2004 -1.4438  1.0280
17076TIP3    H272644   6.342   4.449  14.443 -0.8291  1.0626  1.4979
17077TIP3   OH272645   2.343   5.235   5.658  0.4654 -0.1226  0.1211
17077TIP3    H172646   2.312   5.268   5.742  1.8827 -0.1850  0.6753
17077TIP3    H272647   2.407   5.300   5.629  1.3788 -1.0676 -0.0047
17078TIP3   OH272648   2.221   3.504   3.840 -0.4354 -0.4891  0.0434
17078TIP3    H172649   2.189   3.569   3.778 -1.2581 -1.1820 -0.2683
17078TIP3    H272650   2.274   3.444   3.787  1.5762  0.7710  0.5931
17079TIP3   OH272651   1.111   6.455   5.732 -0.2281  0.1420  0.2484
17079TIP3    H172652   1.055   6.417   5.800 -1.1700  1.6799  0.3420
17079TIP3    H272653   1.051   6.479   5.662  0.7877 -1.8336 -1.3382
17080TIP3   OH272654   6.076   5.242  13.230  0.4886  0.5003  0.2489
17080TIP3    H172655   6.088   5.150  13.252  2.3057  0.3663 -1.2254
17080TIP3    H272656   6.094   5.247  13.137  0.0674  2.3005  0.2478
17081TIP3   OH272657   0.878   6.765   5.638  0.4298  0.3382  0.5666
17081TIP3    H172658   0.786   6.755   5.661  0.2581  1.4693  0.4228
17081TIP3    H272659   0.926   6.736   5.715 -0.1005  1.8934  1.5181
17082TIP3   OH272660   3.706   1.722   3.501  0.2322 -0.5381 -0.5483
17082TIP3    H172661   3.665   1.681   3.424  0.7149 -4.4119  1.1686
17082TIP3    H272662   3.800   1.707   3.489  0.5999  1.7280 -0.7547
17083TIP3   OH272663   3.760   2.289  12.771 -0.2416  0.2347 -0.9479
17083TIP3    H172664   3.815   2.343  12.828  1.5234 -0.9825 -1.4450
17083TIP3    H272665   3.698   2.247  12.831  0.3377  0.4577 -0.1745
17084TIP3   OH272666   4.294   0.400  12.082 -0.2946 -0.2025  0.1209
17084TIP3    H172667   4.373   0.364  12.041 -0.7248  0.8548 -1.7236
17084TIP3    H272668   4.282   0.485  12.039 -3.9187 -1.5082 -1.5930
17085TIP3   OH272669   0.962   6.027   1.394 -0.5414  0.1901 -0.0081
17085TIP3    H172670   0.988   6.045   1.484  0.8115 -0.2191 -0.2937
17085TIP3    H272671   0.935   6.111   1.359 -2.2916  0.1220  1.1551
17086TIP3   OH272672   5.315   3.314  16.984 -0.0756 -0.3090  0.9529
17086TIP3    H172673   5.367   3.373  17.039 -0.0928  1.0154 -0.4238
17086TIP3    H272674   5.234   3.362  16.968 -0.9276 -1.5578  1.4607
17087TIP3   OH272675   1.716   1.867  15.862 -0.4410  0.5768 -0.1697
17087TIP3    H172676   1.705   1.928  15.789  0.6909  0.4449 -0.4676
17087TIP3    H272677   1.808   1.838  15.855 -1.1290 -1.6430 -0.4103
17088TIP3   OH272678   1.578   3.381  12.112  0.0090 -0.4303 -0.2582
17088TIP3    H172679   1.532   3.431  12.045  0.4512  0.6037  0.1944
17088TIP3    H272680   1.576   3.437  12.190  3.0462  0.1723 -0.5479
17089TIP3   OH272681   6.418   6.756   5.739 -0.3486  0.0315 -0.8990
17089TIP3    H172682   6.469   6.794   5.668  0.7282  1.6137  0.6899
17089TIP3    H272683   6.481   6.704   5.789 -0.5173  1.1329  0.4591
17090TIP3   OH272684   6.537   3.145   5.425 -0.7215 -0.0220 -0.2553
17090TIP3    H172685   6.623   3.180   5.402 -0.5017  0.5303  1.3243
17090TIP3    H272686   6.545   3.123   5.518 -2.0664 -0.6264 -0.2794
17091TIP3   OH272687   2.160   4.779   1.181  0.2600 -0.1574 -0.2816
17091TIP3    H172688   2.108   4.719   1.128  2.2684 -0.1270 -2.3636
17091TIP3    H272689   2.127   4.866   1.161 -1.5438 -0.4070  1.4791
17092TIP3   OH272690   3.986   2.963   2.937  0.1029  0.1199 -0.0842
17092TIP3    H172691   3.991   2.912   2.856  2.9479 -0.3877  0.3856
17092TIP3    H272692   3.967   2.898   3.005  0.7456  0.1170  0.0909
17093TIP3   OH272693   5.678   0.068   5.792  0.7815  0.6289  0.5242
17093TIP3    H172694   5.725   0.036   5.715  0.6256 -0.7953  1.0099
17093TIP3    H272695   5.689  -0.001   5.858 -0.1308  1.2691  1.3716
17094TIP3   OH272696   0.181   5.953  16.613  0.0315  0.5083  0.4908
17094TIP3    H172697   0.108   5.990  16.564  1.9297  1.7398 -1.4930
17094TIP3    H272698   0.226   5.896  16.551  0.4659 -0.6549  1.8440
17095TIP3   OH272699   3.187   3.620  16.122 -0.0383 -0.1313 -0.4449
17095TIP3    H172700   3.207   3.627  16.215  1.3977  0.3890 -0.7728
17095TIP3    H272701   3.267   3.649  16.078 -1.1691  0.9544 -1.8501
17096TIP3   OH272702   3.027   4.292  13.518 -0.2643 -0.2338 -0.7298
17096TIP3    H172703   2.964   4.340  13.465 -1.2357  1.1246  1.5683
17096TIP3    H272704   2.974   4.245  13.582  1.0122  0.8475  1.1813
17097TIP3   OH272705   1.802   2.738   4.992  0.7752 -0.2532 -0.0266
17097TIP3    H172706   1.712   2.705   5.000 -1.1686  3.3793 -4.5224
17097TIP3    H272707   1.833   2.702   4.909  2.9487 -0.2268  0.7569
17098TIP3   OH272708   0.977   5.712   4.155 -0.4973 -0.4789  0.3339
17098TIP3    H172709   0.972   5.797   4.199 -1.1638 -0.3438 -0.0032
17098TIP3    H272710   1.011   5.732   4.068 -0.8424 -0.5271  0.1854
17099TIP3   OH272711   2.478   3.173   3.828  0.0365  0.6666 -0.0462
17099TIP3    H172712   2.494   3.139   3.916  1.3787  0.8771 -0.1864
17099TIP3    H272713   2.560   3.218   3.805 -0.1039  0.1584 -1.6088
17100TIP3   OH272714   3.576   2.218   4.614 -0.5623  0.1246  0.3141
17100TIP3    H172715   3.632   2.150   4.577  0.6671 -0.0335  2.3539
17100TIP3    H272716   3.487   2.186   4.600 -0.0777 -0.6849 -1.0120
17101TIP3   OH272717   2.013   1.882   0.387 -0.1255  0.0272 -0.0029
17101TIP3    H172718   2.004   1.961   0.333 -1.6010 -0.5242 -0.5770
17101TIP3    H272719   2.082   1.831   0.344  0.7979  0.9673  0.3391
17102TIP3   OH272720   0.193   3.319  14.945  0.2627  0.1457 -0.3709
17102TIP3    H172721   0.106   3.352  14.923 -0.1847 -1.0097 -0.3783
17102TIP3    H272722   0.188   3.298  15.038  1.0766  1.6959  0.0485
17103TIP3   OH272723   0.475   0.806  12.487 -0.1826  0.7322 -0.1521
17103TIP3    H172724   0.503   0.799  12.396  0.7407  1.0753  0.1087
17103TIP3    H272725   0.503   0.894  12.514 -2.5281  1.5581 -0.2457
17104TIP3   OH272726   1.062   6.378  10.857 -0.5311  0.1655 -0.8923
17104TIP3    H172727   1.086   6.316  10.788 -0.7675  0.1618 -0.9716
17104TIP3    H272728   0.975   6.408  10.832 -1.1647 -0.8108  0.0762
17105TIP3   OH272729   5.729   1.165  12.766  0.0679 -0.3548 -0.4956
17105TIP3    H172730   5.713   1.260  12.766  0.1517 -0.3390  0.7944
17105TIP3    H272731   5.728   1.140  12.858  0.8100 -1.4867 -0.7855
17106TIP3   OH272732   3.092   3.746   1.090 -0.2823 -0.0863 -0.7094
17106TIP3    H172733   3.173   3.786   1.059  0.8046 -0.4738  1.5301
17106TIP3    H272734   3.035   3.744   1.013  2.0630 -0.4050 -2.5034
17107TIP3   OH272735   5.001   3.921  13.801  0.4309  0.0025 -0.2273
17107TIP3    H172736   4.913   3.937  13.835  1.3933  0.7901  1.9452
17107TIP3    H272737   5.039   3.856  13.860  1.3507 -0.2592 -1.0878
17108TIP3   OH272738   6.397   5.439  14.288  0.1171  0.0664  0.5041
17108TIP3    H172739   6.314   5.451  14.241  0.4380 -1.4399 -0.5074
17108TIP3    H272740   6.461   5.490  14.239  0.1734 -0.3874  0.0960
17109TIP3   OH272741   0.899   2.553   2.526 -0.0779  0.0641  0.1532
17109TIP3    H172742   0.821   2.563   2.472  0.0597  0.3001 -0.0019
17109TIP3    H272743   0.867   2.557   2.616 -0.5522 -2.1034  0.1204
17110TIP3   OH272744   1.410   5.407  14.467  0.7059  0.1226 -0.2309
17110TIP3    H172745   1.474   5.344  14.433 -0.4165 -1.1794  0.0030
17110TIP3    H272746   1.384   5.372  14.552 -3.3063 -1.6295 -2.0247
17111TIP3   OH272747   0.037   0.440   2.061 -0.0421 -0.1592  0.2814
17111TIP3    H172748  -0.024   0.399   2.123  0.3608 -1.5030 -0.2006
17111TIP3    H272749  -0.016   0.457   1.983 -0.1427 -0.0125  0.3814
17112TIP3   OH272750   1.015   2.160  11.644 -0.2092 -0.1739 -0.4665
17112TIP3    H172751   0.964   2.232  11.680 -0.0756 -0.6022  0.6035
17112TIP3    H272752   0.952   2.109  11.593 -0.7185 -0.3466  0.3243
17113TIP3   OH272753   2.758   1.967   5.665  0.0662  0.4759  0.9301
17113TIP3    H172754   2.688   1.934   5.608  0.6392  1.8050 -0.5798
17113TIP3    H272755   2.750   2.062   5.661  2.3654  0.6695  0.2101
17114TIP3   OH272756   1.859   1.533   5.123  0.4047  0.1468  0.2088
17114TIP3    H172757   1.938   1.577   5.153  0.5027 -0.3682  0.7187
17114TIP3    H272758   1.821   1.493   5.202  0.3518 -0.7214 -0.2403
17115TIP3   OH272759   6.699   0.195  16.135  0.1169  0.1271 -1.0668
17115TIP3    H172760   6.793   0.202  16.122  0.9800 -0.5089  3.7252
17115TIP3    H272761   6.677   0.106  16.108  1.1496 -0.1264 -1.0920
17116TIP3   OH272762   3.630   4.594   5.236  0.1862  0.3133 -0.1887
17116TIP3    H172763   3.560   4.642   5.280 -0.9711  1.1839 -2.8525
17116TIP3    H272764   3.704   4.654   5.237  0.3187  0.1475  0.9209
17117TIP3   OH272765   0.211   3.276   4.416 -0.5125  0.1514  0.5061
17117TIP3    H172766   0.211   3.324   4.498  0.6551 -0.3514  0.8133
17117TIP3    H272767   0.128   3.299   4.374 -1.0278  0.5450  1.7353
17118TIP3   OH272768   5.184   5.249   2.547 -0.9606  0.1411  0.1289
17118TIP3    H172769   5.276   5.277   2.544 -0.5105 -1.3383 -0.1854
17118TIP3    H272770   5.141   5.304   2.481  0.1061 -0.5989 -1.2043
17119TIP3   OH272771   1.481   0.819   5.995  0.0647 -0.2725  0.2287
17119TIP3    H172772   1.399   0.862   5.969  0.5532  0.3425 -0.3275
17119TIP3    H272773   1.524   0.883   6.051  1.2425  0.3637 -1.3857
17120TIP3   OH272774   0.874   0.883  11.729 -0.4867  0.2083  0.2863
17120TIP3    H172775   0.868   0.801  11.679 -0.8488 -0.1283  0.8830
17120TIP3    H272776   0.797   0.933  11.702 -0.1489  0.4561 -0.2463
17121TIP3   OH272777   0.517   0.234   4.953 -0.8384 -0.1323 -0.3920
17121TIP3    H172778   0.580   0.272   5.015 -0.5659 -0.2475 -0.5942
17121TIP3    H272779   0.569   0.170   4.903 -0.9430  0.2964 -1.0553
17122TIP3   OH272780   1.632   2.075   2.343 -0.2370  1.1128  0.6031
17122TIP3    H172781   1.607   2.164   2.370  1.1358  1.9026 -0.6161
17122TIP3    H272782   1.653   2.030   2.424  0.1201  2.2564  1.1517
17123TIP3   OH272783   0.781   6.341  12.805 -0.0681 -0.5205 -0.2076
17123TIP3    H172784   0.847   6.392  12.852  0.4530 -1.3090 -0.0857
17123TIP3    H272785   0.710   6.330  12.867 -1.5853  2.7684 -1.2312
17124TIP3   OH272786   4.305   4.479   2.527  1.0597 -0.9838  0.4604
17124TIP3    H172787   4.269   4.411   2.584 -1.6385 -1.9426 -2.2140
17124TIP3    H272788   4.243   4.552   2.534  1.7785 -0.3530  0.2903
17125TIP3   OH272789   4.046   6.650   5.213  0.1399 -0.5698 -0.2450
17125TIP3    H172790   4.086   6.587   5.273 -0.3165 -2.1504 -1.5988
17125TIP3    H272791   3.961   6.670   5.251 -0.0491 -1.3890 -0.2425
17126TIP3   OH272792   1.619   6.002  16.577  0.3656  0.2183  0.6515
17126TIP3    H172793   1.590   5.951  16.501  1.9322 -0.3094  0.4023
17126TIP3    H272794   1.584   5.955  16.652 -1.3312  0.8262  0.2747
17127TIP3   OH272795   3.344   1.363   5.236 -0.4244 -0.1533 -1.0578
17127TIP3    H172796   3.271   1.323   5.283  0.1944  1.8787  1.7103
17127TIP3    H272797   3.409   1.294   5.229 -0.1093 -0.2323  2.0284
17128TIP3   OH272798   5.579   5.045   6.158 -0.5974  0.3325  0.3781
17128TIP3    H172799   5.530   5.070   6.236 -2.4811  1.4749 -1.1560
17128TIP3    H272800   5.607   5.128   6.119  0.5002 -0.2368 -0.0738
17129TIP3   OH272801   1.974   1.593  14.993  0.5024 -0.1042  0.2754
17129TIP3    H172802   1.911   1.527  15.021  1.8080 -1.2249  0.6532
17129TIP3    H272803   1.921   1.666  14.964 -0.9670 -0.9586  0.7437
17130TIP3   OH272804   5.618   4.651  16.468 -0.3303  0.6871 -0.3211
17130TIP3    H172805   5.670   4.579  16.504 -0.9169 -0.0445 -0.9518
17130TIP3    H272806   5.645   4.727  16.520  1.2311  0.2759 -0.5124
17131TIP3   OH272807   6.223   4.876   2.507 -0.4180 -0.6567  0.0242
17131TIP3    H172808   6.238   4.968   2.530  1.6725 -1.4051  1.7690
17131TIP3    H272809   6.240   4.873   2.412  0.6499  0.5195  0.1588
17132TIP3   OH272810   3.355   4.592  13.924  0.2382 -0.1374  0.5145
17132TIP3    H172811   3.401   4.510  13.905 -0.2487 -0.2607 -0.1443
17132TIP3    H272812   3.398   4.657  13.869 -1.2735 -0.5263 -1.1855
17133TIP3   OH272813   1.212   1.267   4.653  0.4127 -0.1299 -0.2496
17133TIP3    H172814   1.252   1.270   4.740 -0.6141 -1.0858  0.2776
17133TIP3    H272815   1.170   1.352   4.642 -1.7398 -0.9400  1.3340
17134TIP3   OH272816   5.342   6.277   5.136 -0.4607 -0.3529 -0.0599
17134TIP3    H172817   5.394   6.203   5.167 -1.0543 -1.1350 -0.9009
17134TIP3    H272818   5.290   6.241   5.064 -1.4959  0.6365  0.1793
17135TIP3   OH272819   1.281   5.865   2.131 -0.0903 -0.3353 -0.2298
17135TIP3    H172820   1.366   5.829   2.156  0.4802  0.0576 -1.5761
17135TIP3    H272821   1.235   5.876   2.214  2.0769  1.7239  0.7869
17136TIP3   OH272822   1.649   1.680  13.865 -0.1816 -0.0231  0.4526
17136TIP3    H172823   1.708   1.685  13.940 -0.6237  0.3201  0.7832
17136TIP3    H272824   1.568   1.722  13.895 -0.2089  0.5328 -0.3587
17137TIP3   OH272825   4.876   5.809   5.345  0.3804 -0.0192 -0.1479
17137TIP3    H172826   4.803   5.786   5.289  0.0847  0.8822 -0.1496
17137TIP3    H272827   4.929   5.730   5.351 -0.9667 -0.8849  0.4313
17138TIP3   OH272828   4.085   1.269   2.849  0.2697 -0.1527 -0.2505
17138TIP3    H172829   3.997   1.245   2.878  0.3133 -1.3932 -1.1106
17138TIP3    H272830   4.127   1.185   2.829  2.0982  0.3364  1.4419
17139TIP3   OH272831   6.001   1.790  14.007  0.0160 -0.0674 -0.1917
17139TIP3    H172832   6.011   1.837  13.924  0.0397 -0.4495 -0.4103
17139TIP3    H272833   6.076   1.816  14.059  0.6307 -0.7211 -0.7385
17140TIP3   OH272834   3.021   3.723   4.422 -0.4574  0.4374  0.2502
17140TIP3    H172835   3.056   3.707   4.334 -0.3972  2.3640 -0.0858
17140TIP3    H272836   3.085   3.682   4.481  0.5007  0.8185 -0.5138
17141TIP3   OH272837   2.297   5.835   4.451 -0.1962 -0.3897  0.1723
17141TIP3    H172838   2.271   5.881   4.530 -1.0537 -1.2454  0.3936
17141TIP3    H272839   2.381   5.874   4.427 -0.6086  0.8531  0.7017
17142TIP3   OH272840   1.756   1.012   3.456 -0.1672 -0.7816 -0.5457
17142TIP3    H172841   1.831   0.968   3.495 -0.4985 -1.1261 -0.2992
17142TIP3    H272842   1.792   1.059   3.380  1.1109  2.6530  2.0466
17143TIP3   OH272843   2.119   1.391  14.821 -0.6634  0.3073  0.1352
17143TIP3    H172844   2.149   1.463  14.876 -0.0289 -0.1798  0.4372
17143TIP3    H272845   2.060   1.432  14.757 -1.2025  0.9055  1.0127
17144TIP3   OH272846   3.437   0.050  14.466  0.3701  0.3014  0.2419
17144TIP3    H172847   3.345   0.028  14.450  0.2597  0.2986  0.8418
17144TIP3    H272848   3.455   0.124  14.409  0.6226 -1.0790 -1.5037
17145TIP3   OH272849   0.092   1.572   0.354  0.5166  0.0575 -0.0573
17145TIP3    H172850   0.028   1.569   0.425 -0.6245  2.9082 -0.9085
17145TIP3    H272851   0.095   1.664   0.328  3.0109 -0.4670 -1.8201
17146TIP3   OH272852   1.682   5.052  15.675  0.3223 -0.3010  0.3184
17146TIP3    H172853   1.621   5.071  15.604  0.4859 -0.7393  0.0553
17146TIP3    H272854   1.730   4.975  15.645  1.5302  0.4864  0.1869
17147TIP3   OH272855   2.555   3.608   1.585 -0.1650 -0.4772  0.3032
17147TIP3    H172856   2.489   3.648   1.528  1.7487  1.5862 -0.5347
17147TIP3    H272857   2.517   3.614   1.673 -1.9091 -1.0719 -0.3836
17148TIP3   OH272858   1.047   6.776  15.438  0.0708  0.7381  0.5552
17148TIP3    H172859   1.105   6.814  15.371 -0.6759  1.9351  0.5955
17148TIP3    H272860   1.039   6.684  15.412  1.4623  0.7076  0.1746
17149TIP3   OH272861   6.230   5.968   5.686 -0.0398  0.1619  0.1597
17149TIP3    H172862   6.319   5.997   5.664  0.8005 -1.8145  0.8277
17149TIP3    H272863   6.183   5.972   5.603  1.6901 -2.2901 -1.0071
17150TIP3   OH272864   0.239   5.569  11.286 -0.1918  0.4998  0.0601
17150TIP3    H172865   0.245   5.532  11.197  0.4847 -0.1038  0.3495
17150TIP3    H272866   0.197   5.654  11.274  0.5198  0.7226 -0.9211
17151TIP3   OH272867   0.889   4.156  14.605 -0.0130 -0.2689  0.5553
17151TIP3    H172868   0.932   4.076  14.635 -1.0169 -0.8448  0.4632
17151TIP3    H272869   0.949   4.226  14.632  0.5272 -0.9889  1.2635
17152TIP3   OH272870   6.021   3.850  15.325 -0.3729 -0.1757 -0.7734
17152TIP3    H172871   6.087   3.783  15.306  0.7893  0.5785  0.5073
17152TIP3    H272872   5.963   3.848  15.249  1.1631 -0.8105 -1.9770
17153TIP3   OH272873   0.928   6.133   4.050 -0.2385 -0.7077 -0.4969
17153TIP3    H172874   0.912   6.190   3.974 -1.5683  1.4905  1.3587
17153TIP3    H272875   0.843   6.093   4.068 -0.3895  0.2324  0.9499
17154TIP3   OH272876   6.751   3.023   4.022 -0.6553  0.0829 -0.0666
17154TIP3    H172877   6.678   3.068   3.979 -0.2350  1.0908  0.2755
17154TIP3    H272878   6.785   2.963   3.955 -1.0601  0.4378 -0.5959
17155TIP3   OH272879   5.342   2.085   0.303 -0.3968 -0.3613 -0.0712
17155TIP3    H172880   5.367   2.178   0.308 -0.9995 -0.2375  0.8883
17155TIP3    H272881   5.328   2.069   0.210 -0.6928  0.6310 -0.2083
17156TIP3   OH272882   1.587   4.655  16.217 -0.1166  0.0601 -0.2575
17156TIP3    H172883   1.587   4.678  16.123  3.4719 -2.1059 -0.8535
17156TIP3    H272884   1.553   4.565  16.219 -0.3462  0.1680  0.5654
17157TIP3   OH272885   0.853   2.396   3.267 -0.2850  0.4919 -0.6228
17157TIP3    H172886   0.920   2.438   3.320 -2.4131  1.5235  1.3469
17157TIP3    H272887   0.775   2.397   3.322 -1.6984 -1.5049 -2.4907
17158TIP3   OH272888   2.374   1.525   0.732 -0.4516  0.1139 -0.1740
17158TIP3    H172889   2.435   1.469   0.781 -1.4683  0.6430  1.7802
17158TIP3    H272890   2.287   1.496   0.762 -1.0200  2.0078  0.0637
17159TIP3   OH272891   1.104   0.001   1.924  0.7438  0.0940  0.4056
17159TIP3    H172892   1.110  -0.063   1.853  0.5585 -0.7007  1.1001
17159TIP3    H272893   1.010   0.015   1.936  0.7605 -0.0275  0.7058
17160TIP3   OH272894   2.135   2.722  12.842 -0.3305 -0.3023 -0.0166
17160TIP3    H172895   2.125   2.656  12.774  4.7261 -1.1101 -0.1375
17160TIP3    H272896   2.174   2.797  12.798 -1.5335  1.0087  1.0844
17161TIP3   OH272897   2.859   4.754  16.136  0.1086 -0.2928  0.0542
17161TIP3    H172898   2.855   4.661  16.157  0.7937 -0.5725 -1.0048
17161TIP3    H272899   2.776   4.773  16.094 -1.2478  0.2570  2.8958
17162TIP3   OH272900   6.774   2.457  12.811  0.0445 -0.1193  0.7470
17162TIP3    H172901   6.729   2.492  12.888 -0.4233 -0.7691  0.7745
17162TIP3    H272902   6.837   2.525  12.787 -0.1380  0.2906  1.4172
17163TIP3   OH272903   5.199   5.799   3.315 -1.0081  0.2818 -0.5106
17163TIP3    H172904   5.249   5.718   3.307 -0.7332  0.5045 -1.1259
17163TIP3    H272905   5.111   5.771   3.341 -0.2849 -0.0378  1.7167
17164TIP3   OH272906   5.601   3.269  16.386 -0.2433 -0.0611  0.1755
17164TIP3    H172907   5.668   3.220  16.338  0.5109 -1.0953  2.2371
17164TIP3    H272908   5.616   3.360  16.361  2.9708 -0.0715  1.7234
17165TIP3   OH272909   3.022   4.778   2.087 -0.5866  0.1021  0.5913
17165TIP3    H172910   2.990   4.854   2.039  0.7137  0.7485  0.7243
17165TIP3    H272911   3.075   4.815   2.158  1.2580 -0.9449 -0.1975
17166TIP3   OH272912   1.817   4.265  11.467  0.2617  0.0865  0.7016
17166TIP3    H172913   1.756   4.201  11.504 -0.7987  0.7111  0.0598
17166TIP3    H272914   1.862   4.217  11.397 -1.0339  0.2422 -0.2394
17167TIP3   OH272915   4.294   2.635  10.849  0.3958  0.1281 -0.2418
17167TIP3    H172916   4.210   2.677  10.866  0.6481  0.3387  0.5081
17167TIP3    H272917   4.347   2.654  10.927  0.6081 -1.3420 -0.0099
17168TIP3   OH272918   4.565   6.712  14.763  0.4770  0.0259  0.3866
17168TIP3    H172919   4.614   6.689  14.684 -0.4977 -0.0279 -0.2060
17168TIP3    H272920   4.497   6.772  14.733  1.8305  2.2461  1.6420
17169TIP3   OH272921   4.624   1.480   1.828 -0.5827 -0.1707  0.5514
17169TIP3    H172922   4.534   1.513   1.825 -0.6247 -0.3826 -0.9308
17169TIP3    H272923   4.615   1.387   1.850 -0.9772 -1.0236 -2.9547
17170TIP3   OH272924   2.839   5.178  13.426 -0.6715  0.2179 -0.6251
17170TIP3    H172925   2.900   5.247  13.452 -0.0643 -0.6083  0.1658
17170TIP3    H272926   2.752   5.215  13.441 -0.3530  1.0118 -0.7425
17171TIP3   OH272927   1.429   2.587  15.611 -0.1553  0.9519 -0.5355
17171TIP3    H172928   1.364   2.545  15.668 -0.4321  0.9133 -0.8780
17171TIP3    H272929   1.428   2.534  15.532  0.1980  1.0344 -0.5937
17172TIP3   OH272930   2.948   4.388  14.950  0.2928  0.2655 -0.1410
17172TIP3    H172931   2.917   4.370  15.038  0.8814 -0.2606 -0.0374
17172TIP3    H272932   2.882   4.447  14.913 -0.9652 -1.0418 -0.0303
17173TIP3   OH272933   2.702   1.139  16.759  0.2187 -0.2000  0.7440
17173TIP3    H172934   2.763   1.112  16.828 -0.0979 -0.1006  1.0612
17173TIP3    H272935   2.704   1.235  16.761  0.7987 -0.1899  0.0944
17174TIP3   OH272936   1.601   3.181   0.574  0.0288  0.0499  0.4846
17174TIP3    H172937   1.649   3.219   0.500  0.6985 -2.0233 -0.1843
17174TIP3    H272938   1.542   3.250   0.602  1.1599  1.5535 -0.7375
17175TIP3   OH272939   2.622   0.482   3.879  0.3749  0.4573 -0.0565
17175TIP3    H172940   2.653   0.395   3.852  0.9064  0.7866 -0.5195
17175TIP3    H272941   2.692   0.541   3.852 -0.7403  1.2433 -1.2710
17176TIP3   OH272942   4.818   6.472  16.204  0.1129 -0.4288  0.2797
17176TIP3    H172943   4.807   6.531  16.129  0.3543  0.2041  0.7500
17176TIP3    H272944   4.762   6.509  16.272  1.5137  0.1599  1.1102
17177TIP3   OH272945   0.504   3.480   4.539 -0.8103  0.3863  0.2635
17177TIP3    H172946   0.456   3.527   4.606 -1.2639 -1.6830  1.4261
17177TIP3    H272947   0.587   3.456   4.580  0.3085  1.9977 -1.0057
17178TIP3   OH272948   6.386   5.281   5.175 -0.0425  0.3214 -0.1516
17178TIP3    H172949   6.424   5.199   5.145  0.0734  0.3633 -0.1178
17178TIP3    H272950   6.296   5.278   5.144  0.2371  0.6167 -1.0190
17179TIP3   OH272951   3.982   6.443  12.153 -0.0503 -0.1404  0.0563
17179TIP3    H172952   4.030   6.361  12.169  0.8948  0.8443  2.5801
17179TIP3    H272953   3.890   6.417  12.153  0.2850 -1.4101 -0.5759
17180TIP3   OH272954   0.922   4.444   3.727  0.1904 -0.2722 -0.2107
17180TIP3    H172955   0.883   4.420   3.643 -0.1176 -1.5093  0.2838
17180TIP3    H272956   0.870   4.398   3.792  0.9651 -0.0038  0.6098
17181TIP3   OH272957   0.176   6.423  13.441  0.1489  0.5151 -0.2418
17181TIP3    H172958   0.154   6.336  13.408  1.8280  0.6256 -1.7483
17181TIP3    H272959   0.092   6.462  13.465 -0.6940 -1.2212 -0.2996
17182TIP3   OH272960   0.254   4.077   0.951 -0.4605  0.0808  0.5387
17182TIP3    H172961   0.179   4.128   0.982 -1.3399 -1.1065  0.4014
17182TIP3    H272962   0.264   4.007   1.016  1.2289  0.8528  1.1540
17183TIP3   OH272963   0.230   3.054   1.980  0.2051  0.2032  0.6781
17183TIP3    H172964   0.292   3.089   2.044  1.0797 -1.8303  0.9746
17183TIP3    H272965   0.284   3.020   1.909 -0.6912  0.8921 -0.3413
17184TIP3   OH272966   3.321   3.879   1.961 -0.0174  0.8201 -0.3152
17184TIP3    H172967   3.386   3.890   1.892 -0.4475  0.0403 -0.8605
17184TIP3    H272968   3.279   3.964   1.969  1.2927  1.4107  0.2672
17185TIP3   OH272969   2.739   0.779   5.079 -0.3829  0.0781  0.6108
17185TIP3    H172970   2.721   0.870   5.058 -1.1870 -0.1819  0.1444
17185TIP3    H272971   2.756   0.778   5.173  1.9345  1.0618  0.2500
17186TIP3   OH272972   2.645   3.300   2.024  0.1772  0.5758  0.1842
17186TIP3    H172973   2.716   3.260   2.075  1.2455  1.2670 -0.7434
17186TIP3    H272974   2.573   3.238   2.031  1.4278 -0.9623 -0.2525
17187TIP3   OH272975   3.295   3.682  13.960 -0.1437  0.2066  0.1554
17187TIP3    H172976   3.292   3.614  14.027  0.7386  0.3143  0.3027
17187TIP3    H272977   3.214   3.669  13.910  0.4851 -1.5907 -0.4303
17188TIP3   OH272978   4.158   3.943   0.063 -0.3439 -0.4122 -0.1673
17188TIP3    H172979   4.114   3.994  -0.005 -0.0240  1.4039  0.9590
17188TIP3    H272980   4.156   3.853   0.031 -0.7091  0.3404 -2.2980
17189TIP3   OH272981   5.393   4.649  13.108 -0.5509  0.2442  0.3009
17189TIP3    H172982   5.461   4.586  13.085 -0.7173  0.6540 -1.3464
17189TIP3    H272983   5.359   4.617  13.192  0.2645 -1.1118  0.1351
17190TIP3   OH272984   2.038   5.543  16.631 -0.1884 -0.2393  0.0322
17190TIP3    H172985   2.046   5.577  16.720  1.9343 -1.4633  0.3341
17190TIP3    H272986   2.009   5.619  16.580  0.9920  1.1392  1.3167
17191TIP3   OH272987   3.153   5.245   5.129 -0.0491 -0.2095  0.1752
17191TIP3    H172988   3.129   5.161   5.167  0.8146 -1.1337 -1.2902
17191TIP3    H272989   3.247   5.252   5.143 -0.2925  1.0985  1.3749
17192TIP3   OH272990   1.064   4.483   4.375 -0.2399  0.7833 -0.4603
17192TIP3    H172991   1.103   4.436   4.448  0.2688  3.0073  0.7672
17192TIP3    H272992   1.084   4.430   4.298 -0.1479 -1.2239  0.9202
17193TIP3   OH272993   6.274   6.006   1.603  0.5263  0.0508 -1.2670
17193TIP3    H172994   6.358   6.030   1.563  1.1777 -1.2393 -0.7129
17193TIP3    H272995   6.266   5.912   1.587  0.2255 -0.2545  0.5826
17194TIP3   OH272996   0.588   0.753  15.977  0.4619 -0.7641 -0.3433
17194TIP3    H172997   0.633   0.737  15.894  1.9299 -1.0283  0.4955
17194TIP3    H272998   0.645   0.714  16.043  0.7186  1.8898  1.0703
17195TIP3   OH272999   1.812   6.508  12.160 -0.4039  0.0187 -0.3048
17195TIP3    H173000   1.831   6.415  12.166  1.7594  0.4700  0.1334
17195TIP3    H273001   1.850   6.546  12.239 -0.0056  1.4536 -1.1627
17196TIP3   OH273002   5.143   5.576  14.555 -0.1505  0.3255 -0.4635
17196TIP3    H173003   5.054   5.557  14.586  0.1117  0.0412  0.1188
17196TIP3    H273004   5.155   5.669  14.573  0.0112  0.1539  0.3075
17197TIP3   OH273005   2.501   0.229   5.365  0.2352  0.3237 -0.9323
17197TIP3    H173006   2.480   0.322   5.374  0.7882  0.5816 -2.1878
17197TIP3    H273007   2.442   0.185   5.426 -0.5744  1.4267 -0.9080
17198TIP3   OH273008   6.034   5.039   5.364  0.4179  0.2801 -0.6779
17198TIP3    H173009   6.009   5.046   5.272  0.8017  1.8719 -0.6679
17198TIP3    H273010   6.083   4.957   5.369  0.3325  0.1476 -1.8780
17199TIP3   OH273011   4.567   3.922  10.718  0.0935  0.4298 -0.5586
17199TIP3    H173012   4.489   3.958  10.675 -0.2918 -1.6005 -1.6251
17199TIP3    H273013   4.533   3.858  10.780  0.8472  0.8120  0.2590
17200TIP3   OH273014   2.383   6.001  14.676  0.3921  0.0193  0.1012
17200TIP3    H173015   2.463   6.043  14.708  0.6187  0.2350 -0.7276
17200TIP3    H273016   2.312   6.054  14.712  0.6352  0.0884  0.4768
17201TIP3   OH273017   4.779   2.048  17.202 -0.2821  0.2109  0.1609
17201TIP3    H173018   4.873   2.057  17.221 -0.4169  2.4010 -0.1076
17201TIP3    H273019   4.735   2.097  17.271 -1.2058 -0.1063 -0.1906
17202TIP3   OH273020   2.599   4.736  15.999  0.2731  0.3000 -0.6703
17202TIP3    H173021   2.541   4.778  15.936  0.6307  1.1225 -0.4584
17202TIP3    H273022   2.552   4.657  16.027 -0.0461  0.1284 -1.6749
17203TIP3   OH273023   4.208   3.153  14.691  0.1364  0.1617  0.4635
17203TIP3    H173024   4.234   3.071  14.649 -1.8845 -1.4333  2.1808
17203TIP3    H273025   4.233   3.221  14.629  1.0000 -1.8235 -1.4277
17204TIP3   OH273026   2.467   3.493   1.288  0.3682  0.2255 -0.1742
17204TIP3    H173027   2.395   3.432   1.301 -0.0557  0.8227  0.3084
17204TIP3    H273028   2.425   3.577   1.268  0.9154  0.6373  0.3712
17205TIP3   OH273029   6.357   6.348   5.419  0.2856  0.0629 -0.0527
17205TIP3    H173030   6.379   6.286   5.488  1.1005 -1.6752 -1.8459
17205TIP3    H273031   6.281   6.309   5.376  0.5528  0.5254 -0.9355
17206TIP3   OH273032   3.008   6.540  13.707 -0.1459  0.7687 -0.5732
17206TIP3    H173033   2.973   6.600  13.772 -0.6701 -0.0990 -0.0531
17206TIP3    H273034   2.933   6.516  13.653  0.2241  1.2311 -1.3093
17207TIP3   OH273035   2.054   6.040   3.804 -0.2327  0.5225 -0.2137
17207TIP3    H173036   2.051   5.944   3.799 -0.0797  0.5260 -0.3623
17207TIP3    H273037   2.051   6.059   3.898 -0.9667  0.3943 -0.2124
17208TIP3   OH273038   0.358   5.650  15.736  0.0370 -0.3507  0.1083
17208TIP3    H173039   0.340   5.642  15.830  0.8625  0.2072  0.3071
17208TIP3    H273040   0.319   5.734  15.711 -0.6261 -0.7274 -0.1616
17209TIP3   OH273041   4.969   2.850   0.751  0.9019  0.0273  0.3046
17209TIP3    H173042   4.987   2.929   0.801 -0.6718  0.5449  0.0875
17209TIP3    H273043   4.933   2.789   0.816 -0.7730  0.5639 -0.0974
17210TIP3   OH273044   1.673   5.731   5.125 -0.3731  0.8348  0.0011
17210TIP3    H173045   1.589   5.732   5.079 -1.6697  1.4206  2.3286
17210TIP3    H273046   1.730   5.785   5.070 -1.5688  0.6081 -1.4993
17211TIP3   OH273047   4.910   1.448   0.756  0.2743  0.2325 -0.0697
17211TIP3    H173048   4.854   1.525   0.741 -1.3823 -0.6668  1.3653
17211TIP3    H273049   4.849   1.377   0.775  1.7493 -1.6726 -2.1720
17212TIP3   OH273050   3.717   2.784   0.959 -0.0559  0.5157 -0.1241
17212TIP3    H173051   3.671   2.788   0.875  0.2412  1.0146 -0.2674
17212TIP3    H273052   3.769   2.704   0.953  0.0371  0.5976 -0.4561
17213TIP3   OH273053   0.586   5.415  15.742 -0.8297 -0.4135  0.5796
17213TIP3    H173054   0.633   5.333  15.758 -1.6417 -0.5733  2.2550
17213TIP3    H273055   0.565   5.413  15.649 -0.3452 -1.8502  0.4935
17214TIP3   OH273056   0.417   3.425  11.146  0.0675  0.2711 -0.0327
17214TIP3    H173057   0.351   3.396  11.083  0.7390  0.4577 -0.8175
17214TIP3    H273058   0.471   3.487  11.098  0.6778  0.3072  0.6865
17215TIP3   OH273059   5.974   5.012  16.209  0.2529  0.5455  1.0642
17215TIP3    H173060   5.883   4.987  16.227 -0.6706  0.0646 -3.6022
17215TIP3    H273061   5.967   5.096  16.165  2.0853  0.5043  0.6625
17216TIP3   OH273062   0.286   2.257  10.475 -0.0445  0.2782  0.6838
17216TIP3    H173063   0.381   2.242  10.471 -0.2200 -2.1220  3.6286
17216TIP3    H273064   0.274   2.311  10.553 -1.0741  0.8069  0.1542
17217TIP3   OH273065   3.915   5.309  16.758  0.2919 -0.1924  0.2537
17217TIP3    H173066   3.968   5.245  16.711 -0.1873 -0.2694 -0.1811
17217TIP3    H273067   3.878   5.365  16.690 -1.4283 -1.0742  0.4213
17218TIP3   OH273068   3.704   3.661  12.717 -0.1866 -0.4489  0.5854
17218TIP3    H173069   3.769   3.676  12.786  0.1010  0.6267  0.1014
17218TIP3    H273070   3.621   3.687  12.756  0.3397  2.8008 -0.3117
17219TIP3   OH273071   3.389   1.439  16.159 -0.3904 -0.3579  0.4200
17219TIP3    H173072   3.365   1.464  16.248 -0.2062 -2.0441  0.9603
17219TIP3    H273073   3.446   1.509  16.129  0.4795 -0.3354  2.0580
17220TIP3   OH273074   1.869   1.253  13.017  0.1622  0.1451 -0.3973
17220TIP3    H173075   1.802   1.254  13.086  0.9386 -1.0466  0.4010
17220TIP3    H273076   1.920   1.174  13.035  1.3925  0.7012 -1.3752
17221TIP3   OH273077   4.255   2.552  11.175  0.0127 -0.2919  0.0990
17221TIP3    H173078   4.263   2.627  11.234  0.1237  0.0116 -0.3022
17221TIP3    H273079   4.308   2.484  11.216  1.1532  0.3328 -0.3104
17222TIP3   OH273080   0.563   3.161   1.003 -0.2804 -0.7634  0.8580
17222TIP3    H173081   0.643   3.127   1.043 -0.2145 -2.1073 -0.3933
17222TIP3    H273082   0.573   3.256   1.010  2.0012 -0.8750 -0.3497
17223TIP3   OH273083   2.243   1.709  15.587 -0.1561 -0.2928  0.0612
17223TIP3    H173084   2.236   1.614  15.581  0.7174 -0.3934  0.4164
17223TIP3    H273085   2.314   1.723  15.650  1.7457  0.5761 -2.2103
17224TIP3   OH273086   1.032   5.833  16.904 -0.3055  0.1863  0.2259
17224TIP3    H173087   1.058   5.899  16.840 -0.1940  0.3596  0.4517
17224TIP3    H273088   0.955   5.870  16.947 -0.6692 -0.1404 -0.1484
17225TIP3   OH273089   2.609   0.748   2.865 -0.5205 -0.0519 -0.3477
17225TIP3    H173090   2.535   0.796   2.902 -1.5867 -1.2154 -0.9344
17225TIP3    H273091   2.652   0.707   2.941  0.0728  1.3721  0.0894
17226TIP3   OH273092   6.019   2.276  13.703 -0.8483  0.2197 -0.0502
17226TIP3    H173093   6.112   2.291  13.683 -1.0842 -0.1926 -1.5551
17226TIP3    H273094   6.020   2.218  13.779  0.1353  0.1234 -0.1203
17227TIP3   OH273095   0.633   5.662   2.503 -0.2768 -0.3587 -0.8651
17227TIP3    H173096   0.724   5.664   2.535 -0.9307  0.8423  0.9994
17227TIP3    H273097   0.588   5.604   2.564 -0.7049 -1.2448 -2.0087
17228TIP3   OH273098   4.375   5.023  15.554  0.4970  0.5070 -0.1962
17228TIP3    H173099   4.439   5.028  15.626  1.6557  0.3609 -1.1953
17228TIP3    H273100   4.293   4.998  15.597  1.1184  0.6350  1.1086
17229TIP3   OH273101   4.697   4.378  11.275  0.3484  0.0166  0.0213
17229TIP3    H173102   4.671   4.444  11.211  1.0841  1.0461  0.7611
17229TIP3    H273103   4.717   4.300  11.223  0.7494  0.7775 -0.9728
17230TIP3   OH273104   1.433   0.580  12.459  0.2659  0.3570 -0.1835
17230TIP3    H173105   1.370   0.519  12.497  0.7950 -0.9391 -1.3050
17230TIP3    H273106   1.509   0.525  12.439 -0.6644  0.5212 -4.8202
17231TIP3   OH273107   5.533   5.790   2.359  0.3235  0.1314  0.3482
17231TIP3    H173108   5.614   5.738   2.355  0.2348  0.0715 -0.8676
17231TIP3    H273109   5.495   5.782   2.271 -0.5076  0.9619  0.6243
17232TIP3   OH273110   1.415   0.445  10.973 -0.2702 -0.5558 -0.0591
17232TIP3    H173111   1.439   0.534  10.997 -1.0999 -0.5162  0.6269
17232TIP3    H273112   1.460   0.430  10.890 -0.9338  0.8604 -0.6910
17233TIP3   OH273113   0.105   6.206   3.694  0.0432  0.1759  0.2635
17233TIP3    H173114   0.100   6.126   3.746 -0.8783  0.5124  0.6939
17233TIP3    H273115   0.016   6.240   3.693  0.3256  0.9141 -0.3718
17234TIP3   OH273116   4.601   0.685  15.552 -0.3743  0.3883  0.0587
17234TIP3    H173117   4.580   0.778  15.543  1.0795  0.6195 -1.2537
17234TIP3    H273118   4.619   0.656  15.463  1.7116 -0.5197  0.7315
17235TIP3   OH273119   4.717   1.563  17.230 -0.3694 -0.2912  0.1663
17235TIP3    H173120   4.718   1.518  17.314  0.1440  1.1382  0.9497
17235TIP3    H273121   4.683   1.650  17.251 -0.0332  0.1397 -1.0698
17236TIP3   OH273122   5.484   3.722   3.847  0.3761  0.1945  0.2057
17236TIP3    H173123   5.401   3.687   3.814  0.9067 -0.8105 -0.0828
17236TIP3    H273124   5.531   3.646   3.880  0.8063  0.8921  1.2091
17237TIP3   OH273125   0.316   1.206  16.573  0.0714  0.3549  0.3556
17237TIP3    H173126   0.275   1.150  16.508  0.8386 -0.7686  0.8261
17237TIP3    H273127   0.304   1.160  16.656  0.3679  1.0736  0.8071
17238TIP3   OH273128   5.540   1.273   3.097  0.4831  0.0748 -0.0600
17238TIP3    H173129   5.582   1.257   3.013 -0.5897 -0.2272 -0.5414
17238TIP3    H273130   5.559   1.194   3.148  0.3068 -0.1647 -0.3609
17239TIP3   OH273131   6.305   4.674   5.904 -0.2795  0.2966 -0.2382
17239TIP3    H173132   6.218   4.638   5.919  0.3142 -1.2804 -0.3743
17239TIP3    H273133   6.329   4.644   5.816  0.8543 -0.2947  0.2548
17240TIP3   OH273134   3.505   6.527   1.227 -0.2171 -0.1410  0.2727
17240TIP3    H173135   3.440   6.585   1.268 -0.4848 -1.2141  1.3991
17240TIP3    H273136   3.464   6.502   1.144 -0.1724  1.1345 -0.1499
17241TIP3   OH273137   2.501   3.867  11.552  0.0081  0.1256  0.1255
17241TIP3    H173138   2.541   3.813  11.483  0.7592 -0.9126  1.3382
17241TIP3    H273139   2.462   3.940  11.506  0.0225 -0.8438 -1.4617
17242TIP3   OH273140   5.787   3.454  12.152 -0.7114  0.3263  0.1283
17242TIP3    H173141   5.789   3.370  12.106 -3.2524  0.3554 -0.1059
17242TIP3    H273142   5.841   3.513  12.099 -2.5051  0.0051 -2.1128
17243TIP3   OH273143   4.172   0.490   1.964  0.6536 -0.1670 -0.4763
17243TIP3    H173144   4.191   0.396   1.970 -0.8551 -0.5089 -0.8936
17243TIP3    H273145   4.236   0.531   2.022  0.6673 -1.5474  0.5090
17244TIP3   OH273146   1.749   1.417   3.780  0.6724  0.4586 -0.2295
17244TIP3    H173147   1.836   1.394   3.747  0.6780 -2.1360  1.5030
17244TIP3    H273148   1.765   1.455   3.866  0.1848  1.4037 -0.5499
17245TIP3   OH273149   1.332   0.897   0.483  0.0517  1.1447 -0.3815
17245TIP3    H173150   1.377   0.922   0.402  2.1090  1.4136  0.8343
17245TIP3    H273151   1.339   0.973   0.539 -1.9294  1.1856 -0.1415
17246TIP3   OH273152   6.490   0.592   4.862 -0.0799 -0.1940 -0.2558
17246TIP3    H173153   6.499   0.509   4.815  0.2720 -0.0325 -0.4758
17246TIP3    H273154   6.453   0.568   4.947 -0.4583 -0.5181 -0.5123
17247TIP3   OH273155   4.582   3.387  12.683 -0.0180 -0.1045  0.1617
17247TIP3    H173156   4.510   3.358  12.740  1.2503  0.0174  1.8491
17247TIP3    H273157   4.565   3.480  12.669  0.6573  0.2828  1.8415
17248TIP3   OH273158   6.364   1.669   6.108 -0.3375 -0.7122 -0.4586
17248TIP3    H173159   6.350   1.609   6.035 -1.9422 -1.0453  0.1061
17248TIP3    H273160   6.276   1.687   6.142  0.3539 -0.2203  1.1228
17249TIP3   OH273161   2.168   3.100  14.870 -0.0780  0.5647 -0.3957
17249TIP3    H173162   2.180   3.026  14.929  0.4478  0.5629 -0.5047
17249TIP3    H273163   2.227   3.082  14.797  1.1942  1.8420  0.2942
17250TIP3   OH273164   5.182   1.876  15.663  0.3120  0.0781 -0.7432
17250TIP3    H173165   5.207   1.940  15.596  0.4307  0.0721 -0.7043
17250TIP3    H273166   5.108   1.828  15.624 -1.7796  2.2521  0.4155
17251TIP3   OH273167   5.916   5.331   0.347 -0.0928 -0.5340 -0.3463
17251TIP3    H173168   5.855   5.258   0.351 -2.5926  1.4218 -1.7658
17251TIP3    H273169   5.937   5.340   0.253 -0.3672  1.0091 -0.2740
17252TIP3   OH273170   5.515   4.799   2.823 -0.0212  0.2475  0.1043
17252TIP3    H173171   5.482   4.887   2.802  1.2229  0.5010 -0.8515
17252TIP3    H273172   5.583   4.783   2.758  1.1674 -0.6044  1.5241
17253TIP3   OH273173   5.174   4.753   1.531  0.3719 -0.3416  0.3635
17253TIP3    H173174   5.171   4.711   1.617 -0.8875 -1.0847 -0.0222
17253TIP3    H273175   5.188   4.680   1.470 -0.7060 -0.0848 -0.2101
17254TIP3   OH273176   2.451   5.205  13.614 -0.6108 -0.8673  0.1529
17254TIP3    H173177   2.443   5.148  13.690 -0.0614 -1.2568 -0.0734
17254TIP3    H273178   2.519   5.268  13.638 -1.0073 -0.4878  0.2909
17255TIP3   OH273179   1.263   3.896  12.518 -0.1432 -0.5597  0.0189
17255TIP3    H173180   1.323   3.879  12.445 -1.5659 -0.4821 -1.1749
17255TIP3    H273181   1.276   3.822  12.577  1.0883 -0.5732 -0.2427
17256TIP3   OH273182   1.115   6.582   5.055 -0.2067  0.0067 -0.1593
17256TIP3    H173183   1.042   6.638   5.081 -1.2950 -0.9977 -0.9815
17256TIP3    H273184   1.093   6.553   4.966  2.5555  1.9508 -1.5461
17257TIP3   OH273185   2.471   1.895  11.582  0.2316  0.0384 -0.0190
17257TIP3    H173186   2.550   1.924  11.627 -1.8163  2.5712  2.1495
17257TIP3    H273187   2.403   1.897  11.649 -1.8715 -1.1441 -2.0446
17258TIP3   OH273188   4.528   4.834  14.071  1.1586  0.0791 -0.4425
17258TIP3    H173189   4.546   4.740  14.073 -0.3014 -0.1954  0.3080
17258TIP3    H273190   4.494   4.850  13.983  3.2072  0.2675 -1.2264
17259TIP3   OH273191   3.528   3.689  13.528  0.1670 -0.0739  0.0265
17259TIP3    H173192   3.552   3.663  13.439  0.8681 -1.0699  0.5003
17259TIP3    H273193   3.474   3.767  13.516 -1.6274 -1.4885 -1.3998
17260TIP3   OH273194   3.279   1.186   5.775  0.7008 -0.4243  0.6424
17260TIP3    H173195   3.206   1.228   5.730  0.8540  1.4261  2.0447
17260TIP3    H273196   3.253   1.095   5.784  0.1182 -0.5504 -2.0079
17261TIP3   OH273197   6.056   1.432   1.333 -0.0763  0.0173  0.1346
17261TIP3    H173198   5.963   1.453   1.326 -1.1823 -3.5537  2.6435
17261TIP3    H273199   6.078   1.388   1.251 -1.2636 -1.3740  0.5588
17262TIP3   OH273200   5.280   0.877   5.737 -0.2964  0.0941  0.8318
17262TIP3    H173201   5.341   0.864   5.810 -0.5665 -0.2979  0.9869
17262TIP3    H273202   5.201   0.829   5.762 -0.3326 -0.1792  0.2131
17263TIP3   OH273203   2.508   5.355   3.339 -0.0068  0.5516 -0.9502
17263TIP3    H173204   2.461   5.438   3.346  1.1432  1.0618  0.9247
17263TIP3    H273205   2.444   5.294   3.303 -1.6250  1.6256  0.0517
17264TIP3   OH273206   2.774   5.467  14.502  0.6958 -0.3688  0.3770
17264TIP3    H173207   2.716   5.399  14.536  0.4792  0.0719  0.9010
17264TIP3    H273208   2.747   5.479  14.411 -0.2979  0.1163  0.7318
17265TIP3   OH273209   4.226   5.891  13.636 -0.5180  0.4237  0.3865
17265TIP3    H173210   4.210   5.967  13.580 -1.9594  0.4265  0.7804
17265TIP3    H273211   4.147   5.884  13.689 -0.1862 -1.0592  0.6905
17266TIP3   OH273212   2.775   2.391   6.146  0.0500 -0.3479  0.5077
17266TIP3    H173213   2.730   2.372   6.229  0.0698  0.9821  0.8317
17266TIP3    H273214   2.758   2.314   6.092 -1.6725 -0.3631  1.0248
17267TIP3   OH273215   3.109   3.875   5.091 -0.4976 -0.0503  0.3613
17267TIP3    H173216   3.158   3.796   5.067 -0.4498 -0.5368  1.9786
17267TIP3    H273217   3.018   3.853   5.072 -0.2469  0.4351 -1.5535
17268TIP3   OH273218   3.968   4.424  14.024 -0.5260  0.1284 -0.0348
17268TIP3    H173219   3.876   4.434  14.048 -0.0342  1.8981  1.3067
17268TIP3    H273220   4.009   4.505  14.056  1.7324 -1.2413  0.6269
17269TIP3   OH273221   1.518   6.223  12.415 -0.5575  0.3979 -0.3764
17269TIP3    H173222   1.471   6.218  12.498  0.3018 -2.3657 -0.0016
17269TIP3    H273223   1.469   6.165  12.356  0.9248 -0.5664 -0.6884
17270TIP3   OH273224   0.681   0.745   0.061  0.9359  0.1099  0.6486
17270TIP3    H173225   0.686   0.650   0.073  1.1576  0.1354  0.7557
17270TIP3    H273226   0.722   0.761  -0.024  0.3338  0.0453  0.3415
17271TIP3   OH273227   4.740   0.908   2.062  0.2889 -0.1169 -0.1208
17271TIP3    H173228   4.730   0.952   1.977  0.3974  0.5553  0.2133
17271TIP3    H273229   4.798   0.965   2.112  0.5714 -0.7321  0.2581
17272TIP3   OH273230   0.487   4.406  15.748  0.1178  0.2735 -0.4864
17272TIP3    H173231   0.448   4.418  15.661 -0.8971  1.3784  0.0926
17272TIP3    H273232   0.508   4.313  15.753 -0.4205  0.0820 -1.6737
17273TIP3   OH273233   3.749   6.720   0.102 -0.3011  0.0162  0.3645
17273TIP3    H173234   3.656   6.742   0.100 -0.6861 -1.4627  0.7097
17273TIP3    H273235   3.769   6.690   0.014 -0.2883 -0.1916  0.4385
17274TIP3   OH273236   5.750   1.262   5.307 -0.0082  0.3674 -0.0002
17274TIP3    H173237   5.713   1.303   5.228  1.3436  1.0538 -0.2865
17274TIP3    H273238   5.721   1.319   5.378 -2.0563 -0.7891  0.1444
17275TIP3   OH273239   1.841   2.385   5.349 -0.3399  0.8391  0.2778
17275TIP3    H173240   1.778   2.446   5.385 -0.9491  1.1812 -1.3374
17275TIP3    H273241   1.800   2.352   5.269  0.6940 -0.4114  0.2405
17276TIP3   OH273242   1.323   0.536   3.974 -0.4526 -0.2242 -0.2486
17276TIP3    H173243   1.373   0.533   4.055 -1.1898 -1.3238  0.1758
17276TIP3    H273244   1.378   0.586   3.914  0.5862 -0.3515  0.5799
17277TIP3   OH273245   0.049   5.728   0.064 -0.3255 -0.7165 -0.1799
17277TIP3    H173246   0.011   5.748  -0.021 -0.1165  0.4995  0.0043
17277TIP3    H273247   0.002   5.651   0.094 -3.1488  1.1497  0.3394
17278TIP3   OH273248   1.723   1.343  16.815  0.4042 -0.2056 -0.1918
17278TIP3    H173249   1.750   1.262  16.859  1.0415 -0.3846 -0.9143
17278TIP3    H273250   1.707   1.404  16.887 -0.2554 -1.0233  0.3649
17279TIP3   OH273251   2.925   0.686   5.884  0.2755  0.0017 -0.4292
17279TIP3    H173252   2.838   0.649   5.898 -0.2596  0.7048 -1.7154
17279TIP3    H273253   2.949   0.725   5.968 -1.1304  0.7661 -0.3752
17280TIP3   OH273254   1.588   4.362   1.741  0.7367 -0.0958 -0.2554
17280TIP3    H173255   1.510   4.390   1.693 -0.1691 -2.0098  0.0428
17280TIP3    H273256   1.656   4.424   1.715 -0.8134  1.4659 -0.7023
17281TIP3   OH273257   4.719   3.109  10.529  0.1083  0.2457  0.3351
17281TIP3    H173258   4.671   3.119  10.447 -0.3849  1.8796  0.8202
17281TIP3    H273259   4.717   3.195  10.570  0.6967 -0.4452  1.8819
17282TIP3   OH273260   5.740   6.180   1.900  0.1924 -0.1490  0.1419
17282TIP3    H173261   5.718   6.171   1.808 -1.8009 -0.4176  0.6169
17282TIP3    H273262   5.718   6.271   1.921 -0.2858 -0.3564  0.5676
17283TIP3   OH273263   2.992   4.506   2.029 -0.1991 -0.1109 -0.2113
17283TIP3    H173264   2.993   4.598   2.056  0.0418  0.3249 -1.7082
17283TIP3    H273265   2.899   4.484   2.025 -0.2841  0.3234 -0.7175
17284TIP3   OH273266   5.643   6.097   1.626  0.0236 -0.1033 -0.3073
17284TIP3    H173267   5.635   6.042   1.548 -2.9476  0.8645 -0.7561
17284TIP3    H273268   5.606   6.181   1.599  0.6449  0.7947  1.6186
17285TIP3   OH273269   6.705   2.798  11.273  0.7109 -0.4315 -0.2110
17285TIP3    H173270   6.760   2.734  11.229 -0.8684 -1.7120 -0.3879
17285TIP3    H273271   6.626   2.804  11.218  0.7613  1.5682 -0.1255
17286TIP3   OH273272   6.412   6.459  15.154 -0.0562 -0.0314 -0.2471
17286TIP3    H173273   6.352   6.508  15.211  2.2363  0.3671  1.8989
17286TIP3    H273274   6.363   6.380  15.130 -0.2811 -1.3792  4.2159
17287TIP3   OH273275   0.661   4.916   0.288 -0.7620  0.0435  0.7366
17287TIP3    H173276   0.634   5.007   0.277 -0.9609 -0.2015 -1.0720
17287TIP3    H273277   0.686   4.888   0.200 -0.8782 -1.7084  1.2413
17288TIP3   OH273278   0.376   2.640   5.344  0.5720 -0.3350  0.2189
17288TIP3    H173279   0.395   2.582   5.417  1.5417  0.4234  0.5806
17288TIP3    H273280   0.440   2.711   5.352 -0.7522  0.9144 -0.0723
17289TIP3   OH273281   3.928   5.920  16.417 -0.5403  0.0882  0.3256
17289TIP3    H173282   3.988   5.856  16.379  1.1826  1.2349  1.0491
17289TIP3    H273283   3.902   5.975  16.342 -2.0302 -1.4205 -0.2926
17290TIP3   OH273284   0.873   3.389   1.769 -0.8814 -0.4742 -0.4385
17290TIP3    H173285   0.851   3.332   1.695 -2.6330  1.4419 -1.4206
17290TIP3    H273286   0.863   3.478   1.736  1.0577  0.4641  1.3098
17291TIP3   OH273287   0.615   6.683   1.403 -0.6046  0.4532  0.0211
17291TIP3    H173288   0.644   6.773   1.413 -0.1763  0.3051  0.1253
17291TIP3    H273289   0.521   6.686   1.421 -0.5104  0.7992  0.4608
17292TIP3   OH273290   4.821   5.447  15.856 -0.1534 -0.1650  0.6487
17292TIP3    H173291   4.768   5.421  15.780  1.4300 -1.6416  0.0222
17292TIP3    H273292   4.763   5.504  15.907 -0.8324  1.9144 -2.3042
17293TIP3   OH273293   5.447   3.993  14.405  0.0410 -0.0563 -0.0463
17293TIP3    H173294   5.473   4.060  14.469 -0.8010 -1.1143  1.4452
17293TIP3    H273295   5.418   4.042  14.329  3.4831  1.2194 -0.6295
17294TIP3   OH273296   1.584   5.056   0.209  0.5509  0.0470  0.1905
17294TIP3    H173297   1.627   4.971   0.198  2.2897  0.7057  1.5717
17294TIP3    H273298   1.603   5.081   0.299  0.8283  2.3093 -0.4679
17295TIP3   OH273299   1.470   0.667   6.248 -0.0744 -0.1665 -0.0094
17295TIP3    H173300   1.544   0.720   6.279  1.2817 -1.0050 -1.6854
17295TIP3    H273301   1.475   0.675   6.152 -2.6733  0.4271 -0.1280
17296TIP3   OH273302   6.241   6.710   2.987 -0.0120 -0.0779  1.0310
17296TIP3    H173303   6.191   6.742   3.061 -0.0209  0.7911  0.6603
17296TIP3    H273304   6.205   6.756   2.911 -0.4474 -1.4367  0.3873
17297TIP3   OH273305   5.605   0.428   0.884  0.0169  0.3125  0.3213
17297TIP3    H173306   5.617   0.422   0.789 -1.8519 -1.8736  0.1810
17297TIP3    H273307   5.625   0.519   0.905  0.7756  0.7493 -2.1128
17298TIP3   OH273308   4.291   5.102   3.024  0.0688 -0.2212 -0.0281
17298TIP3    H173309   4.352   5.038   2.988  0.2834  0.5689 -1.0995
17298TIP3    H273310   4.344   5.158   3.081 -0.3373 -1.6866  1.8178
17299TIP3   OH273311   0.396   4.152   5.222  0.0350  0.4279  0.1870
17299TIP3    H173312   0.490   4.169   5.210  0.1014 -0.5555 -0.7669
17299TIP3    H273313   0.352   4.223   5.176  0.3128 -0.7417 -1.9614
17300TIP3   OH273314   1.056   6.145   2.141  0.2919  0.0852 -0.2123
17300TIP3    H173315   1.082   6.119   2.229  0.1226  1.2881  0.2040
17300TIP3    H273316   1.100   6.082   2.083 -1.6399 -2.2894  0.8330
17301TIP3   OH273317   1.499   1.065   5.808 -0.3054  0.1084  0.2747
17301TIP3    H173318   1.479   1.047   5.900 -0.2219 -1.2411  0.0436
17301TIP3    H273319   1.416   1.051   5.762  0.4898 -3.0856 -0.3558
17302TIP3   OH273320   2.620   6.423   1.821 -0.2833 -0.1756 -0.0992
17302TIP3    H173321   2.550   6.458   1.875 -0.0996 -1.4669  1.0134
17302TIP3    H273322   2.576   6.389   1.743 -0.4406  2.6435 -1.3142
17303TIP3   OH273323   3.128   2.722   2.406 -0.2306  0.5635 -0.7711
17303TIP3    H173324   3.218   2.755   2.397 -0.2522  0.3037 -2.0594
17303TIP3    H273325   3.074   2.788   2.362 -0.7030  0.8571  0.2465
17304TIP3   OH273326   1.896   6.485   6.124 -0.3695  0.0866 -0.6604
17304TIP3    H173327   1.878   6.524   6.210  1.3271  0.8440 -0.6261
17304TIP3    H273328   1.901   6.391   6.141  1.5198  0.3569  0.3621
17305TIP3   OH273329   4.693   3.756  11.219  0.8464 -0.1224 -0.2339
17305TIP3    H173330   4.665   3.668  11.196  2.3505 -0.5359 -0.4868
17305TIP3    H273331   4.680   3.761  11.314 -0.5612 -0.1290 -0.4142
17306TIP3   OH273332   5.129   0.043   0.628 -0.3940  0.2255  0.2941
17306TIP3    H173333   5.161  -0.030   0.575  2.0666 -0.5091  2.6816
17306TIP3    H273334   5.088   0.001   0.704  0.4697  1.2903  1.3637
17307TIP3   OH273335   4.005   5.320   1.371 -0.3088  0.3267  0.2833
17307TIP3    H173336   3.927   5.366   1.401 -0.2005  1.6782 -1.4125
17307TIP3    H273337   4.074   5.344   1.432 -0.8141  0.5065  0.7796
17308TIP3   OH273338   4.337   6.675  12.271  0.7531 -0.0917 -0.2959
17308TIP3    H173339   4.428   6.672  12.301  0.1727 -0.2569  1.4833
17308TIP3    H273340   4.330   6.758  12.224  2.5286 -1.2949 -2.8374
17309TIP3   OH273341   4.358   4.211  13.444 -0.2491  0.4026  0.2796
17309TIP3    H173342   4.285   4.268  13.418 -0.9245 -0.5832  0.0118
17309TIP3    H273343   4.328   4.170  13.525  0.8340  1.5364  1.2835
17310TIP3   OH273344   4.289   2.539   1.797 -0.4668  0.2522  0.2782
17310TIP3    H173345   4.287   2.444   1.809 -2.2126  0.2824  0.4201
17310TIP3    H273346   4.283   2.574   1.886  0.2072  0.4901  0.2289
17311TIP3   OH273347   0.735   6.617   3.957  0.1682 -1.1259 -0.1847
17311TIP3    H173348   0.675   6.691   3.954  0.2465 -1.0899 -0.9507
17311TIP3    H273349   0.822   6.657   3.947  0.2065 -1.3304 -0.6387
17312TIP3   OH273350   6.249   6.355  13.179  0.2539  0.5830  0.2209
17312TIP3    H173351   6.202   6.435  13.159 -0.7776 -0.5507 -2.0069
17312TIP3    H273352   6.327   6.358  13.124  1.4546  1.1811  1.9199
17313TIP3   OH273353   2.549   3.386  15.922  0.3997  0.1887 -0.1923
17313TIP3    H173354   2.577   3.461  15.974  0.4547 -0.4834  0.7458
17313TIP3    H273355   2.496   3.424  15.851  1.4429  1.2155 -0.4240
17314TIP3   OH273356   5.829   3.832  15.056 -0.0141  0.7394 -0.0596
17314TIP3    H173357   5.791   3.752  15.018  1.9929 -0.0466 -0.4423
17314TIP3    H273358   5.797   3.902  14.999  0.7939 -0.1365 -1.6411
17315TIP3   OH273359   2.493   6.468   6.201  0.2067  0.2725 -0.3486
17315TIP3    H173360   2.422   6.415   6.165  0.1865 -0.0489  0.1601
17315TIP3    H273361   2.531   6.413   6.270 -0.3501  1.2401  0.7492
17316TIP3   OH273362   4.987   2.511  11.900  0.4801 -0.0389  0.6070
17316TIP3    H173363   5.003   2.478  11.811  0.2150 -0.9024  0.8783
17316TIP3    H273364   5.072   2.545  11.928  0.6114  0.0615  0.0911
17317TIP3   OH273365   3.933   1.797   6.115  0.3175 -0.3614  0.6927
17317TIP3    H173366   3.896   1.709   6.113  0.0693 -0.2602  0.7957
17317TIP3    H273367   3.896   1.836   6.194 -0.9789  0.4452 -0.2801
17318TIP3   OH273368   2.988   4.096  15.226 -0.1716  0.2767  0.4305
17318TIP3    H173369   3.018   4.019  15.275 -2.1726  0.3360  1.8316
17318TIP3    H273370   2.957   4.060  15.143 -0.2069 -0.3370  0.7009
17319TIP3   OH273371   4.398   5.203  14.321  0.2318  0.1026 -0.1021
17319TIP3    H173372   4.414   5.132  14.384 -0.5867 -2.2174 -2.4053
17319TIP3    H273373   4.351   5.269  14.371  2.2084 -0.3505  2.4679
17320TIP3   OH273374   2.813   0.937  12.941  0.2166 -0.2171  0.0947
17320TIP3    H173375   2.748   0.875  12.973 -0.8928  0.5268 -0.6787
17320TIP3    H273376   2.761   1.010  12.907  1.4984  1.1317  0.9714
17321TIP3   OH273377   4.504   5.715   4.852  0.0904  0.3083 -0.5810
17321TIP3    H173378   4.585   5.679   4.817  0.0943  0.7358 -1.0214
17321TIP3    H273379   4.488   5.665   4.933 -0.0509 -0.8702 -1.3171
17322TIP3   OH273380   2.705   0.700  11.143 -0.6678 -0.0029 -0.2110
17322TIP3    H173381   2.775   0.747  11.097 -0.6896  2.1222  1.8709
17322TIP3    H273382   2.654   0.768  11.187 -2.4359 -1.7477  0.5405
17323TIP3   OH273383   1.234   4.709   0.090  0.7786 -0.0420  0.0320
17323TIP3    H173384   1.230   4.644   0.019 -0.7484 -1.5114  1.4132
17323TIP3    H273385   1.170   4.776   0.065 -0.6640 -1.1841  0.5997
17324TIP3   OH273386   0.746   4.766  13.000 -0.6878  0.6806  0.2061
17324TIP3    H173387   0.752   4.670  12.998 -0.4414  0.5716  3.0448
17324TIP3    H273388   0.825   4.796  12.956 -0.5777 -0.4196 -0.3661
17325TIP3   OH273389   3.572   3.446  16.915 -0.0822  0.4807  0.0236
17325TIP3    H173390   3.575   3.352  16.898 -0.6860  0.3719  0.4966
17325TIP3    H273391   3.629   3.459  16.990 -0.1725  0.4593  0.0957
17326TIP3   OH273392   0.328   5.111  15.055 -0.0623  0.8045 -0.5107
17326TIP3    H173393   0.335   5.082  14.964  0.2106  0.4977 -0.3942
17326TIP3    H273394   0.354   5.035  15.107  1.7030  1.5718 -0.2246
17327TIP3   OH273395   4.299   5.675  12.226 -0.8365 -0.2424 -0.3739
17327TIP3    H173396   4.302   5.680  12.322 -2.6390 -1.0026 -0.2577
17327TIP3    H273397   4.272   5.585  12.208  1.4112 -0.7115 -1.6709
17328TIP3   OH273398   6.409   2.298  15.522  0.0603  0.2500 -1.0933
17328TIP3    H173399   6.425   2.247  15.601  2.2932  1.2990 -0.8493
17328TIP3    H273400   6.433   2.239  15.450  1.3151  0.4663 -0.8603
17329TIP3   OH273401   4.309   2.613   0.924  0.4490  0.5626 -0.9886
17329TIP3    H173402   4.261   2.632   1.005  0.6038 -0.2315 -0.7117
17329TIP3    H273403   4.311   2.697   0.878 -0.2193  0.8673 -0.4780
17330TIP3   OH273404   5.690   1.416   5.523 -0.4890  0.2823 -0.2748
17330TIP3    H173405   5.743   1.410   5.603 -1.7083 -1.2414  0.4481
17330TIP3    H273406   5.659   1.506   5.522 -0.9620  0.1512  1.3044
17331TIP3   OH273407   5.668   0.707   5.150 -0.4315 -0.1968 -0.6123
17331TIP3    H173408   5.749   0.679   5.193 -1.9325 -0.1552  2.3868
17331TIP3    H273409   5.651   0.639   5.085  1.5883 -0.6033 -0.7539
17332TIP3   OH273410   2.498   5.622  15.132  0.1469  0.0362  0.4338
17332TIP3    H173411   2.556   5.683  15.086  0.2960 -0.8082 -0.4977
17332TIP3    H273412   2.556   5.577  15.194  0.0941  0.6107  0.9123
17333TIP3   OH273413   1.329   2.495   0.795 -0.1355 -0.0945 -0.1409
17333TIP3    H173414   1.418   2.481   0.761 -0.5546 -0.2710 -1.1983
17333TIP3    H273415   1.314   2.421   0.854  0.3016 -0.2366 -0.2033
17334TIP3   OH273416   3.845   5.759  11.142  0.1284 -0.0362 -0.1498
17334TIP3    H173417   3.760   5.771  11.101  0.5576  0.8602 -0.7925
17334TIP3    H273418   3.875   5.847  11.162  1.7982 -0.1917 -1.7878
17335TIP3   OH273419   1.718   2.975  13.026  0.2189  0.4993  0.1928
17335TIP3    H173420   1.638   3.024  13.007  0.3850  0.5941 -0.2647
17335TIP3    H273421   1.689   2.901  13.079 -0.2360  0.3027 -0.3272
17336TIP3   OH273422   6.574   4.521   0.585  0.1150 -0.3895 -0.3241
17336TIP3    H173423   6.479   4.520   0.573  0.1485  0.7452 -0.8579
17336TIP3    H273424   6.593   4.445   0.640 -1.2578  0.1670  0.9654
17337TIP3   OH273425   5.107   0.324  15.097  0.3958  0.3099  0.2535
17337TIP3    H173426   5.151   0.370  15.025 -1.2495  0.0939 -0.9089
17337TIP3    H273427   5.161   0.344  15.174  2.2277  0.4746 -1.0382
17338TIP3   OH273428   2.762   2.010  17.227  0.7296 -0.0783 -0.0807
17338TIP3    H173429   2.745   1.928  17.180  0.2210  0.3365 -0.6261
17338TIP3    H273430   2.714   2.076  17.177  0.7990  0.4840  0.6014
17339TIP3   OH273431   2.195   5.716  12.592  0.0324 -0.3968  0.2601
17339TIP3    H173432   2.280   5.743  12.627  1.0687 -3.1425 -0.0648
17339TIP3    H273433   2.205   5.718  12.497 -1.1863  2.0362  0.1459
17340TIP3   OH273434   4.588   2.202   1.765 -0.7931 -0.5438  0.4278
17340TIP3    H173435   4.507   2.162   1.797 -1.1942 -0.3595 -0.3600
17340TIP3    H273436   4.647   2.199   1.841 -0.9450 -2.2557  0.4933
17341TIP3   OH273437   4.793   1.878  14.640  0.0707 -0.3478  0.5258
17341TIP3    H173438   4.849   1.933  14.695 -1.4126  0.6621  1.0584
17341TIP3    H273439   4.758   1.938  14.574  2.0584 -1.5994 -1.7377
17342TIP3   OH273440   0.573   1.958  16.135 -0.3321  0.4744 -0.3269
17342TIP3    H173441   0.565   1.958  16.231  0.7738  2.7481 -0.2194
17342TIP3    H273442   0.483   1.968  16.104 -0.6113  0.4877  0.4785
17343TIP3   OH273443   1.860   5.975  16.148 -0.1243  0.2241  0.3312
17343TIP3    H173444   1.904   5.967  16.064  0.5662 -0.7347  0.7762
17343TIP3    H273445   1.768   5.987  16.127  0.0088 -0.3141 -0.5542
17344TIP3   OH273446   6.557   5.005   6.639 -0.4324  0.3215  0.2355
17344TIP3    H173447   6.634   5.054   6.669  0.8075 -0.7649 -1.1050
17344TIP3    H273448   6.521   5.060   6.569  1.6624 -1.1970 -2.0999
17345TIP3   OH273449   4.652   0.825  16.468 -0.5635  0.1781  0.2509
17345TIP3    H173450   4.633   0.842  16.560 -1.6597 -2.0880  0.5001
17345TIP3    H273451   4.660   0.729  16.462 -0.6697  0.2658 -2.0171
17346TIP3   OH273452   2.836   1.374   3.359  0.1907  0.7376  0.7054
17346TIP3    H173453   2.818   1.401   3.449  0.3669  1.6353  0.4771
17346TIP3    H273454   2.930   1.357   3.358  0.4516  2.1221  0.3443
17347TIP3   OH273455   0.511   1.787   2.134  0.8610 -0.1848 -0.0312
17347TIP3    H173456   0.605   1.802   2.135  0.5699  2.0855 -2.1997
17347TIP3    H273457   0.476   1.844   2.202  0.8690  0.3307 -0.4618
17348TIP3   OH273458   0.836   6.181   5.258  0.0513 -0.7454  0.4020
17348TIP3    H173459   0.856   6.251   5.196 -1.0006 -0.4141  0.4249
17348TIP3    H273460   0.908   6.183   5.320  0.7431 -0.5979 -0.3994
17349TIP3   OH273461   4.136   2.134   1.448  0.3950  0.0181  0.1645
17349TIP3    H173462   4.229   2.140   1.426 -0.1831 -1.2766 -2.8865
17349TIP3    H273463   4.098   2.080   1.378 -2.2605 -1.3367  2.5437
17350TIP3   OH273464   4.626   5.873  14.075  0.3365  0.0929 -0.4534
17350TIP3    H173465   4.631   5.784  14.041 -1.7983 -0.8349  1.5554
17350TIP3    H273466   4.647   5.865  14.168 -0.9118  1.5188 -0.0303
17351TIP3   OH273467   2.736   3.433   1.748  0.8667 -1.1141  0.9132
17351TIP3    H173468   2.730   3.364   1.813 -0.1765 -1.8347  0.0839
17351TIP3    H273469   2.645   3.455   1.729  1.1342 -1.3782 -0.7593
17352TIP3   OH273470   5.308   0.504  14.360 -0.6844  0.0129 -0.2621
17352TIP3    H173471   5.293   0.426  14.414 -1.9887 -0.5863 -1.4718
17352TIP3    H273472   5.367   0.558  14.413 -0.5894 -1.3206  1.0380
17353TIP3   OH273473   5.049   1.641   2.074 -0.3065  0.2664  0.5849
17353TIP3    H173474   5.075   1.727   2.107 -0.9665  1.1926 -1.2387
17353TIP3    H273475   5.063   1.646   1.980 -1.5667 -1.1953  0.3008
17354TIP3   OH273476   2.815   2.427  11.908  0.3225 -0.1984  0.0960
17354TIP3    H173477   2.883   2.374  11.866 -0.4573 -0.5225 -0.7628
17354TIP3    H273478   2.734   2.378  11.894 -0.2403  0.6809  0.2509
17355TIP3   OH273479   6.633   1.914  11.787  0.1833 -0.1088  0.5418
17355TIP3    H173480   6.566   1.966  11.742  1.3838  0.1904 -0.9267
17355TIP3    H273481   6.691   1.979  11.827 -0.2062 -0.3693  1.5547
17356TIP3   OH273482   3.774   0.669  12.421  0.0244 -0.2357 -0.3355
17356TIP3    H173483   3.771   0.743  12.482  0.7635 -0.1874 -0.3504
17356TIP3    H273484   3.830   0.699  12.349  1.3923 -1.2558  0.2786
17357TIP3   OH273485   1.932   1.246   5.639 -0.3946  0.1350 -0.2832
17357TIP3    H173486   1.867   1.177   5.656  1.7304 -1.6946  0.6830
17357TIP3    H273487   1.962   1.228   5.550  0.6642 -0.6284  0.2235
17358TIP3   OH273488   3.231   3.502   4.729 -0.3030 -0.1535 -0.0134
17358TIP3    H173489   3.295   3.569   4.705  0.0251 -0.0667  1.0803
17358TIP3    H273490   3.264   3.422   4.687  0.6184 -0.1474  0.6760
17359TIP3   OH273491   4.658   5.014  12.261  0.0404 -0.2710  0.9639
17359TIP3    H173492   4.650   5.033  12.354 -0.7123  1.1127  0.6326
17359TIP3    H273493   4.571   5.031  12.225  0.2035 -1.2536  0.0851
17360TIP3   OH273494   5.155   3.044   2.553 -0.1613  0.0508  0.1630
17360TIP3    H173495   5.090   3.113   2.540  1.0740  1.5761  1.7171
17360TIP3    H273496   5.230   3.090   2.593  1.4419 -1.8460 -0.5931
17361TIP3   OH273497   0.830   2.165  15.702 -0.1814  0.7792  0.2708
17361TIP3    H173498   0.804   2.198  15.616  0.2280  3.5087  1.1214
17361TIP3    H273499   0.775   2.215  15.763  1.4200  0.8371  1.6866
17362TIP3   OH273500   6.420   0.906   1.388  0.1391 -0.4489 -0.7913
17362TIP3    H173501   6.481   0.843   1.349  0.4081 -1.5142  1.3176
17362TIP3    H273502   6.334   0.864   1.380  0.2966 -1.0147  0.4591
17363TIP3   OH273503   0.138   2.994   0.801 -0.0559 -0.2600 -0.6389
17363TIP3    H173504   0.066   2.963   0.856  0.2005  0.3134  0.0300
17363TIP3    H273505   0.215   2.990   0.857  0.4398 -0.8418 -1.3418
17364TIP3   OH273506   4.240   2.927   1.402  0.1795  0.3082 -0.4750
17364TIP3    H173507   4.206   2.924   1.492 -3.4979  0.3204 -1.7696
17364TIP3    H273508   4.267   3.018   1.389  0.9007  0.2675  0.6428
17365TIP3   OH273509   4.379   6.749  13.259 -0.0271 -0.3140 -0.2017
17365TIP3    H173510   4.376   6.826  13.315  1.2981 -0.6983  0.4122
17365TIP3    H273511   4.292   6.744  13.219 -0.7711  0.3108  1.3427
17366TIP3   OH273512   4.023   2.097  11.355 -0.6383 -0.1177  0.1487
17366TIP3    H173513   4.045   2.114  11.264 -0.3503 -1.4512 -0.0330
17366TIP3    H273514   4.096   2.044  11.388 -0.9528 -0.0061  1.0307
17367TIP3   OH273515   4.197   0.458  17.055  0.5444  0.3208  0.2082
17367TIP3    H173516   4.162   0.459  17.144  1.0495 -1.0454  0.4434
17367TIP3    H273517   4.127   0.492  17.001 -0.8603 -1.5513  0.7830
17368TIP3   OH273518   0.380   5.901   5.602  0.0733  0.2780 -0.4290
17368TIP3    H173519   0.302   5.943   5.638  0.4544  1.1569 -0.6090
17368TIP3    H273520   0.452   5.959   5.626  0.7883 -0.9400  0.4380
17369TIP3   OH273521   4.776   5.394  12.305  0.4087  0.0142  0.0476
17369TIP3    H173522   4.725   5.401  12.224  0.4684  1.0613  0.0976
17369TIP3    H273523   4.838   5.323  12.288  1.1012  0.8887 -1.1964
17370TIP3   OH273524   6.452   4.514  14.994 -0.1808 -0.2042  0.2794
17370TIP3    H173525   6.448   4.526  15.089 -1.1380  0.2687  0.1874
17370TIP3    H273526   6.366   4.542  14.963 -0.5373 -2.0811 -0.5298
17371TIP3   OH273527   6.586   3.860  11.842 -0.3393 -0.2354 -0.6219
17371TIP3    H173528   6.657   3.924  11.832 -0.6578  0.0659 -0.9921
17371TIP3    H273529   6.619   3.781  11.799  0.7832 -0.9056  1.4161
17372TIP3   OH273530   3.681   5.892   2.280 -0.1883  0.3557 -0.5877
17372TIP3    H173531   3.615   5.829   2.307  0.7987  0.2687  1.7135
17372TIP3    H273532   3.633   5.973   2.264 -1.2019 -0.4437 -1.7130
17373TIP3   OH273533   5.048   5.777   4.823 -0.0039  0.0979  0.2165
17373TIP3    H173534   5.037   5.697   4.875 -0.9886 -1.2356 -1.9569
17373TIP3    H273535   5.123   5.760   4.767 -1.2347 -0.0218 -1.4562
17374TIP3   OH273536   3.001   1.376   5.130 -0.5169 -0.6838  0.3742
17374TIP3    H173537   2.974   1.468   5.135 -0.4324 -0.6734  0.6404
17374TIP3    H273538   3.087   1.379   5.089 -0.1532 -0.5775  1.1361
17375TIP3   OH273539   2.986   3.390   4.801  0.3506  0.1233 -0.1284
17375TIP3    H173540   3.055   3.447   4.767  0.0880 -0.8256 -2.3593
17375TIP3    H273541   3.024   3.302   4.794 -1.3115 -0.4674 -1.9960
17376TIP3   OH273542   5.760   6.384  13.819  0.6658  0.4755  0.1937
17376TIP3    H173543   5.782   6.470  13.853  1.8623 -0.5460  2.0866
17376TIP3    H273544   5.737   6.332  13.896  0.5258 -1.0580 -0.8396
17377TIP3   OH273545   1.909   5.511  11.424  0.4367  0.2763  0.0982
17377TIP3    H173546   1.997   5.528  11.457  0.2193  0.0717  0.7932
17377TIP3    H273547   1.851   5.533  11.497  0.0499 -1.7762  0.4185
17378TIP3   OH273548   6.140   3.251   1.906 -0.3302  0.3986  0.2204
17378TIP3    H173549   6.160   3.235   1.813 -1.3522  0.9140 -0.1018
17378TIP3    H273550   6.097   3.337   1.906  0.9179  1.0442  1.3515
17379TIP3   OH273551   1.432   4.274   1.513 -0.2397  0.3979 -0.6214
17379TIP3    H173552   1.353   4.310   1.474 -0.8195 -1.1978 -0.9705
17379TIP3    H273553   1.490   4.258   1.438  0.4448  1.5944 -0.3635
17380TIP3   OH273554   4.330   6.382   2.569  0.4579  0.4445 -0.0728
17380TIP3    H173555   4.296   6.310   2.622 -3.2554  1.8568 -0.3755
17380TIP3    H273556   4.334   6.346   2.480 -0.4351  0.2645 -0.0509
17381TIP3   OH273557   2.019   5.120  11.107 -0.1153 -0.6210 -0.4103
17381TIP3    H173558   1.971   5.185  11.056 -0.5823 -1.2096 -0.7232
17381TIP3    H273559   2.060   5.064  11.042  1.4059  0.1697 -0.1474
17382TIP3   OH273560   1.909   4.878  14.484  0.0452 -0.1441 -0.0932
17382TIP3    H173561   1.854   4.857  14.560 -0.6959 -1.0671 -0.8729
17382TIP3    H273562   1.910   4.974  14.481  0.0111 -0.1063  1.0275
17383TIP3   OH273563   5.803   3.888   3.686 -0.2175  0.4755  0.1704
17383TIP3    H173564   5.824   3.795   3.690  3.3355  1.2186  0.5315
17383TIP3    H273565   5.790   3.914   3.777 -1.4680  0.2726  0.0476
17384TIP3   OH273566   1.646   4.181  16.849  0.0492  0.1430 -0.2574
17384TIP3    H173567   1.686   4.254  16.800 -0.6955  0.0138 -1.0656
17384TIP3    H273568   1.684   4.103  16.809 -0.8301  0.0266 -0.8792
17385TIP3   OH273569   1.596   5.195  16.246  0.0121 -0.1143 -0.0457
17385TIP3    H173570   1.593   5.244  16.328 -1.1899 -2.7698  1.5934
17385TIP3    H273571   1.650   5.118  16.267 -1.4716 -1.5266 -1.3012
17386TIP3   OH273572   3.290   2.368  16.151 -0.6368  0.0141  0.1280
17386TIP3    H173573   3.324   2.296  16.097  1.5615  0.1795  1.2237
17386TIP3    H273574   3.250   2.324  16.227 -1.9661 -0.1481 -0.6630
17387TIP3   OH273575   2.993   1.659   4.996 -0.4530  0.3868 -0.1638
17387TIP3    H173576   3.057   1.687   5.061  2.0235  1.8029 -3.0763
17387TIP3    H273577   2.967   1.740   4.952 -2.5180 -0.4711 -0.5728
17388TIP3   OH273578   2.528   3.968   4.042 -0.4154  0.1343 -0.8476
17388TIP3    H173579   2.568   3.944   3.958  0.9755 -1.3003  0.1934
17388TIP3    H273580   2.563   4.054   4.062 -0.4621  0.3226 -1.5622
17389TIP3   OH273581   0.909   5.451  11.457 -0.0869 -0.2012  0.7832
17389TIP3    H173582   0.871   5.400  11.385  0.6244  0.5887 -0.1557
17389TIP3    H273583   0.851   5.433  11.531 -0.8640 -0.9799  0.0046
17390TIP3   OH273584   1.624   3.482   2.627 -0.5748  0.4806 -0.1992
17390TIP3    H173585   1.665   3.500   2.542 -0.3861 -1.0488 -0.4511
17390TIP3    H273586   1.535   3.457   2.606 -1.2767  2.4773  0.2568
17391TIP3   OH273587   0.213   3.806  11.256  0.5655 -0.2054  0.1991
17391TIP3    H173588   0.121   3.829  11.266  1.3412  3.4311 -0.2789
17391TIP3    H273589   0.255   3.838  11.336  1.6265 -0.6610 -0.1656
17392TIP3   OH273590   6.483   4.608  10.706  0.4148 -0.0878 -0.3090
17392TIP3    H173591   6.526   4.613  10.621 -0.7215  1.5335 -0.8290
17392TIP3    H273592   6.539   4.661  10.764  0.2917  0.1996 -0.4525
17393TIP3   OH273593   1.243   4.343   1.096  0.6134 -0.2119 -0.3249
17393TIP3    H173594   1.258   4.331   1.190 -0.7281  0.4917 -0.0030
17393TIP3    H273595   1.169   4.404   1.092 -0.8409 -2.0071 -1.8196
17394TIP3   OH273596   2.474   5.912   1.492  0.0971 -0.1457  0.1999
17394TIP3    H173597   2.388   5.938   1.459  1.1582  1.5361 -1.3340
17394TIP3    H273598   2.524   5.888   1.414  1.5907  0.6272  0.8821
17395TIP3   OH273599   6.028   3.884  16.658  0.3169 -0.2315 -0.0612
17395TIP3    H173600   6.118   3.867  16.631  0.5802 -0.6791  1.0477
17395TIP3    H273601   5.991   3.796  16.673  0.2918  0.0018  1.3312
17396TIP3   OH273602   5.569   4.659  12.814  0.1483 -0.1066 -0.1042
17396TIP3    H173603   5.520   4.595  12.865 -0.9158  0.2836 -0.6316
17396TIP3    H273604   5.649   4.613  12.788  0.1779 -0.6625  0.9590
17397TIP3   OH273605   5.114   3.599  14.865  0.4236  0.4031 -0.6662
17397TIP3    H173606   5.062   3.564  14.793  1.9788 -4.0271  0.2281
17397TIP3    H273607   5.057   3.590  14.942  1.2811 -1.4369 -0.2231
17398TIP3   OH273608   3.011   6.277   4.118 -0.5289 -0.3742  0.0035
17398TIP3    H173609   2.936   6.266   4.178 -1.7922 -0.0194 -1.4753
17398TIP3    H273610   2.972   6.310   4.037  1.1908 -0.6452 -0.9568
17399TIP3   OH273611   1.334   2.643  12.205  0.1716  0.0784 -0.0938
17399TIP3    H173612   1.310   2.584  12.277  2.2707 -0.4205  0.2228
17399TIP3    H273613   1.306   2.597  12.126 -1.0534  0.0840  0.3279
17400TIP3   OH273614   4.704   4.364   1.170  0.4196 -0.3191  0.2644
17400TIP3    H173615   4.698   4.387   1.078  1.5329 -0.6675  0.1047
17400TIP3    H273616   4.723   4.446   1.215  1.7796 -0.4579 -0.0279
17401TIP3   OH273617   1.459   5.874   3.453 -0.5351 -0.0958  0.3360
17401TIP3    H173618   1.522   5.944   3.470  0.1937 -0.5729 -0.3388
17401TIP3    H273619   1.507   5.812   3.399 -1.7604 -0.2115 -0.6431
17402TIP3   OH273620   0.804   1.061  11.318  0.0325 -0.3894  0.4882
17402TIP3    H173621   0.869   1.124  11.285 -0.5922  0.0452  0.0672
17402TIP3    H273622   0.854   0.981  11.335  0.5694 -0.2471 -0.4035
17403TIP3   OH273623   2.349   4.778   2.683 -0.0951  0.0265  0.0302
17403TIP3    H173624   2.416   4.817   2.739  0.3010  1.1558 -1.1895
17403TIP3    H273625   2.327   4.847   2.621 -0.9620 -1.0018 -0.8277
17404TIP3   OH273626   5.980   2.396   4.821  0.2426  0.0011  0.0049
17404TIP3    H173627   5.922   2.337   4.870  0.1482  0.5685  0.5725
17404TIP3    H273628   5.932   2.478   4.814 -0.1943 -0.3887 -1.9677
17405TIP3   OH273629   3.058   2.020   5.050  0.6252  0.2361 -0.1912
17405TIP3    H173630   3.130   1.958   5.050 -0.4246 -1.0074  1.4619
17405TIP3    H273631   3.098   2.104   5.026  2.4096 -0.6533 -0.3597
17406TIP3   OH273632   5.634   0.069  16.728  0.2055  0.0304  0.7848
17406TIP3    H173633   5.576   0.144  16.733 -1.2215 -1.0392  0.7442
17406TIP3    H273634   5.673   0.074  16.641 -0.3174  0.4011  0.5708
17407TIP3   OH273635   0.225   1.566  11.570  0.5263 -0.2353  0.5772
17407TIP3    H173636   0.165   1.579  11.644 -0.7703 -1.0888 -0.3099
17407TIP3    H273637   0.178   1.508  11.511  1.9408 -0.3125 -0.4907
17408TIP3   OH273638   4.645   0.530   4.100 -0.0120  0.6402 -0.1508
17408TIP3    H173639   4.591   0.527   4.021  0.3982 -0.1114 -0.4093
17408TIP3    H273640   4.719   0.472   4.080  0.6807  1.3484  0.3472
17409TIP3   OH273641   6.598   5.308   5.834 -0.4825 -0.4115  0.4089
17409TIP3    H173642   6.574   5.340   5.747 -1.5360 -3.1012 -0.3549
17409TIP3    H273643   6.539   5.354   5.894  0.5819  1.8235 -0.2243
17410TIP3   OH273644   3.927   2.961  13.212  0.0491 -0.4671 -0.2969
17410TIP3    H173645   3.835   2.989  13.212  0.6509  1.5596  0.2261
17410TIP3    H273646   3.939   2.919  13.297  0.2625  1.6090  0.7476
17411TIP3   OH273647   6.623   0.183  15.090 -0.0648 -0.6820  0.4858
17411TIP3    H173648   6.601   0.090  15.087 -1.3569 -0.4109  1.1181
17411TIP3    H273649   6.579   0.215  15.169  0.2134  0.5080  0.1657
17412TIP3   OH273650   2.129   5.070   2.989  0.7881  0.3498  0.3495
17412TIP3    H173651   2.074   5.096   3.063  0.2028 -0.2496  0.1223
17412TIP3    H273652   2.148   4.978   3.005 -0.4185 -0.1321 -0.9420
17413TIP3   OH273653   6.255   5.583  10.919  0.0900  0.3862 -0.5595
17413TIP3    H173654   6.190   5.590  10.849 -1.7658 -2.2713  0.8256
17413TIP3    H273655   6.292   5.496  10.909 -0.2467 -0.0684  1.7667
17414TIP3   OH273656   4.292   6.705  16.561 -0.2341  0.4025 -0.0952
17414TIP3    H173657   4.341   6.787  16.569 -0.7110  0.6496  0.3204
17414TIP3    H273658   4.277   6.695  16.467 -1.1415  1.3772 -0.0631
17415TIP3   OH273659   0.596   3.447  15.008  0.9199 -0.6362 -0.0289
17415TIP3    H173660   0.613   3.355  14.987 -1.7555 -1.4278  1.0913
17415TIP3    H273661   0.501   3.457  14.998  0.9346  1.5372  1.6269
17416TIP3   OH273662   3.870   5.329   2.615 -0.4443  0.7960 -0.5129
17416TIP3    H173663   3.896   5.408   2.567 -1.3888  0.6729 -1.2556
17416TIP3    H273664   3.867   5.356   2.706  2.6660  0.7055 -0.3293
17417TIP3   OH273665   3.863   4.379   5.506  0.5812  0.5789 -0.3687
17417TIP3    H173666   3.923   4.435   5.554  0.6852  0.0326  0.1300
17417TIP3    H273667   3.781   4.382   5.556  0.4668  0.5840 -0.5515
17418TIP3   OH273668   0.403   6.095  13.564 -0.3799  0.3888 -0.3396
17418TIP3    H173669   0.319   6.084  13.609 -0.2636 -1.3619 -0.5165
17418TIP3    H273670   0.406   6.023  13.501  1.7777 -0.2436  0.4486
17419TIP3   OH273671   4.804   0.730   0.613  0.2782  0.4818  0.0932
17419TIP3    H173672   4.779   0.689   0.531  0.4379  2.4268 -0.9514
17419TIP3    H273673   4.880   0.679   0.643 -0.2357 -0.6844 -0.5808
17420TIP3   OH273674   0.462   4.540  14.464 -0.1426 -0.1022 -0.3614
17420TIP3    H173675   0.449   4.600  14.391 -0.5607 -1.0259 -1.0665
17420TIP3    H273676   0.394   4.564  14.528 -0.3181  0.1619 -0.6479
17421TIP3   OH273677   5.323   0.209   4.020  0.0516  0.3821  0.2709
17421TIP3    H173678   5.290   0.297   4.003  0.4909  0.4127 -0.4434
17421TIP3    H273679   5.395   0.198   3.958 -0.1723 -0.5809  0.1734
17422TIP3   OH273680   6.233   3.355   0.623  0.5080 -0.7634  0.1402
17422TIP3    H173681   6.286   3.276   0.614 -1.6376 -2.1691 -0.5408
17422TIP3    H273682   6.186   3.363   0.540 -0.0066  0.7178  0.5476
17423TIP3   OH273683   3.784   4.543  13.790  0.1616 -0.0496 -0.8461
17423TIP3    H173684   3.697   4.554  13.830  0.5524 -0.0863  0.0224
17423TIP3    H273685   3.845   4.572  13.857  0.8283 -0.0402 -1.4533
17424TIP3   OH273686   3.113   3.300  11.667  0.1972 -0.0838 -0.5378
17424TIP3    H173687   3.089   3.392  11.678  0.3966 -0.1469  0.4468
17424TIP3    H273688   3.051   3.267  11.602 -0.4446  0.5184 -0.2378
17425TIP3   OH273689   0.080   4.653  15.301 -0.1308 -0.1688  0.2812
17425TIP3    H173690   0.050   4.576  15.252  2.0121 -0.9360  0.1501
17425TIP3    H273691   0.071   4.726  15.239  0.8328 -0.8388 -0.6609
17426TIP3   OH273692   1.832   2.007  14.846 -0.1233 -0.0173 -0.2533
17426TIP3    H173693   1.835   2.015  14.751 -1.0394  1.5641 -0.1569
17426TIP3    H273694   1.924   2.006  14.873  0.1508 -1.0713 -1.1851
17427TIP3   OH273695   6.182   3.308   0.078 -0.0470 -0.1857  0.1764
17427TIP3    H173696   6.212   3.340  -0.007 -0.4236  0.6611  0.3572
17427TIP3    H273697   6.238   3.353   0.141 -2.0804  1.9512  0.5560
17428TIP3   OH273698   2.852   1.662   5.778 -0.0278 -0.4834 -0.1221
17428TIP3    H173699   2.832   1.744   5.734 -0.1036  0.8931  2.3817
17428TIP3    H273700   2.767   1.619   5.789 -0.1816 -0.1341  0.0435
17429TIP3   OH273701   2.844   1.172   1.529  0.1391 -0.0463 -0.6081
17429TIP3    H173702   2.898   1.141   1.602  0.8463 -0.4590 -1.3013
17429TIP3    H273703   2.906   1.210   1.467 -0.5184  0.8331 -0.7366
17430TIP3   OH273704   2.429   2.855  16.546 -0.0633  0.3758 -0.3481
17430TIP3    H173705   2.340   2.819  16.548  0.6235 -1.3368 -0.0553
17430TIP3    H273706   2.434   2.902  16.463 -0.6305 -1.1466 -1.2602
17431TIP3   OH273707   3.017   4.629  16.664 -0.0760  0.0035 -0.1241
17431TIP3    H173708   2.986   4.617  16.574 -0.6719  2.8782 -0.3352
17431TIP3    H273709   3.001   4.721  16.683  0.4770 -0.4595  2.7885
17432TIP3   OH273710   5.278   3.613   5.479  0.0278 -0.5412  0.1671
17432TIP3    H173711   5.323   3.697   5.464  0.0772 -0.8106 -1.2209
17432TIP3    H273712   5.192   3.638   5.511 -0.8099  0.1407 -2.4481
17433TIP3   OH273713   5.493   3.213  16.003 -0.9243  0.4630  0.4564
17433TIP3    H173714   5.507   3.290  16.058  0.1848 -0.1259  1.0152
17433TIP3    H273715   5.469   3.249  15.917 -1.9005  1.3984  1.1059
17434TIP3   OH273716   0.251   3.642  13.305 -0.2598 -0.3542  0.2110
17434TIP3    H173717   0.228   3.568  13.361 -3.0907  0.6061  0.3594
17434TIP3    H273718   0.341   3.623  13.277 -0.7920 -3.6542  0.5410
17435TIP3   OH273719   3.186   2.250   5.847 -0.1181 -0.4263  0.2075
17435TIP3    H173720   3.273   2.274   5.815 -0.1863  0.4535  0.6688
17435TIP3    H273721   3.200   2.168   5.895  0.5496  0.0051  0.7601
17436TIP3   OH273722   4.156   4.110  17.063 -0.3059  0.1471  0.4605
17436TIP3    H173723   4.098   4.042  17.030  0.3044 -0.9886  1.6946
17436TIP3    H273724   4.099   4.184  17.082 -1.2152 -0.6501  0.8179
17437TIP3   OH273725   2.572   0.467   2.393  0.1301 -0.1303 -0.4733
17437TIP3    H173726   2.602   0.545   2.345  0.8989  0.1574  0.4561
17437TIP3    H273727   2.595   0.485   2.484 -0.3377 -1.1457 -0.1499
17438TIP3   OH273728   0.529   6.314  15.320  0.0179  0.1489 -0.1508
17438TIP3    H173729   0.589   6.375  15.362  0.2955 -0.6392  0.6266
17438TIP3    H273730   0.444   6.333  15.360  0.3311 -0.7801  0.9991
17439TIP3   OH273731   2.203   3.769  17.123 -0.0336 -0.7793  0.6257
17439TIP3    H173732   2.173   3.691  17.172  0.8457 -2.2683 -1.1459
17439TIP3    H273733   2.250   3.733  17.048  0.8484  1.5036  0.0560
17440TIP3   OH273734   2.214   2.227   3.118  0.4479 -0.0458 -0.5734
17440TIP3    H173735   2.128   2.268   3.109 -0.2793 -1.5945 -0.7731
17440TIP3    H273736   2.249   2.225   3.029  0.9448  1.1125 -0.4095
17441TIP3   OH273737   2.072   3.054  12.495 -0.2283  0.0041  0.1875
17441TIP3    H173738   2.103   3.136  12.535  0.2379  0.7622 -1.6775
17441TIP3    H273739   2.139   2.990  12.518 -0.4560  0.1906  1.4299
17442TIP3   OH273740   1.576   0.796  11.975  0.5662  0.2891 -0.3110
17442TIP3    H173741   1.670   0.801  11.994  1.1229  0.4542 -2.8948
17442TIP3    H273742   1.546   0.887  11.976 -0.2657  0.0539  3.5118
17443TIP3   OH273743   4.804   0.222   4.773  0.7346 -0.0759 -0.0369
17443TIP3    H173744   4.737   0.188   4.714  0.0281 -1.2985  1.4423
17443TIP3    H273745   4.772   0.201   4.860  3.0735 -0.7471  0.6987
17444TIP3   OH273746   0.240   2.938   4.892 -0.4084 -0.3185  0.1290
17444TIP3    H173747   0.330   2.967   4.907 -0.8837  0.1724  2.2252
17444TIP3    H273748   0.238   2.848   4.923 -0.1036 -1.0557 -1.9695
17445TIP3   OH273749   2.076   6.438   2.387 -0.3041  0.3811 -0.4846
17445TIP3    H173750   2.093   6.347   2.360  0.5817  0.8320 -1.4598
17445TIP3    H273751   1.993   6.433   2.435  1.4674 -1.5179  2.6065
17446TIP3   OH273752   3.097   1.824   0.162  0.1658  0.3173  0.2354
17446TIP3    H173753   3.141   1.828   0.077 -2.0613  1.1231 -0.9375
17446TIP3    H273754   3.102   1.732   0.187  3.0533  0.5025  0.4654
17447TIP3   OH273755   4.909   6.394   0.378  0.1032 -0.1612  0.6052
17447TIP3    H173756   4.947   6.445   0.450 -2.4103 -0.5756  2.2761
17447TIP3    H273757   4.879   6.461   0.316  0.1777  0.2787  1.0346
17448TIP3   OH273758   1.997   3.022   3.110 -0.4987  0.0637  0.1737
17448TIP3    H173759   1.927   3.080   3.137 -1.7481 -1.3970  0.1182
17448TIP3    H273760   2.067   3.036   3.174 -1.7311 -0.1568  1.5813
17449TIP3   OH273761   0.244   5.518   4.899  0.2465 -0.0351  0.3743
17449TIP3    H173762   0.277   5.532   4.988 -2.3390 -0.8185  1.4968
17449TIP3    H273763   0.172   5.456   4.910 -1.8809  1.9318 -1.9482
17450TIP3   OH273764   4.005   0.158   2.507 -0.5941 -0.2005  0.1524
17450TIP3    H173765   4.100   0.161   2.492 -0.6231 -0.2471 -0.0446
17450TIP3    H273766   3.972   0.099   2.439 -0.7361 -0.3700  0.3674
17451TIP3   OH273767   4.487   3.870   3.779  0.3335 -0.0750 -0.4743
17451TIP3    H173768   4.419   3.937   3.774 -1.5191 -1.9564 -1.8000
17451TIP3    H273769   4.561   3.906   3.730 -1.5736 -0.0108 -3.4141
17452TIP3   OH273770   2.323   1.652   4.175  0.2945 -0.2535 -0.1815
17452TIP3    H173771   2.245   1.610   4.211  0.1134 -0.9087 -1.3064
17452TIP3    H273772   2.349   1.715   4.242 -1.4020  0.2239  0.0602
17453TIP3   OH273773   4.657   4.000   1.395 -0.0828 -0.3311  0.2963
17453TIP3    H173774   4.624   3.926   1.345 -2.0845 -0.3428  1.5571
17453TIP3    H273775   4.722   3.963   1.454  0.4744 -0.7179 -0.5513
17454TIP3   OH273776   1.685   5.459   5.219  0.5598 -0.1315 -0.1570
17454TIP3    H173777   1.668   5.551   5.240  0.1389 -0.2022 -0.1736
17454TIP3    H273778   1.691   5.457   5.124  1.8423  0.0866 -0.0831
17455TIP3   OH273779   3.148   3.364   2.101  0.2281 -0.2379  0.5176
17455TIP3    H173780   3.086   3.365   2.028 -0.6611 -0.4658  1.2457
17455TIP3    H273781   3.230   3.335   2.063  0.2972  1.6297 -0.7805
17456TIP3   OH273782   5.445   2.177  12.391 -0.3629  0.4468  0.7393
17456TIP3    H173783   5.428   2.083  12.394  0.8032  0.1130 -1.9132
17456TIP3    H273784   5.460   2.201  12.483  1.1545 -2.2866  1.2614
17457TIP3   OH273785   1.863   5.635   5.782 -1.0473  0.2569  0.6931
17457TIP3    H173786   1.789   5.574   5.785 -1.6658  0.8826 -1.3903
17457TIP3    H273787   1.921   5.604   5.851 -0.7396 -3.5074 -1.1140
17458TIP3   OH273788   4.392   4.798   0.246  0.7296  0.3168 -0.3193
17458TIP3    H173789   4.440   4.762   0.321  1.8282  1.0695 -0.6536
17458TIP3    H273790   4.455   4.854   0.201 -0.0210  0.1442 -1.6241
17459TIP3   OH273791   1.448   0.095  13.930  0.1853  0.8926  0.2090
17459TIP3    H173792   1.428   0.003  13.947  1.0346  0.8763  1.1930
17459TIP3    H273793   1.490   0.094  13.844  1.2320  0.1998  0.7123
17460TIP3   OH273794   0.640   0.891  12.851  0.3511  0.5578  0.0137
17460TIP3    H173795   0.625   0.968  12.796  1.0215  1.1093  0.6107
17460TIP3    H273796   0.733   0.894  12.873  0.3071 -0.2320  0.3218
17461TIP3   OH273797   6.563   3.397   5.745 -0.7699 -0.1670  0.3739
17461TIP3    H173798   6.478   3.426   5.777 -1.6513 -0.1129 -1.9106
17461TIP3    H273799   6.618   3.390   5.823 -2.4300  1.2738  1.6907
17462TIP3   OH273800   3.258   0.580  17.190 -0.0453 -0.2455 -0.2079
17462TIP3    H173801   3.311   0.533  17.254  1.5195  0.5419 -0.8925
17462TIP3    H273802   3.308   0.573  17.108  0.5121  2.9929 -0.2229
17463TIP3   OH273803   0.795   1.292   5.851 -0.1563 -0.1119 -0.1714
17463TIP3    H173804   0.750   1.295   5.935  2.7419 -1.0565  1.4783
17463TIP3    H273805   0.737   1.241   5.794 -2.0207  0.3093  1.2937
17464TIP3   OH273806   6.232   3.458  14.408 -0.4351  0.3324 -0.0678
17464TIP3    H173807   6.187   3.425  14.330 -0.4090  1.6801 -0.6795
17464TIP3    H273808   6.256   3.380  14.457 -3.3616 -0.4338  0.2458
17465TIP3   OH273809   5.040   0.089  16.182 -0.3458  0.4070 -0.4058
17465TIP3    H173810   5.118   0.034  16.191 -0.1547  0.4054 -1.9660
17465TIP3    H273811   5.051   0.156  16.250  0.5887 -0.0939 -0.0444
17466TIP3   OH273812   2.920   2.573  15.454 -0.1511 -0.1589 -0.5840
17466TIP3    H173813   2.996   2.526  15.419 -0.1775 -0.5843 -0.0855
17466TIP3    H273814   2.870   2.505  15.500  0.5761  0.6347  1.4243
17467TIP3   OH273815   5.179   2.341   1.509 -0.0320  0.2580 -0.2484
17467TIP3    H173816   5.088   2.322   1.488  0.0443  0.3345 -0.6404
17467TIP3    H273817   5.190   2.306   1.598 -0.2339 -0.4286 -0.4905
17468TIP3   OH273818   3.546   2.811  10.674 -0.0295  0.5053 -0.0579
17468TIP3    H173819   3.510   2.848  10.754 -0.6749  0.6740 -0.4284
17468TIP3    H273820   3.490   2.736  10.655  1.3726 -0.7774  0.7866
17469TIP3   OH273821   6.505   4.266  15.531 -0.1095 -0.6302  0.6363
17469TIP3    H173822   6.532   4.185  15.575  0.1684 -1.2416 -0.6454
17469TIP3    H273823   6.457   4.236  15.453  1.2329  0.4304 -0.6138
17470TIP3   OH273824   2.686   2.948   0.476 -0.5252  0.1557 -0.0580
17470TIP3    H173825   2.617   2.991   0.527  1.3236  1.4757  1.3593
17470TIP3    H273826   2.685   2.857   0.507 -1.3641  0.2403  0.1968
17471TIP3   OH273827   1.557   5.167  13.730  0.2175  0.5902 -0.0069
17471TIP3    H173828   1.462   5.179  13.724 -0.0274 -1.4481 -0.4469
17471TIP3    H273829   1.587   5.173  13.639  0.3195 -0.1999 -0.0269
17472TIP3   OH273830   5.572   5.318  12.482 -0.3678  0.0936  0.3272
17472TIP3    H173831   5.616   5.239  12.453  0.0748  0.3946  0.1837
17472TIP3    H273832   5.510   5.338  12.412 -0.7449 -0.3309  0.5332
17473TIP3   OH273833   6.594   3.506  14.585 -0.1558 -0.5706 -0.2127
17473TIP3    H173834   6.528   3.448  14.548  0.6382 -2.3935  1.0783
17473TIP3    H273835   6.549   3.553  14.655 -1.1627  1.4529 -2.1784
17474TIP3   OH273836   4.475   1.628   2.568 -0.4926 -0.6868  0.3365
17474TIP3    H173837   4.400   1.655   2.622  1.5335  1.3017  2.2678
17474TIP3    H273838   4.550   1.633   2.628  1.8388  1.4572 -2.6241
17475TIP3   OH273839   4.165   5.502   4.373 -0.0788  0.0898  0.1093
17475TIP3    H173840   4.237   5.450   4.338  0.0085 -0.9577  1.7890
17475TIP3    H273841   4.127   5.545   4.296  1.0763 -0.9079 -1.0449
17476TIP3   OH273842   2.286   2.993   2.292  0.1726 -0.3532  0.5391
17476TIP3    H173843   2.298   3.003   2.386  0.1250 -2.3994  0.7979
17476TIP3    H273844   2.199   2.956   2.282  0.0335  0.1881 -0.3366
17477TIP3   OH273845   4.673   1.323   5.878  0.0318  1.0181  0.4046
17477TIP3    H173846   4.728   1.400   5.862 -0.9110  1.5232 -0.4780
17477TIP3    H273847   4.642   1.334   5.968  1.1207  0.8788  0.8120
17478TIP3   OH273848   0.641   1.695   4.802 -0.3530  0.2239 -0.0201
17478TIP3    H173849   0.704   1.675   4.872 -0.4706  0.7212  0.2341
17478TIP3    H273850   0.591   1.615   4.791  0.9912 -0.5067 -0.9157
17479TIP3   OH273851   3.134   2.092   4.647 -0.0264 -0.3600  0.7955
17479TIP3    H173852   3.066   2.024   4.648  0.3808 -0.7736  2.4263
17479TIP3    H273853   3.201   2.059   4.707  0.6872  0.9724  0.7464
17480TIP3   OH273854   5.750   3.617   6.429 -0.0467 -0.3164  0.3893
17480TIP3    H173855   5.744   3.707   6.399 -1.4735 -0.6947 -0.4774
17480TIP3    H273856   5.838   3.611   6.468  0.8094  0.9054 -1.2965
17481TIP3   OH273857   3.229   6.052   3.000 -0.5793  0.4200 -0.5534
17481TIP3    H173858   3.163   6.095   3.054 -0.8849  0.8267 -1.2396
17481TIP3    H273859   3.215   6.087   2.912 -1.0248 -1.2886 -1.1870
17482TIP3   OH273860   2.985   5.306  11.498 -0.3134 -0.1484 -0.2196
17482TIP3    H173861   3.067   5.319  11.451 -0.6112 -0.7950 -0.9349
17482TIP3    H273862   2.929   5.259  11.436 -1.7514  1.6008 -0.2921
17483TIP3   OH273863   4.325   1.250   5.587  0.1276 -0.3916  0.6839
17483TIP3    H173864   4.394   1.184   5.576  0.9939  0.5157  0.5908
17483TIP3    H273865   4.365   1.317   5.642 -1.2020 -0.5815  1.9089
17484TIP3   OH273866   1.832   1.273   6.648 -0.0213  0.3437  0.1448
17484TIP3    H173867   1.843   1.221   6.728  0.8839  0.2399 -0.0412
17484TIP3    H273868   1.911   1.256   6.597 -1.1099 -0.5061 -1.3006
17485TIP3   OH273869   4.457   1.807  16.152  0.2051  0.8216  0.1123
17485TIP3    H173870   4.457   1.869  16.079  0.3882  0.9700  0.2392
17485TIP3    H273871   4.518   1.844  16.215 -1.2334  1.5777  1.1034
17486TIP3   OH273872   5.273   1.710  13.583 -0.3105  0.3409  0.2649
17486TIP3    H173873   5.337   1.759  13.636 -1.0918  0.4171  1.1463
17486TIP3    H273874   5.199   1.696  13.642 -1.0826  0.1921 -0.7324
17487TIP3   OH273875   5.648   6.618  16.036 -0.0402  0.4470  0.4035
17487TIP3    H173876   5.674   6.557  16.105  0.2178  0.2717  0.1516
17487TIP3    H273877   5.714   6.607  15.968 -0.9027 -0.1728 -0.3357
17488TIP3   OH273878   2.487   1.134  13.249 -0.0593 -0.5234  0.3085
17488TIP3    H173879   2.551   1.064  13.260  1.2400  0.6045  0.1270
17488TIP3    H273880   2.506   1.195  13.320 -1.8462 -0.8495  1.0867
17489TIP3   OH273881   0.503   1.962  15.813 -0.1579  0.1240 -0.4296
17489TIP3    H173882   0.522   2.004  15.729  0.2823  0.9719  0.0885
17489TIP3    H273883   0.453   2.027  15.862 -0.5150 -0.4149 -0.0717
17490TIP3   OH273884   4.431   3.396   4.759 -0.2580  0.1340 -0.5197
17490TIP3    H173885   4.345   3.435   4.775  0.0592  1.7446 -2.6247
17490TIP3    H273886   4.493   3.460   4.794  0.1032 -2.1257  3.2737
17491TIP3   OH273887   4.018   5.185   3.671 -0.2552  0.3961  0.2917
17491TIP3    H173888   4.071   5.110   3.644 -1.7365 -0.2615 -0.8762
17491TIP3    H273889   4.070   5.261   3.645  0.2478 -0.2394 -0.6108
17492TIP3   OH273890   3.782   4.665   2.940 -0.0664  0.4285 -0.0639
17492TIP3    H173891   3.857   4.617   2.905  0.1451  1.0232 -0.4338
17492TIP3    H273892   3.754   4.614   3.015  0.5332  0.0476 -0.0959
17493TIP3   OH273893   1.899   2.655  14.278  0.4342  0.8472 -0.2144
17493TIP3    H173894   1.887   2.564  14.304  1.9037  0.6454 -0.1776
17493TIP3    H273895   1.830   2.671  14.214  0.0366 -0.2304 -0.0631
17494TIP3   OH273896   5.364   4.339  12.672 -0.3725 -0.9670  0.1056
17494TIP3    H173897   5.297   4.376  12.615  0.4785 -0.4370 -0.5638
17494TIP3    H273898   5.425   4.296  12.613  0.6338 -0.2329  0.5887
17495TIP3   OH273899   3.413   3.162   1.128  0.6659  0.5343 -0.2581
17495TIP3    H173900   3.360   3.179   1.051  1.8859  0.6157 -1.0924
17495TIP3    H273901   3.431   3.068   1.126  1.7674  0.7501 -0.7808
17496TIP3   OH273902   6.224   5.104   5.981 -0.1501 -0.3012  0.3922
17496TIP3    H173903   6.220   5.141   5.893  1.3590  0.1748  0.5131
17496TIP3    H273904   6.235   5.179   6.039  1.5928 -0.8031  0.7437
17497TIP3   OH273905   4.112   1.582   3.726 -0.1117 -0.1449  0.1324
17497TIP3    H173906   4.100   1.500   3.774  0.5894 -0.2728  0.0972
17497TIP3    H273907   4.135   1.647   3.793  1.2767 -0.4130 -0.0565
17498TIP3   OH273908   3.373   0.646   3.535 -0.5773  0.0012 -0.6558
17498TIP3    H173909   3.414   0.722   3.576 -2.8927  0.3379  1.1596
17498TIP3    H273910   3.433   0.573   3.551  1.1830  1.2196 -1.5524
17499TIP3   OH273911   3.267   2.524  10.902  0.2041 -0.1304 -0.2281
17499TIP3    H173912   3.361   2.517  10.916  0.3081  2.7292  0.8462
17499TIP3    H273913   3.228   2.481  10.978  0.6723  0.6803  0.4757
17500TIP3   OH273914   6.281   0.973  14.218 -0.2604 -0.3122  1.0497
17500TIP3    H173915   6.301   1.067  14.215  0.9401 -0.5144  2.1109
17500TIP3    H273916   6.352   0.932  14.169  0.3980 -0.8302  2.4260
17501TIP3   OH273917   5.655   1.826   1.980  0.4099 -0.3369 -0.0771
17501TIP3    H173918   5.612   1.770   2.045  1.9283  0.7094  1.9050
17501TIP3    H273919   5.602   1.906   1.980  0.8893 -0.0119  0.5250
17502TIP3   OH273920   2.907   3.394  14.436  0.1855  0.0375 -0.0484
17502TIP3    H173921   2.901   3.434  14.523 -1.2518  1.0846 -0.6151
17502TIP3    H273922   2.817   3.391  14.405  0.7825  0.4875 -1.8604
17503TIP3   OH273923   0.704   3.526  11.639 -0.4887  0.3261  0.9286
17503TIP3    H173924   0.795   3.498  11.629 -0.0997  0.7034  3.0921
17503TIP3    H273925   0.656   3.445  11.655 -0.3872  0.2062  0.6143
17504TIP3   OH273926   4.071   2.753  14.597  0.1168 -0.0685  0.4509
17504TIP3    H173927   4.057   2.807  14.519  2.0724 -0.4986 -0.2373
17504TIP3    H273928   3.999   2.689  14.595 -0.2572  0.3719 -0.5993
17505TIP3   OH273929   0.295   5.251  11.916 -0.4159  0.5732 -0.2525
17505TIP3    H173930   0.283   5.346  11.911  0.0295  0.5827 -1.1355
17505TIP3    H273931   0.301   5.223  11.825  1.1726 -0.0900  0.0476
17506TIP3   OH273932   5.221   1.745  14.334 -0.3822 -0.8329  0.6701
17506TIP3    H173933   5.144   1.719  14.385 -0.3395 -3.1270 -0.3692
17506TIP3    H273934   5.198   1.833  14.301 -2.4241 -1.3378  0.6464
17507TIP3   OH273935   3.983   4.069  12.106  0.7683  0.2137 -0.2471
17507TIP3    H173936   3.968   4.147  12.161  1.4168 -0.4551  0.9092
17507TIP3    H273937   4.078   4.067  12.093  0.6956 -0.0759 -0.7244
17508TIP3   OH273938   4.601   6.320  16.951 -0.0476  0.6395  0.2378
17508TIP3    H173939   4.683   6.357  16.986  0.5481 -0.3970 -0.0479
17508TIP3    H273940   4.574   6.256  17.017 -0.3225  0.5688  0.0535
17509TIP3   OH273941   4.700   2.171   2.015 -0.1489 -0.5983 -0.1698
17509TIP3    H173942   4.752   2.099   2.050  1.2323  0.0488 -0.8171
17509TIP3    H273943   4.619   2.170   2.066  0.6051 -1.4844  1.0441
17510TIP3   OH273944   3.846   2.273   4.441 -0.1730  0.3581  0.4852
17510TIP3    H173945   3.823   2.261   4.534 -0.9198  0.5492  0.3313
17510TIP3    H273946   3.848   2.184   4.406 -0.0556  0.2958  0.6495
17511TIP3   OH273947   6.185   0.056   0.764 -0.7050 -0.0865  0.4929
17511TIP3    H173948   6.215  -0.010   0.700 -0.6234 -1.2226  1.6857
17511TIP3    H273949   6.129   0.007   0.824  0.9927  0.5024  2.6010
17512TIP3   OH273950   2.644   0.217  11.314 -1.3549  0.2286  0.5986
17512TIP3    H173951   2.647   0.128  11.279 -1.0395  0.4672  0.0034
17512TIP3    H273952   2.720   0.260  11.274 -1.2425  0.6316  1.2445
17513TIP3   OH273953   6.180   1.647  11.733 -0.1829  0.1014  0.6648
17513TIP3    H173954   6.264   1.607  11.757 -0.4848 -0.3021  1.0368
17513TIP3    H273955   6.150   1.596  11.657  0.5027  1.0275 -0.2546
17514TIP3   OH273956   2.053   4.882   4.502 -0.3601  0.2188  0.5830
17514TIP3    H173957   2.043   4.976   4.512 -1.0322  0.2175 -0.0228
17514TIP3    H273958   2.100   4.854   4.581 -0.2281  1.0425  0.7997
17515TIP3   OH273959   3.067   5.589   2.993 -0.1197 -0.1601 -0.2089
17515TIP3    H173960   3.105   5.677   2.996 -1.0197  0.2141  0.5433
17515TIP3    H273961   3.123   5.540   2.933  0.7074  0.7768 -0.2031
17516TIP3   OH273962   1.892   4.045   0.871  0.2758  0.1068  0.1592
17516TIP3    H173963   1.825   3.978   0.868 -0.6974  1.0812 -0.1565
17516TIP3    H273964   1.844   4.128   0.862  1.4328  0.8535  0.7319
17517TIP3   OH273965   1.557   1.748  16.747  0.7487 -0.3516  0.3584
17517TIP3    H173966   1.648   1.726  16.727  0.4469 -1.8601  0.6374
17517TIP3    H273967   1.505   1.686  16.697 -0.1158 -0.2757  1.1432
17518TIP3   OH273968   4.314   0.622   2.998  0.4009  0.2866 -0.5248
17518TIP3    H173969   4.222   0.629   2.974  0.1965 -0.5049 -0.0042
17518TIP3    H273970   4.323   0.534   3.034  0.9729  0.9744  1.0758
17519TIP3   OH273971   5.139   2.620  16.625 -0.4696  0.0606  0.1413
17519TIP3    H173972   5.215   2.603  16.681 -0.0154 -0.9034 -0.7402
17519TIP3    H273973   5.067   2.637  16.686 -0.2845 -2.2422  1.0536
17520TIP3   OH273974   6.748   1.075   4.037 -0.1483  0.1731 -0.5037
17520TIP3    H173975   6.690   1.152   4.032 -0.4799  0.0209  0.8520
17520TIP3    H273976   6.826   1.107   4.082 -1.2920 -0.8652  2.2974
17521TIP3   OH273977   2.648   1.538  11.095 -0.2445 -0.0980 -0.7914
17521TIP3    H173978   2.718   1.504  11.151 -0.1960  0.2086 -0.6633
17521TIP3    H273979   2.567   1.509  11.138 -0.2723  2.0594  0.7245
17522TIP3   OH273980   3.072   2.219   4.115  0.2888 -0.3331 -0.0278
17522TIP3    H173981   3.033   2.243   4.199  1.6302  1.7858  0.0069
17522TIP3    H273982   2.999   2.222   4.053 -0.4574 -0.6603  0.8307
17523TIP3   OH273983   3.871   4.209  16.241 -0.0845  0.1909 -0.6597
17523TIP3    H173984   3.832   4.223  16.155  1.2597 -0.0316 -1.3110
17523TIP3    H273985   3.959   4.247  16.234 -0.5494  1.6837  1.1275
17524TIP3   OH273986   1.681   2.565  11.938 -0.1671 -0.2637 -0.0260
17524TIP3    H173987   1.652   2.655  11.921  2.0756  0.6491  0.8089
17524TIP3    H273988   1.676   2.557  12.033 -2.0616 -1.6574 -0.2091
17525TIP3   OH273989   6.085   4.543   3.943  0.2326  0.1440 -0.0243
17525TIP3    H173990   5.999   4.551   3.902 -0.1813  0.4475  0.9038
17525TIP3    H273991   6.138   4.612   3.902 -0.9664  2.2544  1.9448
17526TIP3   OH273992   3.149   6.678   3.317  0.4151 -0.8411 -0.5223
17526TIP3    H173993   3.105   6.652   3.398 -0.4838  2.1143 -0.0048
17526TIP3    H273994   3.124   6.611   3.254 -0.1341 -2.3482  1.2583
17527TIP3   OH273995   3.615   2.442  12.164 -0.7707 -0.1144  0.4274
17527TIP3    H173996   3.595   2.360  12.209 -0.7104  0.1209  0.8846
17527TIP3    H273997   3.538   2.497  12.179 -1.1308 -0.3583 -0.5187
17528TIP3   OH273998   2.511   4.444   1.555 -0.5521 -0.7880  0.2346
17528TIP3    H173999   2.546   4.403   1.634 -0.5938  0.0114  0.6709
17528TIP3    H274000   2.588   4.480   1.510 -0.4335 -1.9394 -0.5013
17529TIP3   OH274001   4.891   1.772  17.064  0.2273 -0.1379 -0.0673
17529TIP3    H174002   4.885   1.812  16.977 -0.3535 -0.0869 -0.0090
17529TIP3    H274003   4.863   1.842  17.124  1.9021  0.2482  0.2769
17530TIP3   OH274004   4.359   6.581   1.256  0.1863  0.4548 -0.1141
17530TIP3    H174005   4.276   6.553   1.219  0.2517 -0.4402  0.4007
17530TIP3    H274006   4.398   6.637   1.188  0.1475 -0.8659 -1.2393
17531TIP3   OH274007   2.971   6.102  16.347  0.0056 -0.5419 -0.0983
17531TIP3    H174008   3.035   6.065  16.286  2.0878  0.7042  1.2616
17531TIP3    H274009   3.024   6.149  16.411 -2.2926  0.3529  1.1903
17532TIP3   OH274010   0.801   5.796   3.422  0.7219  0.1676 -0.1386
17532TIP3    H174011   0.834   5.873   3.377 -0.3880 -0.3111 -1.8293
17532TIP3    H274012   0.706   5.811   3.428  0.1941 -1.9865 -2.3964
17533TIP3   OH274013   2.638   0.331   0.846 -0.1298 -0.3109  0.8229
17533TIP3    H174014   2.636   0.265   0.915  1.2480  1.9149  3.0745
17533TIP3    H274015   2.722   0.318   0.802 -0.2454 -0.6221  0.6960
17534TIP3   OH274016   5.508   5.379  16.090 -0.3136 -0.4285  0.5885
17534TIP3    H174017   5.439   5.418  16.036  2.3251  1.2178 -1.7911
17534TIP3    H274018   5.491   5.411  16.178 -2.8515 -0.4902  0.1616
17535TIP3   OH274019   5.321   4.073  11.432  0.3522 -0.8407  0.5496
17535TIP3    H174020   5.309   4.167  11.445  2.1474 -0.5518  0.2104
17535TIP3    H274021   5.248   4.033  11.479 -0.0962  0.6941  1.1883
17536TIP3   OH274022   2.949   3.339  15.557  0.6399 -0.3915 -0.3478
17536TIP3    H174023   2.993   3.256  15.574  0.6961  0.1952  2.7047
17536TIP3    H274024   2.873   3.337  15.615  1.1457  2.0393  0.4439
17537TIP3   OH274025   4.069   6.376  15.074 -0.4596 -0.1443  0.0034
17537TIP3    H174026   3.991   6.391  15.127  1.7977  0.8408  3.1763
17537TIP3    H274027   4.107   6.463  15.061  0.4063 -0.6626 -1.0434
17538TIP3   OH274028   5.959   3.060   4.042  0.0533  0.2223 -0.7513
17538TIP3    H174029   5.905   3.118   4.096 -0.3167  0.1568 -1.0510
17538TIP3    H274030   6.030   3.116   4.009  2.1292 -0.4062  2.3622
17539TIP3   OH274031   6.329   0.229   2.875 -0.9849  0.3025 -0.7776
17539TIP3    H174032   6.355   0.174   2.950 -1.9269 -1.1441 -1.4952
17539TIP3    H274033   6.408   0.234   2.821 -1.3716 -1.7799 -1.5614
17540TIP3   OH274034   6.076   5.668   2.135  0.1826  0.0511  0.0973
17540TIP3    H174035   6.073   5.763   2.144  0.5242  0.1699 -1.0612
17540TIP3    H274036   6.124   5.652   2.054 -0.6195 -1.0983 -0.1688
17541TIP3   OH274037   6.184   2.790   4.582  0.2909 -0.9459  0.5396
17541TIP3    H174038   6.241   2.820   4.653 -0.6264 -0.5967  1.1447
17541TIP3    H274039   6.221   2.829   4.503  0.9257 -0.7710  0.9196
17542TIP3   OH274040   1.711   3.398   1.623  0.1324  0.2211  0.1412
17542TIP3    H174041   1.758   3.320   1.594  0.2333  0.3208  0.0362
17542TIP3    H274042   1.619   3.378   1.607  0.3239  1.1539 -2.3788
17543TIP3   OH274043   1.355   6.397   2.160  0.1648 -0.7557  0.3499
17543TIP3    H174044   1.333   6.476   2.110 -0.5553 -1.3132 -0.2298
17543TIP3    H274045   1.274   6.376   2.207  0.6719 -0.5589  1.3028
17544TIP3   OH274046   4.554   4.944  15.291 -0.9012  0.1575 -0.3043
17544TIP3    H174047   4.514   4.996  15.361 -0.5881  1.0382 -0.7807
17544TIP3    H274048   4.634   4.991  15.268  0.7789 -1.9491  1.0819
17545TIP3   OH274049   2.667   4.939  16.650 -0.1624 -0.4856  0.4491
17545TIP3    H174050   2.679   4.904  16.562 -1.2089  0.7142 -0.1811
17545TIP3    H274051   2.695   4.868  16.708  0.7116 -1.2140 -0.8419
17546TIP3   OH274052   5.738   2.809   0.335  0.3298  0.3046 -0.0990
17546TIP3    H174053   5.722   2.716   0.355 -0.0415  0.5244  0.6220
17546TIP3    H274054   5.822   2.828   0.378  0.0052  0.5223  0.4318
17547TIP3   OH274055   3.982   0.160   5.236 -0.4090  0.0667 -0.6049
17547TIP3    H174056   4.008   0.182   5.326  0.7434 -2.1463 -0.3783
17547TIP3    H274057   3.935   0.078   5.244  0.9123 -0.8626 -2.1927
17548TIP3   OH274058   1.936   2.913  12.817 -0.6941 -0.1008 -0.0172
17548TIP3    H174059   1.974   2.844  12.872 -0.8762  0.2241  0.5129
17548TIP3    H274060   1.850   2.930  12.856 -0.4569  0.7561  0.1340
17549TIP3   OH274061   5.256   0.589  15.953  0.6526  0.0162 -0.3638
17549TIP3    H174062   5.311   0.529  15.903  2.1118  1.1253 -0.1182
17549TIP3    H274063   5.193   0.622  15.888  0.4042 -1.0988 -0.6967
17550TIP3   OH274064   0.733   3.222   3.870 -0.0584 -0.2746 -0.3830
17550TIP3    H174065   0.680   3.213   3.950  0.6954  0.6264  0.2390
17550TIP3    H274066   0.736   3.134   3.833 -2.2036 -0.2974 -0.5723
17551TIP3   OH274067   1.583   1.435   0.728  0.0786 -0.7063  0.8489
17551TIP3    H174068   1.548   1.482   0.804 -0.4707  2.9662 -1.5263
17551TIP3    H274069   1.677   1.453   0.730 -0.2289  1.2564 -0.4621
17552TIP3   OH274070   4.586   0.523   5.790 -0.5828  0.3777  0.1979
17552TIP3    H174071   4.559   0.517   5.882  0.8732  0.3352  0.6274
17552TIP3    H274072   4.523   0.585   5.752 -0.5775  1.1933  1.4627
17553TIP3   OH274073   2.366   0.781  11.080  0.2305 -0.5934  0.4919
17553TIP3    H174074   2.425   0.787  11.006  1.5170 -1.4002  1.4333
17553TIP3    H274075   2.380   0.693  11.116 -0.3079 -0.1928  1.7285
17554TIP3   OH274076   5.445   4.733  11.676 -0.1042 -0.8358 -0.0298
17554TIP3    H174077   5.445   4.645  11.637 -0.7432 -1.0418  0.4278
17554TIP3    H274078   5.381   4.727  11.747 -0.7423  0.2250 -0.5090
17555TIP3   OH274079   0.421   0.719  15.560 -0.0452 -0.3137 -0.1805
17555TIP3    H174080   0.446   0.787  15.497  0.9554 -1.1157 -0.6646
17555TIP3    H274081   0.436   0.637  15.513 -2.3322 -0.8612 -0.0078
17556TIP3   OH274082   5.230   2.642  15.506  0.1026 -0.0772 -0.5139
17556TIP3    H174083   5.179   2.625  15.427  0.1460 -0.0507 -0.5475
17556TIP3    H274084   5.311   2.593  15.495 -0.6386 -1.4971  0.3116
17557TIP3   OH274085   4.528   6.690   2.611 -0.2560  0.1829  0.3796
17557TIP3    H174086   4.573   6.701   2.695 -0.9753  1.3427  0.6275
17557TIP3    H274087   4.542   6.774   2.565 -0.5003 -0.1689 -0.3500
17558TIP3   OH274088   4.415   1.649  15.650 -0.1129 -0.1324  0.6381
17558TIP3    H174089   4.486   1.608  15.699 -0.1153 -0.9447 -0.0318
17558TIP3    H274090   4.440   1.639  15.558 -0.6675  0.3620  0.4299
17559TIP3   OH274091   5.677   3.009  11.469  0.6054  0.9494 -0.3017
17559TIP3    H174092   5.689   3.103  11.482 -0.0604  0.9288  0.5288
17559TIP3    H274093   5.598   2.988  11.519  2.1052 -0.5064  1.5372
17560TIP3   OH274094   3.621   2.213  12.302 -0.2037 -0.0433  0.1492
17560TIP3    H174095   3.675   2.226  12.380 -0.8515  1.2316  0.3854
17560TIP3    H274096   3.559   2.145  12.327 -0.9962  1.0042  1.0487
17561TIP3   OH274097   4.000   1.892   2.006 -0.2964  0.3026 -0.0319
17561TIP3    H174098   3.912   1.864   1.983 -0.1920 -1.8950  2.0505
17561TIP3    H274099   3.997   1.906   2.101  1.4834  0.5780  0.0083
17562TIP3   OH274100   2.424   2.063  13.365 -0.1471  0.3178 -0.0478
17562TIP3    H174101   2.401   1.995  13.428  0.0987  2.1650  2.1122
17562TIP3    H274102   2.502   2.029  13.320 -0.5944 -1.2200  0.3143
17563TIP3   OH274103   1.426   4.365   2.594 -0.0149  0.7902  0.0443
17563TIP3    H174104   1.494   4.365   2.661 -0.3777 -1.2317  0.4354
17563TIP3    H274105   1.406   4.273   2.580 -1.1519  1.2755 -1.6258
17564TIP3   OH274106   6.709   3.174  11.234 -0.1117  0.7782  0.2431
17564TIP3    H174107   6.737   3.105  11.174 -1.9715  0.3691 -0.1982
17564TIP3    H274108   6.656   3.232  11.181  1.4229  2.5700  0.6192
17565TIP3   OH274109   4.929   1.879   1.756  0.4542  0.4484 -0.6194
17565TIP3    H174110   4.952   1.963   1.716  1.8036  0.4045  0.0734
17565TIP3    H274111   4.966   1.813   1.696  0.1571  0.3507 -0.6979
17566TIP3   OH274112   3.935   3.347   0.658  0.1293 -0.2246 -0.2187
17566TIP3    H174113   3.863   3.336   0.720  0.0693  0.3377 -0.1847
17566TIP3    H274114   3.892   3.357   0.573  0.2299 -1.5485 -0.4387
17567TIP3   OH274115   6.219   0.982   5.164  0.0683 -0.3099  1.2453
17567TIP3    H174116   6.180   0.899   5.135 -0.1429  0.7692 -1.6296
17567TIP3    H274117   6.306   0.983   5.126  0.6863  0.0717  2.6356
17568TIP3   OH274118   0.169   1.499   2.594 -0.1017 -0.3068 -0.2832
17568TIP3    H174119   0.143   1.585   2.560  0.1476  0.7343  2.0712
17568TIP3    H274120   0.254   1.514   2.634 -0.5895 -1.3665  1.1861
17569TIP3   OH274121   1.370   6.244   2.530  0.6516 -0.6013  0.7285
17569TIP3    H174122   1.445   6.297   2.503  0.3782  0.0014  1.1396
17569TIP3    H274123   1.369   6.252   2.625  0.3204 -0.9519  0.7528
17570TIP3   OH274124   3.620   6.239  15.101 -0.2629  0.3368 -0.4196
17570TIP3    H174125   3.620   6.332  15.126 -0.7600  0.3711 -0.5453
17570TIP3    H274126   3.708   6.224  15.068  0.5169  0.2033  1.6440
17571TIP3   OH274127   4.637   1.346   4.555  0.3892 -0.2303  0.4565
17571TIP3    H174128   4.625   1.352   4.461  1.7219  0.6617  0.3312
17571TIP3    H274129   4.586   1.270   4.581  1.7147 -1.7587 -1.2946
17572TIP3   OH274130   2.048   5.273   4.386 -0.5144  0.1986  0.0254
17572TIP3    H174131   1.973   5.259   4.444 -0.4178  1.3368  0.4309
17572TIP3    H274132   2.074   5.364   4.401  1.7648 -0.5551  0.8174
17573TIP3   OH274133   1.747   2.577   3.710  0.0986 -0.0041  0.2092
17573TIP3    H174134   1.819   2.629   3.746 -0.8297  0.9753  0.6928
17573TIP3    H274135   1.775   2.487   3.721  0.8325  0.3411  1.3077
17574TIP3   OH274136   0.196   6.637  16.221 -0.4609 -0.1502  0.4839
17574TIP3    H174137   0.109   6.674  16.205  0.0440  0.8431 -0.0029
17574TIP3    H274138   0.219   6.666  16.309 -0.0494  0.7406  0.0875
17575TIP3   OH274139   3.643   4.441  11.897  0.3825 -0.3994  0.1760
17575TIP3    H174140   3.668   4.394  11.976  0.8652 -0.4156  0.0122
17575TIP3    H274141   3.675   4.530  11.911  0.6167 -0.4453 -0.0762
17576TIP3   OH274142   1.695   1.447   0.226  0.2234  0.1493 -0.2170
17576TIP3    H174143   1.637   1.427   0.299 -1.5651 -2.0453 -2.1583
17576TIP3    H274144   1.707   1.364   0.181  1.9446  1.2928 -1.9388
17577TIP3   OH274145   5.900   3.508  10.844 -0.0817 -0.1039 -0.9388
17577TIP3    H174146   5.826   3.476  10.895 -1.0750  0.4129 -2.0216
17577TIP3    H274147   5.931   3.432  10.796  0.6036 -0.5012  0.1174
17578TIP3   OH274148   0.126   5.059   0.025 -0.5915 -0.9261 -0.7404
17578TIP3    H174149   0.120   4.970  -0.009 -1.6590 -1.0354 -0.3000
17578TIP3    H274150   0.129   5.114  -0.053 -2.4225 -1.2108 -1.0340
17579TIP3   OH274151   5.835   5.094  10.726 -0.4253  0.0482 -0.1011
17579TIP3    H174152   5.829   5.033  10.799  0.1916 -0.0055 -0.0940
17579TIP3    H274153   5.831   5.180  10.767  0.2732  0.0207  0.0294
17580TIP3   OH274154   5.655   6.178   2.334  0.3978 -0.0383  0.0309
17580TIP3    H174155   5.715   6.115   2.296 -1.2185 -1.0944 -0.8449
17580TIP3    H274156   5.695   6.203   2.418  3.2311  1.1491 -1.6152
17581TIP3   OH274157   2.830   0.835   3.474  0.1114 -0.3856 -0.2348
17581TIP3    H174158   2.886   0.788   3.412 -0.2433  1.7353 -2.2457
17581TIP3    H274159   2.741   0.812   3.447 -0.0342  0.0508 -0.1294
17582TIP3   OH274160   5.575   5.141   5.060  0.0982 -0.1051 -0.5098
17582TIP3    H174161   5.544   5.058   5.022  0.3345 -0.0455 -0.8338
17582TIP3    H274162   5.586   5.199   4.984 -1.4186  0.6773 -0.1630
17583TIP3   OH274163   3.681   6.415   2.296  0.0783  0.1340  0.0308
17583TIP3    H174164   3.732   6.363   2.359 -0.0786 -0.3973 -0.2780
17583TIP3    H274165   3.643   6.485   2.348  1.3206  0.6842  0.2311
17584TIP3   OH274166   2.425   0.642   2.035  0.0432 -0.4142 -0.0265
17584TIP3    H174167   2.397   0.552   2.019  0.0555 -0.4675  0.2521
17584TIP3    H274168   2.521   0.637   2.035  0.0547 -0.2800 -0.7036
17585TIP3   OH274169   5.669   6.767   3.062  0.1588 -0.1813  0.8206
17585TIP3    H174170   5.706   6.812   2.985 -1.4395  0.2148  0.2715
17585TIP3    H274171   5.741   6.767   3.125  1.0110  0.8830 -0.1067
17586TIP3   OH274172   2.196   0.735  16.513  0.2608  0.6928  0.1112
17586TIP3    H174173   2.280   0.765  16.478  0.9637 -2.1955 -0.8147
17586TIP3    H274174   2.153   0.693  16.438 -0.7308 -0.4172  1.2848
17587TIP3   OH274175   4.469   6.529  15.852 -0.4424 -0.5648  0.0822
17587TIP3    H174176   4.403   6.459  15.848 -1.4327  0.1952  2.3235
17587TIP3    H274177   4.424   6.602  15.895  0.2919  1.8267 -3.0277
17588TIP3   OH274178   5.304   2.182   4.986  0.0434 -0.1644  0.0484
17588TIP3    H174179   5.361   2.258   5.000  0.9052 -0.7198 -0.3663
17588TIP3    H274180   5.254   2.204   4.908  0.0081  0.1432  0.1556
17589TIP3   OH274181   1.221   0.554   3.661  0.7815 -0.0190  0.4451
17589TIP3    H174182   1.312   0.527   3.675  0.7252 -0.8184 -0.6899
17589TIP3    H274183   1.198   0.518   3.576 -0.6881 -0.0313  0.8316
17590TIP3   OH274184   0.105   3.104   2.764 -0.5930  0.1581 -0.3342
17590TIP3    H174185   0.101   3.041   2.836 -1.1496 -1.9022 -2.1155
17590TIP3    H274186   0.142   3.055   2.691  0.4855  2.3634 -1.3451
17591TIP3   OH274187   6.661   4.162   6.284 -0.2135  0.2289  0.0197
17591TIP3    H174188   6.607   4.144   6.207 -1.0146  0.3176  0.5620
17591TIP3    H274189   6.620   4.113   6.355  0.3074  0.4481  0.4780
17592TIP3   OH274190   4.927   1.057   3.233 -0.4319 -0.0504 -0.1680
17592TIP3    H174191   4.839   1.087   3.208 -0.7569 -0.2463  0.7227
17592TIP3    H274192   4.984   1.087   3.162 -1.5444 -1.8186 -1.8818
17593TIP3   OH274193   2.269   3.854  10.868 -0.0093  0.1895 -0.4997
17593TIP3    H174194   2.175   3.871  10.857 -0.0264  0.3090 -0.1535
17593TIP3    H274195   2.283   3.769  10.828 -0.4725 -0.3402  0.4644
17594TIP3   OH274196   1.287   1.403   2.428 -0.1660 -0.6304  0.2267
17594TIP3    H174197   1.196   1.400   2.400 -0.1677 -2.5083  0.3235
17594TIP3    H274198   1.295   1.483   2.480 -1.8701 -0.7084  0.6221
17595TIP3   OH274199   5.732   1.210   1.648  0.1571  1.1602 -0.3012
17595TIP3    H174200   5.822   1.231   1.622  0.3224  0.2763 -0.4789
17595TIP3    H274201   5.689   1.295   1.658  0.0806  1.5525 -3.4745
17596TIP3   OH274202   5.510   5.781   4.234  0.0535 -0.4279  0.3231
17596TIP3    H174203   5.585   5.787   4.294  0.4944 -1.6685 -0.0635
17596TIP3    H274204   5.550   5.785   4.147 -0.7882  3.7054  0.0323
17597TIP3   OH274205   0.305   1.550  16.688 -0.2203  0.3939  0.6608
17597TIP3    H174206   0.274   1.497  16.762  1.4678  1.8048  2.4149
17597TIP3    H274207   0.396   1.523  16.676  0.1584  1.7295  0.5000
17598TIP3   OH274208   3.698   5.883   3.403  0.2917 -0.0408  0.3590
17598TIP3    H174209   3.674   5.928   3.484  2.7663  0.9666  0.5675
17598TIP3    H274210   3.689   5.790   3.424  1.2687  0.2017  1.9079
17599TIP3   OH274211   2.273   1.841  11.041 -0.0918 -0.2514 -0.5067
17599TIP3    H174212   2.248   1.912  11.100  2.2353 -1.2210  1.7139
17599TIP3    H274213   2.198   1.781  11.043 -1.0966  0.9827 -0.5933
17600TIP3   OH274214   2.963   1.109   0.726  0.4019 -0.4647 -0.2348
17600TIP3    H174215   2.900   1.045   0.694  2.4439 -1.7977 -1.7480
17600TIP3    H274216   2.971   1.090   0.820 -1.1596 -0.5005 -0.1018
17601TIP3   OH274217   3.248   3.344  17.045 -0.6724  0.0975  0.9452
17601TIP3    H174218   3.255   3.319  16.953 -1.1361 -0.6577  1.1119
17601TIP3    H274219   3.335   3.330  17.081  0.0989  2.4777  0.1185
17602TIP3   OH274220   4.887   3.696  14.984 -0.0102 -0.2928  0.5669
17602TIP3    H174221   4.825   3.655  15.044 -0.1021  0.6826  1.1462
17602TIP3    H274222   4.833   3.746  14.923  0.0731 -1.3703 -0.4158
17603TIP3   OH274223   3.603   5.093  11.255 -0.1194 -0.0701  0.3287
17603TIP3    H174224   3.618   5.160  11.322  1.1907  0.0960 -0.1057
17603TIP3    H274225   3.540   5.034  11.294  2.5437 -1.4359  2.7954
17604TIP3   OH274226   2.406   5.042  15.188 -0.5127 -0.0764  0.1284
17604TIP3    H174227   2.480   5.077  15.138 -0.7434  2.2640  1.3845
17604TIP3    H274228   2.390   4.956  15.148  3.5029 -1.1108  0.4518
17605TIP3   OH274229   2.220   1.362  11.689  0.5845 -0.9378  0.1275
17605TIP3    H174230   2.292   1.304  11.664  1.4249 -0.0256  0.3781
17605TIP3    H274231   2.263   1.438  11.729 -0.2869  1.1133 -2.6328
17606TIP3   OH274232   5.200   3.044   4.828  0.1489  0.6149 -0.3144
17606TIP3    H174233   5.254   3.079   4.757  1.4199 -1.5412 -0.4284
17606TIP3    H274234   5.223   2.952   4.833 -1.7171  0.2032  1.3062
17607TIP3   OH274235   3.419   1.028   1.655 -0.1065 -0.0340  0.2726
17607TIP3    H174236   3.361   0.994   1.723  0.7514 -0.3505  0.8549
17607TIP3    H274237   3.363   1.036   1.577 -0.9839 -0.0932  0.8887
17608TIP3   OH274238   3.076   2.060  13.363  0.4072 -0.4768 -0.0419
17608TIP3    H174239   3.088   1.984  13.306  0.5529  0.2894 -1.0370
17608TIP3    H274240   3.088   2.136  13.306  0.4377  0.3030  0.9782
17609TIP3   OH274241   2.862   6.409   0.807 -0.2243 -0.0136 -0.5898
17609TIP3    H174242   2.907   6.338   0.760  0.1694  0.2152 -0.5602
17609TIP3    H274243   2.929   6.445   0.864 -0.5816  0.0122 -0.1886
17610TIP3   OH274244   4.435   3.669  11.672  0.0600  0.4009 -0.1153
17610TIP3    H174245   4.442   3.720  11.753 -1.1758  1.9518 -0.9705
17610TIP3    H274246   4.362   3.708  11.625 -0.4350 -1.6967 -1.1471
17611TIP3   OH274247   4.804   3.694   0.274 -0.0635  0.2084 -0.7533
17611TIP3    H174248   4.860   3.734   0.340 -1.0826  1.0329 -0.3634
17611TIP3    H274249   4.737   3.760   0.257 -0.7622 -0.6561 -1.3960
17612TIP3   OH274250   1.613   0.264   1.430 -0.3019  0.1096 -0.4692
17612TIP3    H174251   1.594   0.293   1.519 -1.0016 -0.9194 -0.2700
17612TIP3    H274252   1.709   0.264   1.424 -0.2453 -0.0673  0.3780
17613TIP3   OH274253   6.461   3.057   2.940 -0.3165  0.4654  0.3050
17613TIP3    H174254   6.382   3.109   2.932 -0.4136  0.3085  0.2350
17613TIP3    H274255   6.439   2.988   3.003  0.0327  0.9204  0.9231
17614TIP3   OH274256   0.532   3.876   2.243  0.6355  0.3851 -0.6357
17614TIP3    H174257   0.596   3.904   2.309  0.2587  1.7896 -0.8536
17614TIP3    H274258   0.450   3.915   2.272 -0.3557 -2.1920  0.1708
17615TIP3   OH274259   2.775   6.590   4.515  0.2461  0.3568  0.2177
17615TIP3    H174260   2.818   6.594   4.429 -0.2187 -0.2544 -0.0466
17615TIP3    H274261   2.740   6.679   4.527  1.1179  0.7120  0.2006
17616TIP3   OH274262   1.953   1.334  16.576 -0.3443  0.7500 -0.1420
17616TIP3    H174263   1.951   1.300  16.665  2.8769 -2.5436 -1.2186
17616TIP3    H274264   2.018   1.404  16.577  0.1607  0.2737 -0.0716
17617TIP3   OH274265   3.602   2.688  13.471 -0.3553 -0.4171 -0.3157
17617TIP3    H174266   3.688   2.649  13.451 -0.2824  0.2772 -1.4481
17617TIP3    H274267   3.614   2.781  13.452 -1.1401 -0.1983  0.2805
17618TIP3   OH274268   4.664   1.953  12.472 -0.0618 -0.1936 -0.0647
17618TIP3    H174269   4.631   2.031  12.516  0.8831  0.0908  0.1379
17618TIP3    H274270   4.586   1.912  12.435 -0.7550  0.0272  1.1314
17619TIP3   OH274271   4.444   3.786   2.708 -0.2143 -0.2094  0.1720
17619TIP3    H174272   4.489   3.818   2.629  1.1187  0.0414  1.0043
17619TIP3    H274273   4.474   3.696   2.718 -1.1453 -0.5532 -0.1538
17620TIP3   OH274274   5.833   5.731  12.245  0.4929 -0.2729  0.0654
17620TIP3    H174275   5.878   5.786  12.310 -0.6721  1.0948 -0.2566
17620TIP3    H274276   5.829   5.644  12.286  2.5786 -0.1939  0.4826
17621TIP3   OH274277   3.111   3.608  13.749 -0.4214  0.1134  0.5235
17621TIP3    H174278   3.126   3.630  13.657 -3.0598 -0.3041 -0.0372
17621TIP3    H274279   3.158   3.525  13.762 -1.2570 -0.5926 -0.8662
17622TIP3   OH274280   2.911   3.685  16.692 -1.0790 -0.1877 -0.2696
17622TIP3    H174281   2.913   3.664  16.785 -2.0111 -0.8847 -0.4004
17622TIP3    H274282   2.903   3.780  16.689 -1.9813 -0.2426  0.3694
17623TIP3   OH274283   2.103   6.447   4.558 -0.2458 -0.0940  0.1137
17623TIP3    H174284   2.184   6.463   4.607 -0.8502 -0.1857  1.1496
17623TIP3    H274285   2.076   6.359   4.585 -1.0325  0.1914  0.2634
17624TIP3   OH274286   0.378   2.956   2.368 -0.5471 -0.4586  0.1408
17624TIP3    H174287   0.321   2.972   2.443 -1.5839 -1.3399 -0.4490
17624TIP3    H274288   0.412   3.043   2.346 -0.2726 -0.1811  1.5751
17625TIP3   OH274289   2.616   1.125   6.183  0.3658 -0.2865  0.0035
17625TIP3    H174290   2.535   1.090   6.219  0.6555 -1.8778 -0.8468
17625TIP3    H274291   2.685   1.094   6.241  0.5897 -0.8595 -0.5595
17626TIP3   OH274292   6.776   4.156  12.284 -0.1839 -0.1393  0.0531
17626TIP3    H174293   6.871   4.149  12.296  0.0067  0.1696 -1.2240
17626TIP3    H274294   6.765   4.223  12.217 -1.4220  1.6859  2.0158
17627TIP3   OH274295   2.679   5.939   2.732  0.1745 -0.5776  0.1659
17627TIP3    H174296   2.774   5.939   2.740  0.2128 -0.3384 -0.2964
17627TIP3    H274297   2.648   5.967   2.818  0.5441  0.1181  0.0806
17628TIP3   OH274298   6.381   2.166  14.294  0.7000  0.1813 -0.0516
17628TIP3    H174299   6.310   2.168  14.229  0.1249 -0.5216  0.5462
17628TIP3    H274300   6.454   2.210  14.251 -0.2491  1.3616 -0.5092
17629TIP3   OH274301   1.729   5.105  17.235  0.7749 -0.3260 -0.3878
17629TIP3    H174302   1.684   5.112  17.319  2.4364  0.7523  0.4153
17629TIP3    H274303   1.693   5.177  17.183  0.3435 -0.4991 -0.3368
17630TIP3   OH274304   6.563   4.694  17.107 -0.1485 -0.1241 -0.7024
17630TIP3    H174305   6.564   4.603  17.077  1.4498 -0.9875  1.7541
17630TIP3    H274306   6.474   4.707  17.139 -0.2000 -1.0864 -0.4187
17631TIP3   OH274307   3.138   2.966   2.801  0.4337 -1.2243 -0.1571
17631TIP3    H174308   3.230   2.994   2.799  0.0840 -0.0981 -0.9162
17631TIP3    H274309   3.143   2.871   2.807  1.6575 -1.1325  0.5106
17632TIP3   OH274310   6.429   5.130   1.195  0.3418 -0.8385 -0.6292
17632TIP3    H174311   6.504   5.072   1.180  1.4057  0.1597  0.7880
17632TIP3    H274312   6.363   5.073   1.235  1.0976 -1.2546  0.0372
17633TIP3   OH274313   3.233   4.864   3.727  0.2133 -0.9433  0.0803
17633TIP3    H174314   3.318   4.907   3.717  0.0114  0.1468  2.6790
17633TIP3    H274315   3.171   4.936   3.735 -0.4810 -1.7268  1.8537
17634TIP3   OH274316   3.690   0.098   2.088 -0.8625  0.2326  0.2105
17634TIP3    H174317   3.609   0.148   2.077 -1.4135 -0.4380  1.1340
17634TIP3    H274318   3.671   0.013   2.047 -1.0302 -0.3262  1.4198
17635TIP3   OH274319   3.349   2.825  14.971 -0.1282  0.4845 -0.7023
17635TIP3    H174320   3.278   2.761  14.977  0.0194  0.5555  2.1547
17635TIP3    H274321   3.383   2.814  14.882 -2.0413 -1.3321 -1.2438
17636TIP3   OH274322   0.949   3.846   4.795  0.5456 -0.0081 -0.3295
17636TIP3    H174323   1.035   3.845   4.837 -0.1106  0.9889  1.0742
17636TIP3    H274324   0.888   3.821   4.864 -0.6949  2.7833 -0.3267
17637TIP3   OH274325   3.708   0.688  15.856  0.0402 -0.5496 -0.5723
17637TIP3    H174326   3.783   0.672  15.915  0.5316  0.0982 -1.0056
17637TIP3    H274327   3.657   0.608  15.860  0.8115 -1.0413 -0.3373
17638TIP3   OH274328   3.961   6.571  15.791 -0.0556 -0.3891 -0.9540
17638TIP3    H174329   3.894   6.603  15.852  1.2087 -0.9589  0.7420
17638TIP3    H274330   3.915   6.568  15.707 -2.1812 -0.7398  0.1620
17639TIP3   OH274331   0.122   6.663   4.335  0.8134 -1.4774 -0.2414
17639TIP3    H174332   0.064   6.690   4.264  1.5248 -2.2754 -1.1457
17639TIP3    H274333   0.157   6.745   4.370 -0.7964 -0.9888  0.2818
17640TIP3   OH274334   2.517   0.475  11.340 -0.6769  0.5152 -0.0488
17640TIP3    H174335   2.513   0.501  11.248 -0.3399 -0.4709 -0.3498
17640TIP3    H274336   2.553   0.387  11.339  1.2813  1.2669  1.1708
17641TIP3   OH274337   1.260   5.939   4.559  0.0542  0.1653  0.1719
17641TIP3    H174338   1.178   5.892   4.574 -0.2036  0.5159 -0.1468
17641TIP3    H274339   1.324   5.870   4.541 -0.5230 -0.0134 -1.2429
17642TIP3   OH274340   0.305   6.401  16.821  0.0276  0.4588 -0.3467
17642TIP3    H174341   0.321   6.315  16.781  0.1035 -0.1689  1.0253
17642TIP3    H274342   0.211   6.414  16.813  0.1213  0.6213 -1.2902
17643TIP3   OH274343   4.255   2.057   3.257  0.0022 -0.3165  0.4211
17643TIP3    H174344   4.221   2.082   3.171  0.7045  2.9223  1.0278
17643TIP3    H274345   4.350   2.073   3.251  0.6346 -3.6668  0.6260
17644TIP3   OH274346   2.138   4.229  13.618  0.5366  0.0069  0.2352
17644TIP3    H174347   2.189   4.259  13.543 -0.8408  1.7964 -0.0157
17644TIP3    H274348   2.087   4.305  13.645 -0.0420 -1.0060  2.1202
17645TIP3   OH274349   6.303   1.280   4.145  0.0124 -0.2635  0.6653
17645TIP3    H174350   6.327   1.191   4.172 -1.4676 -0.4920  1.2610
17645TIP3    H274351   6.223   1.299   4.194 -1.2957  0.3093 -1.6502
17646TIP3   OH274352   2.248   0.692   3.929  0.3708  0.7131  0.3996
17646TIP3    H174353   2.198   0.689   3.847  0.3155  0.9759  0.4222
17646TIP3    H274354   2.309   0.618   3.923 -1.0374 -0.5145  1.0363
17647TIP3   OH274355   3.664   2.872  12.653  0.0238  0.0737  0.2137
17647TIP3    H174356   3.725   2.823  12.598 -0.4161 -0.8028  0.4929
17647TIP3    H274357   3.719   2.930  12.705  0.5418 -0.0626 -0.1790
17648TIP3   OH274358   5.382   4.343   3.667 -0.3182 -0.0542 -0.3213
17648TIP3    H174359   5.320   4.307   3.604 -0.5465 -0.1462 -0.0429
17648TIP3    H274360   5.372   4.289   3.745 -0.4959  0.4586  0.0159
17649TIP3   OH274361   3.627   3.608   0.183  0.1477 -0.5028  0.0730
17649TIP3    H174362   3.674   3.556   0.248  0.8242  1.1247  0.9099
17649TIP3    H274363   3.694   3.664   0.144 -0.8429  0.8645  0.3082
17650TIP3   OH274364   6.447   5.077   5.743  0.1009  0.4883 -0.2356
17650TIP3    H174365   6.359   5.113   5.743  1.0705  2.9340 -0.1640
17650TIP3    H274366   6.502   5.148   5.775  2.3225 -0.4686 -1.8308
17651TIP3   OH274367   1.288   5.526   2.363  0.0842 -0.4462 -0.2472
17651TIP3    H174368   1.381   5.540   2.380 -0.1852 -0.0642  0.9625
17651TIP3    H274369   1.267   5.444   2.409 -0.0672 -0.8233 -0.9652
17652TIP3   OH274370   2.795   3.023   1.208  0.0570 -0.0056  0.4434
17652TIP3    H174371   2.780   3.110   1.171 -0.3026 -0.8784 -1.5138
17652TIP3    H274372   2.788   2.963   1.134 -1.3873 -1.9027  2.0308
17653TIP3   OH274373   1.582   1.356  16.417 -0.3537  0.1202  0.2155
17653TIP3    H174374   1.563   1.401  16.334  0.7652  0.8271  0.3344
17653TIP3    H274375   1.603   1.266  16.391 -0.8101  0.1246 -0.1900
17654TIP3   OH274376   4.856   3.745  13.285 -0.1860 -0.2775 -0.4071
17654TIP3    H174377   4.838   3.712  13.373 -3.0529 -0.2111 -0.9336
17654TIP3    H274378   4.932   3.695  13.256 -0.2006 -1.4348  1.4873
17655TIP3   OH274379   5.682   3.660   0.707  0.1639  0.3140 -0.2167
17655TIP3    H174380   5.739   3.630   0.778  0.2417  0.5797 -0.1661
17655TIP3    H274381   5.729   3.734   0.668  0.1832  0.0811 -0.6324
17656TIP3   OH274382   6.062   2.263   4.599 -0.0607 -0.1342 -0.2693
17656TIP3    H174383   6.060   2.310   4.682  0.4660  0.6703 -0.6952
17656TIP3    H274384   5.971   2.240   4.581 -0.2216  0.0275  0.3431
17657TIP3   OH274385   6.281   5.906  14.409  0.2033 -0.6205 -0.2585
17657TIP3    H174386   6.196   5.945  14.429  0.0760 -1.6140  1.2287
17657TIP3    H274387   6.342   5.945  14.472  0.3848 -1.6280  0.2017
17658TIP3   OH274388   0.651   4.371   3.577  0.0386 -0.2618 -0.1993
17658TIP3    H174389   0.565   4.379   3.536 -0.6777 -1.4059  1.0341
17658TIP3    H274390   0.712   4.405   3.512 -1.3631  0.7276 -1.0183
17659TIP3   OH274391   5.424   2.348  16.400 -0.4691  0.0811 -0.4454
17659TIP3    H174392   5.416   2.257  16.371  0.5479 -0.0802 -0.2481
17659TIP3    H274393   5.352   2.394  16.357 -1.1549 -0.8758 -0.3212
17660TIP3   OH274394   1.818   3.635  17.066  0.3853 -0.1210 -0.1689
17660TIP3    H174395   1.724   3.642  17.053  0.3123  1.2026  0.9602
17660TIP3    H274396   1.856   3.666  16.984 -0.1643 -0.7694 -0.6682
17661TIP3   OH274397   2.069   0.433   3.960 -0.0323 -0.0646  0.4418
17661TIP3    H174398   2.152   0.391   3.938 -0.6212 -1.4043  0.7174
17661TIP3    H274399   2.092   0.498   4.027  1.2400  1.7033 -1.6344
17662TIP3   OH274400   4.507   5.276  15.194  0.1357  0.6900  0.8379
17662TIP3    H174401   4.457   5.288  15.114 -0.6479 -0.0630  1.2053
17662TIP3    H274402   4.595   5.306  15.172 -0.7409  3.1112  0.5276
17663TIP3   OH274403   5.985   4.979   3.546  0.8309  0.1159 -0.0114
17663TIP3    H174404   6.030   5.027   3.616  1.3422 -1.1385  0.5299
17663TIP3    H274405   6.028   4.894   3.544  0.4824 -0.0361 -1.5267
17664TIP3   OH274406   2.687   1.863   4.093  0.2068  0.6038 -0.1818
17664TIP3    H174407   2.735   1.935   4.053 -0.8341  1.4154  0.0109
17664TIP3    H274408   2.627   1.833   4.025  0.0126  0.5158  0.0259
17665TIP3   OH274409   6.044   3.871   4.319 -0.6741  0.0555 -0.3925
17665TIP3    H174410   6.052   3.926   4.241 -0.6822  1.0646  0.2982
17665TIP3    H274411   5.952   3.847   4.323 -0.8580  0.7640 -0.2015
17666TIP3   OH274412   4.292   3.291  12.683 -0.0511  0.2858 -0.1359
17666TIP3    H174413   4.305   3.291  12.588 -1.6845  0.5493 -0.3628
17666TIP3    H274414   4.225   3.357  12.698 -0.0673 -0.0223  1.1711
17667TIP3   OH274415   4.847   0.618   6.818  0.4544  0.3807 -0.4958
17667TIP3    H174416   4.773   0.634   6.760  2.7485  1.3839 -3.2526
17667TIP3    H274417   4.889   0.539   6.783  1.5913  0.7118  0.0911
17668TIP3   OH274418   5.821   6.280   5.611  0.0579  0.7700  0.2939
17668TIP3    H174419   5.824   6.248   5.701  1.1338 -0.9141 -0.3002
17668TIP3    H274420   5.869   6.363   5.613  2.8781 -0.7821  0.7258
17669TIP3   OH274421   1.485   6.437   0.517  0.0918  0.3385 -0.3422
17669TIP3    H174422   1.554   6.447   0.583  1.3783 -0.6844 -1.5024
17669TIP3    H274423   1.467   6.527   0.488  0.6735  0.6434  0.2167
17670TIP3   OH274424   4.661   6.705   5.131 -0.2523  0.6172  0.0333
17670TIP3    H174425   4.756   6.713   5.142 -0.1143 -0.2784 -0.5313
17670TIP3    H274426   4.632   6.795   5.115  0.5327  0.8624 -0.0615
17671TIP3   OH274427   6.639   4.508  11.494  0.3630 -0.4005 -0.3080
17671TIP3    H174428   6.558   4.484  11.538  0.0342  0.1753 -0.6010
17671TIP3    H274429   6.695   4.430  11.503 -0.3505 -0.9306 -0.4299
17672TIP3   OH274430   1.582   4.933   2.457 -0.0903  0.1287 -0.4246
17672TIP3    H174431   1.508   4.873   2.445  0.3947 -0.5626  0.0153
17672TIP3    H274432   1.649   4.900   2.396 -0.1929  0.8345 -0.9227
17673TIP3   OH274433   6.452   0.497   1.638  0.9153  0.4466 -0.1483
17673TIP3    H174434   6.488   0.551   1.708 -1.4114  0.1242  1.3606
17673TIP3    H274435   6.365   0.472   1.669  0.4838 -1.0967 -2.4356
17674TIP3   OH274436   4.936   2.119   0.273 -0.1994 -0.0777 -0.7681
17674TIP3    H174437   4.966   2.206   0.299  0.4162 -0.9053  1.4349
17674TIP3    H274438   4.840   2.127   0.270 -0.0561  1.3011 -3.0786
17675TIP3   OH274439   4.372   2.892  15.692 -0.2150  0.0038  0.1095
17675TIP3    H174440   4.407   2.832  15.758 -0.2310  0.6137  0.6769
17675TIP3    H274441   4.330   2.835  15.628  1.5869 -0.7270 -0.4474
17676TIP3   OH274442   6.339   3.201  14.093 -0.5872  0.0684  0.0072
17676TIP3    H174443   6.360   3.289  14.124 -1.1653  0.2348 -0.0741
17676TIP3    H274444   6.264   3.174  14.145  0.8403 -1.1780  1.4276
17677TIP3   OH274445   6.060   0.007  11.682  0.0322  0.1070 -0.1478
17677TIP3    H174446   5.978  -0.042  11.674  0.1202  0.0509 -0.7595
17677TIP3    H274447   6.037   0.082  11.737 -1.0846  1.4414 -2.3278
17678TIP3   OH274448   4.675   3.648   1.903  0.0989 -0.9945  0.1034
17678TIP3    H174449   4.720   3.574   1.944 -0.6989 -1.4669  0.1348
17678TIP3    H274450   4.632   3.611   1.826 -2.2862 -1.0787  1.4214
17679TIP3   OH274451   0.936   0.705   4.743 -0.2458 -0.3192  0.4574
17679TIP3    H174452   1.012   0.757   4.716  0.0210 -1.6393 -1.4568
17679TIP3    H274453   0.919   0.732   4.833  2.1718  0.3872  0.7352
17680TIP3   OH274454   6.363   2.061  12.940  0.3539 -0.1942 -0.0136
17680TIP3    H174455   6.416   2.138  12.957  0.1754 -0.1376  0.2976
17680TIP3    H274456   6.394   2.028  12.855 -0.7419  1.2064 -0.9745
17681TIP3   OH274457   3.510   1.330  12.167  0.1655  0.6548  0.5360
17681TIP3    H174458   3.554   1.395  12.112  0.1807  0.7241  0.6309
17681TIP3    H274459   3.437   1.377  12.207 -0.3072  0.4095 -0.0332
17682TIP3   OH274460   3.000   6.770  16.950  0.2422  0.0888 -0.0055
17682TIP3    H174461   3.068   6.771  17.018  3.1724 -1.8404 -2.7629
17682TIP3    H274462   2.949   6.691  16.968  0.3506  0.1611  0.6144
17683TIP3   OH274463   2.357   6.042  13.192  0.7156  0.6043  0.5036
17683TIP3    H174464   2.344   5.962  13.141  0.4495  0.5793  0.6095
17683TIP3    H274465   2.349   6.014  13.283 -0.3269  0.9140  0.5143
17684TIP3   OH274466   1.783   0.985  14.787 -0.3204 -0.2772 -0.2443
17684TIP3    H174467   1.830   1.031  14.717  0.4865  0.2642  0.6463
17684TIP3    H274468   1.725   0.925  14.741 -1.7434  1.9604 -1.4624
17685TIP3   OH274469   3.667   0.792   1.900  0.0544 -0.1471 -0.8885
17685TIP3    H174470   3.616   0.718   1.932  0.8549  0.3929  1.8105
17685TIP3    H274471   3.741   0.798   1.960  0.2358  2.5604 -1.3081
17686TIP3   OH274472   3.572   5.649  10.625  0.0297  0.2666 -0.3388
17686TIP3    H174473   3.614   5.593  10.559  0.0801  0.8116 -0.7700
17686TIP3    H274474   3.486   5.669  10.589 -0.7063 -1.0453  0.6574
17687TIP3   OH274475   2.326   3.820  13.117  0.1583 -0.5824  0.2408
17687TIP3    H174476   2.289   3.892  13.169  0.1469 -0.3099 -0.1401
17687TIP3    H274477   2.254   3.793  13.060  0.3513 -0.4804 -0.0515
17688TIP3   OH274478   4.423   0.351  14.252  0.0241  0.1923  0.0680
17688TIP3    H174479   4.435   0.257  14.266  1.3355  0.5594  1.6314
17688TIP3    H274480   4.365   0.377  14.324 -0.1567  0.6281 -0.2370
17689TIP3   OH274481   3.679   3.382  17.173  0.5305 -0.6005  0.4701
17689TIP3    H174482   3.650   3.429  17.250  0.1246 -0.0312 -0.0264
17689TIP3    H274483   3.713   3.299  17.206 -1.7895 -1.3543  1.0579
17690TIP3   OH274484   5.125   5.314  10.672  0.5677 -0.0058 -0.6226
17690TIP3    H174485   5.217   5.288  10.681  0.7256  0.4857 -0.8271
17690TIP3    H274486   5.118   5.398  10.716 -0.1905 -0.8727  0.9728
17691TIP3   OH274487   6.516   1.400   0.110  0.0930  0.1741 -0.7834
17691TIP3    H174488   6.447   1.428   0.049 -1.9316 -1.3469  0.7358
17691TIP3    H274489   6.517   1.304   0.101  2.6285  0.2286 -1.3947
17692TIP3   OH274490   4.195   4.966  15.925 -0.3142  0.1710  0.2283
17692TIP3    H174491   4.279   4.946  15.967 -0.1176 -0.0029 -0.2458
17692TIP3    H274492   4.176   4.887  15.873  0.6725  1.3402 -1.9954
17693TIP3   OH274493   1.785   0.042   0.289  0.2600 -0.0963 -0.0960
17693TIP3    H174494   1.835  -0.032   0.322  1.3456  1.3722  1.6663
17693TIP3    H274495   1.705   0.043   0.342  0.9341  0.8488  0.9498
17694TIP3   OH274496   5.540   5.013   1.882  0.4688 -0.0925 -0.1139
17694TIP3    H174497   5.524   4.987   1.791  0.8459 -0.2145 -0.1472
17694TIP3    H274498   5.503   5.100   1.889  1.2023  0.2720 -0.6278
17695TIP3   OH274499   2.939   1.191  16.434  0.4317  0.6162  0.2539
17695TIP3    H174500   2.950   1.274  16.388 -0.1242  0.2766 -0.5091
17695TIP3    H274501   3.011   1.136  16.403  1.2057  1.0360  1.2872
17696TIP3   OH274502   4.855   6.105   1.911 -0.3507  0.2234  0.1587
17696TIP3    H174503   4.899   6.020   1.921 -1.2139 -0.1834  0.5743
17696TIP3    H274504   4.888   6.140   1.829  1.2465  0.2283  0.7864
17697TIP3   OH274505   5.488   1.476  16.860 -0.8524  0.0331 -0.2213
17697TIP3    H174506   5.519   1.558  16.821 -1.6350  0.7502  0.6506
17697TIP3    H274507   5.509   1.485  16.953  0.3787 -1.3777 -0.3508
17698TIP3   OH274508   2.396   1.844  13.529 -1.1443 -0.3695  0.3875
17698TIP3    H174509   2.373   1.864  13.620 -1.9521 -0.1259  0.1336
17698TIP3    H274510   2.326   1.788  13.498 -1.4866  0.5000 -0.4410
17699TIP3   OH274511   6.219   5.395   0.433 -0.1003  0.8630  0.4641
17699TIP3    H174512   6.267   5.478   0.431 -0.4083  1.0395  0.0930
17699TIP3    H274513   6.127   5.421   0.436 -0.1446  0.5245  2.5080
17700TIP3   OH274514   4.069   0.348  15.532 -0.4976 -0.4328  0.4531
17700TIP3    H174515   3.986   0.395  15.525  0.5453  1.0973 -2.4371
17700TIP3    H274516   4.117   0.396  15.600 -0.9407  0.3093  0.2469
17701TIP3   OH274517   4.320   0.210  16.796 -0.2048 -1.1264  0.0636
17701TIP3    H174518   4.354   0.298  16.812  0.0126 -0.8745 -1.6982
17701TIP3    H274519   4.398   0.158  16.777 -0.6308 -0.8521 -2.6036
17702TIP3   OH274520   2.688   0.038  16.432 -0.2349  0.0866 -0.2307
17702TIP3    H174521   2.663   0.044  16.340 -0.7256  1.4859 -0.0119
17702TIP3    H274522   2.611   0.067  16.481  0.8728  1.8794  0.5211
17703TIP3   OH274523   1.510   2.956   1.911 -1.0720  0.1647  0.7813
17703TIP3    H174524   1.578   2.989   1.852 -0.2770  0.5046  1.8675
17703TIP3    H274525   1.527   2.862   1.915 -0.8452  0.2060  0.8272
17704TIP3   OH274526   0.419   4.520  13.316  0.0744  0.0207 -0.0456
17704TIP3    H174527   0.396   4.559  13.231  0.7876 -0.9518 -0.6950
17704TIP3    H274528   0.482   4.581  13.354 -0.0936  0.3543 -0.3019
17705TIP3   OH274529   0.124   1.771  15.767  0.4663 -0.2448  0.6039
17705TIP3    H174530   0.130   1.799  15.859 -1.4917  0.1594  0.6508
17705TIP3    H274531   0.045   1.816  15.735  0.1538 -1.7613 -0.7815
17706TIP3   OH274532   0.064   5.582  14.234  0.1322  0.3192 -0.9098
17706TIP3    H174533   0.113   5.534  14.301  0.4546 -0.4290 -1.6682
17706TIP3    H274534   0.104   5.669  14.232  0.2561  0.2800 -0.2842
17707TIP3   OH274535   1.885   6.074  16.575 -0.2240  0.5090  0.1940
17707TIP3    H174536   1.794   6.048  16.561 -0.4281  2.3886 -2.4778
17707TIP3    H274537   1.880   6.150  16.634 -0.1626 -0.9466  2.1115
17708TIP3   OH274538   4.298   6.702   2.450 -0.0131 -0.0228 -0.0274
17708TIP3    H174539   4.350   6.708   2.531 -0.6543  0.8661  0.3288
17708TIP3    H274540   4.341   6.762   2.389  1.3271 -1.7733 -0.8462
17709TIP3   OH274541   3.203   6.515  17.037  0.0444  0.0233 -0.5020
17709TIP3    H174542   3.108   6.515  17.035  0.0201 -1.6119  0.0923
17709TIP3    H274543   3.226   6.552  17.122 -0.0415  0.5722 -0.7103
17710TIP3   OH274544   1.354   3.145   1.733  0.4152  0.1899  0.4084
17710TIP3    H174545   1.404   3.091   1.794  0.8669  0.5954  0.3987
17710TIP3    H274546   1.367   3.234   1.764 -1.3572  0.2058  1.1779
17711TIP3   OH274547   1.131   6.604   6.519  0.4812  0.1852  0.0111
17711TIP3    H174548   1.136   6.699   6.507 -1.6640  0.3475  0.0645
17711TIP3    H274549   1.063   6.592   6.585 -0.9137 -1.4575 -1.6585
17712TIP3   OH274550   1.961   2.896   6.208 -0.2317 -0.3753  0.2556
17712TIP3    H174551   1.885   2.889   6.265  1.8878 -0.9926  3.1681
17712TIP3    H274552   2.024   2.948   6.258  1.7213 -0.9178 -1.5157
17713TIP3   OH274553   5.193   1.019  13.619  0.1466 -0.4592  0.0571
17713TIP3    H174554   5.190   1.030  13.714 -1.8139 -0.6960  0.0559
17713TIP3    H274555   5.235   0.934  13.605 -0.7516 -1.0385  0.7880
17714TIP3   OH274556   5.257   5.280  16.746  0.0487 -0.3450  0.2640
17714TIP3    H174557   5.348   5.299  16.724  0.6348 -2.3611  0.8164
17714TIP3    H274558   5.208   5.302  16.667  0.8508  1.9412  0.3867
17715TIP3   OH274559   4.927   2.623  16.784  0.2096  0.4633 -0.4624
17715TIP3    H174560   4.970   2.625  16.870  0.7646 -0.4158 -0.7145
17715TIP3    H274561   4.848   2.571  16.798  0.4971  0.0020 -0.5836
17716TIP3   OH274562   1.786   1.868   6.653  0.2186  0.1730  0.4584
17716TIP3    H174563   1.842   1.936   6.690 -1.7847  2.1114  0.0527
17716TIP3    H274564   1.700   1.911   6.642 -1.3201 -2.6696  0.9804
17717TIP3   OH274565   2.035   6.006  12.129 -0.6366 -0.2392 -0.3466
17717TIP3    H174566   2.070   5.949  12.060 -2.7765  0.9219 -2.4641
17717TIP3    H274567   1.940   5.988  12.129 -0.8289  0.5924  1.5690
17718TIP3   OH274568   3.201   1.485  14.158 -0.0010  0.0271  0.0439
17718TIP3    H174569   3.243   1.458  14.076 -0.2249  0.8385 -0.3361
17718TIP3    H274570   3.256   1.555  14.192 -0.1117 -0.0593  0.4057
17719TIP3   OH274571   1.131   1.744  13.326 -0.3019 -0.1586  0.2978
17719TIP3    H174572   1.140   1.822  13.380 -0.3875  0.2953 -0.3375
17719TIP3    H274573   1.220   1.725  13.296 -0.2940 -0.2541  0.3811
17720TIP3   OH274574   5.527   1.405   3.785 -0.5223 -0.0933  0.0269
17720TIP3    H174575   5.512   1.345   3.711  0.1204 -2.8195  2.0260
17720TIP3    H274576   5.439   1.420   3.821 -0.5549 -0.7724  0.2339
17721TIP3   OH274577   2.658   0.410  14.093 -0.6346 -0.5106  0.3083
17721TIP3    H174578   2.635   0.455  14.012 -2.8611 -1.6616  0.2346
17721TIP3    H274579   2.621   0.465  14.162 -0.7826 -0.7157  0.3937
17722TIP3   OH274580   2.945   0.185  14.970 -0.3034 -0.3029  0.2970
17722TIP3    H174581   2.915   0.226  14.889  1.7320  1.9383  0.6067
17722TIP3    H274582   2.969   0.258  15.027  0.6078 -1.8880  2.0249
17723TIP3   OH274583   3.878   4.077  16.487  0.0501  0.8940  0.5876
17723TIP3    H174584   3.906   4.133  16.559 -0.5641  1.0222  0.7214
17723TIP3    H274585   3.926   4.110  16.411  1.0927  0.4342  1.0358
17724TIP3   OH274586   0.130   4.008  14.782  0.1138 -0.8945 -0.5077
17724TIP3    H174587   0.141   3.913  14.773 -0.2465 -0.9043 -0.8539
17724TIP3    H274588   0.136   4.041  14.692  1.6063 -0.4395 -0.2444
17725TIP3   OH274589   4.979   3.220  15.551  0.5691 -0.0767 -0.1261
17725TIP3    H174590   5.028   3.296  15.521  2.0543 -1.0561 -0.2489
17725TIP3    H274591   4.930   3.191  15.474 -0.5380  1.1436  0.1011
17726TIP3   OH274592   0.275   4.430  16.331  0.5712 -0.3731 -0.2549
17726TIP3    H174593   0.349   4.491  16.330  0.1904  0.1285  1.4051
17726TIP3    H274594   0.315   4.345  16.312  1.2252  0.2437 -1.7072
17727TIP3   OH274595   4.842   2.404  13.854  0.2991  0.3007 -0.2332
17727TIP3    H174596   4.829   2.341  13.924  2.9861  1.1653  1.0923
17727TIP3    H274597   4.926   2.381  13.815 -0.8534  0.2304 -2.8034
17728TIP3   OH274598   4.479   3.109  12.288  0.5928 -0.0912  0.5290
17728TIP3    H174599   4.552   3.054  12.319 -1.1006 -2.1824  0.9225
17728TIP3    H274600   4.440   3.058  12.217 -1.5525  0.1704  1.4831
17729TIP3   OH274601   6.388   1.114   6.614  0.8536  0.2624 -0.1179
17729TIP3    H174602   6.480   1.116   6.589  1.2017  1.1735  1.2154
17729TIP3    H274603   6.361   1.023   6.598  2.1580 -0.1722  0.0897
17730TIP3   OH274604   1.102   2.081  14.859 -0.3401  0.0230  0.1428
17730TIP3    H174605   1.107   2.005  14.917 -2.3836 -0.9252 -0.8862
17730TIP3    H274606   1.017   2.120  14.878  0.3326  1.5658  0.0379
17731TIP3   OH274607   2.542   0.453   3.513  0.2335 -0.0831  0.4329
17731TIP3    H174608   2.634   0.426   3.519 -0.1564 -1.4772  0.2587
17731TIP3    H274609   2.532   0.482   3.422  0.4732 -0.0045  0.4289
17732TIP3   OH274610   5.357   0.306   4.327  0.1980  0.3744  0.3983
17732TIP3    H174611   5.274   0.259   4.317 -1.1373  2.5131  0.9498
17732TIP3    H274612   5.334   0.382   4.380  2.3486  1.4761 -0.2114
17733TIP3   OH274613   5.471   2.933  11.631  0.1048  0.4315  0.5712
17733TIP3    H174614   5.397   2.994  11.637  1.3195  1.8294  1.5486
17733TIP3    H274615   5.431   2.847  11.643 -1.3646  1.1788  1.2763
17734TIP3   OH274616   5.217   1.173   0.901  0.2694 -0.0426  0.1338
17734TIP3    H174617   5.169   1.090   0.897  1.2028 -0.5722 -0.1159
17734TIP3    H274618   5.212   1.200   0.993 -1.4329  0.4602 -0.0892
17735TIP3   OH274619   6.020   3.584  12.341  0.0202 -0.1863  0.0409
17735TIP3    H174620   5.942   3.531  12.329 -1.5278  2.0844 -0.1022
17735TIP3    H274621   6.071   3.571  12.260 -1.6684  0.7219 -1.1877
17736TIP3   OH274622   4.535   0.872  11.227  0.2017 -0.6092  0.0658
17736TIP3    H174623   4.524   0.836  11.139  0.7589 -0.8425  0.0872
17736TIP3    H274624   4.627   0.900  11.230  0.4770 -1.5871  0.9341
17737TIP3   OH274625   2.127   0.859   1.023  0.0104  0.1437  0.5342
17737TIP3    H174626   2.147   0.767   1.008 -2.5647 -0.2965 -0.4108
17737TIP3    H274627   2.046   0.875   0.975 -1.4587  2.0487  3.4670
17738TIP3   OH274628   3.333   3.349  11.361  0.3409 -0.0219  0.2969
17738TIP3    H174629   3.410   3.311  11.319  0.1232  0.8666 -0.9414
17738TIP3    H274630   3.354   3.350  11.454  0.5847 -2.6299  0.3087
17739TIP3   OH274631   0.306   5.456   5.346 -0.4606 -0.3450  0.0760
17739TIP3    H174632   0.285   5.526   5.408 -4.1619  0.1734 -1.6599
17739TIP3    H274633   0.257   5.380   5.377 -1.6080 -0.3387 -1.7004
17740TIP3   OH274634   4.452   2.165  14.513  0.0624 -0.7241  0.1786
17740TIP3    H174635   4.394   2.204  14.447 -2.5379  0.9783  3.3355
17740TIP3    H274636   4.430   2.072  14.512 -0.7327 -0.5396 -0.5918
17741TIP3   OH274637   4.472   0.407   2.422  0.0381  0.2651 -0.2666
17741TIP3    H174638   4.560   0.418   2.458 -0.7650  1.9288  1.2925
17741TIP3    H274639   4.417   0.465   2.475 -1.8135  0.0891 -1.9288
17742TIP3   OH274640   6.086   0.763  15.674  0.4560  0.4076 -0.0489
17742TIP3    H174641   6.112   0.853  15.656 -1.3604  0.4868 -2.3799
17742TIP3    H274642   6.110   0.714  15.596  2.5393 -1.4282  1.6523
17743TIP3   OH274643   6.602   2.657   3.932  0.1216 -0.6122 -0.2272
17743TIP3    H174644   6.618   2.638   4.024  0.7951  1.2475  0.0615
17743TIP3    H274645   6.520   2.613   3.912  0.6120 -2.0596  0.9228
17744TIP3   OH274646   5.209   3.438   1.341  0.1890 -0.0128 -0.2922
17744TIP3    H174647   5.172   3.457   1.428  0.8098  1.1018 -0.2512
17744TIP3    H274648   5.253   3.354   1.351  2.6061  1.3503  1.2703
17745TIP3   OH274649   2.669   4.296  11.268  0.2690  0.1191  0.2376
17745TIP3    H174650   2.669   4.307  11.173 -1.9673  0.6380  0.2546
17745TIP3    H274651   2.577   4.278  11.289  0.8858 -0.8430  2.2161
17746TIP3   OH274652   0.417   5.413  15.928  0.5685  0.5019  0.0287
17746TIP3    H174653   0.468   5.404  15.848  0.4444  0.5849 -0.0609
17746TIP3    H274654   0.473   5.463  15.988  0.3888  1.0506 -0.2535
17747TIP3   OH274655   5.016   6.746   0.862 -0.1318  0.0779 -0.1130
17747TIP3    H174656   4.923   6.760   0.880 -0.3747 -1.4498 -0.1356
17747TIP3    H274657   5.051   6.707   0.942  0.7539  1.7384  0.3271
17748TIP3   OH274658   2.144   1.183   4.709 -0.3582 -0.0737 -0.2426
17748TIP3    H174659   2.202   1.150   4.640 -0.1525 -1.1113  0.4100
17748TIP3    H274660   2.057   1.153   4.683 -0.5670  1.1607 -1.0251
17749TIP3   OH274661   4.381   2.930  14.552 -0.3318  0.0406  0.4242
17749TIP3    H174662   4.368   2.848  14.505 -0.0993  0.4160 -0.3069
17749TIP3    H274663   4.425   2.905  14.633 -2.3810 -0.8340  1.3001
17750TIP3   OH274664   2.496   1.544   3.986 -0.4509 -0.2137  0.1871
17750TIP3    H174665   2.439   1.577   4.054  0.1445 -0.3394  0.7496
17750TIP3    H274666   2.439   1.491   3.930 -0.8784 -0.3495  0.7528
17751TIP3   OH274667   2.070   2.511  11.152 -0.0059 -0.2862 -0.1845
17751TIP3    H174668   2.002   2.478  11.093  0.4443  0.4955 -1.1506
17751TIP3    H274669   2.037   2.597  11.180  1.2912  0.7946 -1.8909
17752TIP3   OH274670   1.634   6.468   1.785  0.2336  0.3916  0.7403
17752TIP3    H174671   1.677   6.461   1.870  0.1238  1.0063  0.8525
17752TIP3    H274672   1.552   6.420   1.795  0.4935 -0.0360  0.8018
17753TIP3   OH274673   2.546   2.740   4.481 -0.1513 -0.0298 -0.6395
17753TIP3    H174674   2.491   2.777   4.551  0.6741 -0.6073  0.3379
17753TIP3    H274675   2.636   2.761   4.508  0.2997 -2.1528 -0.3982
17754TIP3   OH274676   2.365   3.458   2.339  0.2116  0.4519 -0.3446
17754TIP3    H174677   2.340   3.481   2.250  0.0107  0.1158 -0.3764
17754TIP3    H274678   2.447   3.409   2.329 -0.6043 -0.9074 -0.4719
17755TIP3   OH274679   1.048   1.992   2.114  0.0541 -0.1490  0.1923
17755TIP3    H174680   0.982   2.015   2.049 -0.2839 -1.2057  0.1507
17755TIP3    H274681   1.128   1.977   2.064  0.2611  0.8729  0.2150
17756TIP3   OH274682   6.309   6.350   5.064  0.0984 -0.5346  0.1314
17756TIP3    H174683   6.234   6.374   5.119 -0.2188 -1.5714  0.1579
17756TIP3    H274684   6.287   6.263   5.031  0.1405  0.1900 -1.8807
17757TIP3   OH274685   5.281   1.537  15.437  0.1720 -0.5371  0.7469
17757TIP3    H174686   5.235   1.464  15.480  0.3255 -0.2108  1.4585
17757TIP3    H274687   5.350   1.562  15.498  0.0950  0.2345  0.5224
17758TIP3   OH274688   5.245   0.324  12.537  0.5003  0.3237  0.3352
17758TIP3    H174689   5.206   0.409  12.518 -0.2142  0.5521  2.6080
17758TIP3    H274690   5.308   0.342  12.607  2.2309 -0.6194 -0.9318
17759TIP3   OH274691   2.799   6.187   2.338  0.0439  0.2769  0.2809
17759TIP3    H174692   2.743   6.172   2.261 -0.3613  0.5621  0.5144
17759TIP3    H274693   2.882   6.145   2.316  0.4098  1.5904 -0.9032
17760TIP3   OH274694   0.327   6.563  15.648 -0.5356  0.2999  0.1421
17760TIP3    H174695   0.361   6.550  15.736 -0.4551  1.3375  0.2621
17760TIP3    H274696   0.251   6.505  15.642 -1.7756  1.7721  1.5769
17761TIP3   OH274697   3.791   2.367   3.248 -0.2696  0.4594  0.6103
17761TIP3    H174698   3.710   2.336   3.288 -0.3660 -0.4399 -0.2700
17761TIP3    H274699   3.818   2.296   3.190  1.7652  0.2689  1.7604
17762TIP3   OH274700   3.625   6.218   2.998  0.1224  0.1453  0.1022
17762TIP3    H174701   3.654   6.152   3.060  0.0436  1.0005  1.0646
17762TIP3    H274702   3.684   6.292   3.013 -0.8508  0.9091  0.2091
17763TIP3   OH274703   6.381   5.274   5.441 -0.7743 -0.0725 -0.6105
17763TIP3    H174704   6.385   5.265   5.346  1.4080  1.7377 -0.7293
17763TIP3    H274705   6.472   5.265   5.470 -1.1572  1.3790  1.1015
17764TIP3   OH274706   1.804   4.490   3.600  0.2375 -0.3551 -0.2076
17764TIP3    H174707   1.761   4.522   3.679  0.0441  1.0419 -0.8668
17764TIP3    H274708   1.861   4.562   3.573  2.4521 -1.9025  0.2408
17765TIP3   OH274709   2.752   6.772   1.549 -0.4330  0.0146 -0.5091
17765TIP3    H174710   2.813   6.724   1.493  0.3712  0.6288 -0.1570
17765TIP3    H274711   2.807   6.829   1.602 -1.2025 -0.3720  0.7286
17766TIP3   OH274712   0.714   2.577  12.545  0.6184 -0.5084 -0.5655
17766TIP3    H174713   0.673   2.635  12.481 -0.7086 -1.0153 -0.1951
17766TIP3    H274714   0.672   2.492  12.531 -0.2174 -0.4559  1.4271
17767TIP3   OH274715   5.496   3.580   2.669  0.2695 -0.9251 -0.2463
17767TIP3    H174716   5.417   3.631   2.689  0.2006 -0.4945 -1.5716
17767TIP3    H274717   5.466   3.511   2.610  1.2793  0.7278 -2.7884
17768TIP3   OH274718   2.608   0.879  14.447  0.0785  0.0817  0.0657
17768TIP3    H174719   2.671   0.929  14.499 -0.0949  0.5536 -0.1831
17768TIP3    H274720   2.548   0.843  14.512 -0.4105  1.0553  0.1552
17769TIP3   OH274721   3.936   4.349   4.513  0.0669 -0.1406  0.2117
17769TIP3    H174722   4.021   4.390   4.500 -0.5368  1.3559  0.7744
17769TIP3    H274723   3.908   4.378   4.601 -1.7302  0.7598 -0.6217
17770TIP3   OH274724   4.142   2.565   1.576 -0.3437 -0.7132 -0.1039
17770TIP3    H174725   4.226   2.528   1.605  1.1222  2.0292 -0.7328
17770TIP3    H274726   4.140   2.546   1.482  0.4583  0.8306 -0.4475
17771TIP3   OH274727   5.726   5.632  14.788 -0.3845  0.3944 -0.0704
17771TIP3    H174728   5.630   5.635  14.781 -0.3746  0.2638 -0.2575
17771TIP3    H274729   5.754   5.581  14.712 -0.1825  0.2145  0.1266
17772TIP3   OH274730   3.058   5.424  10.635  1.0245  0.2722  0.3078
17772TIP3    H174731   3.000   5.369  10.581  2.3828 -0.1771 -0.7290
17772TIP3    H274732   3.099   5.483  10.572  0.0056  2.1362  1.3408
17773TIP3   OH274733   1.930   3.577  11.657  0.6530  0.0097 -0.5944
17773TIP3    H174734   1.935   3.635  11.732 -0.7567  1.1498 -1.3604
17773TIP3    H274735   1.931   3.635  11.581  0.0783 -0.9985 -1.3913
17774TIP3   OH274736   4.068   0.370   0.649 -0.1693  0.5186  0.4529
17774TIP3    H174737   4.140   0.414   0.693 -0.6178  1.6900  0.0544
17774TIP3    H274738   4.045   0.429   0.576 -0.2632 -0.7669 -0.5754
17775TIP3   OH274739   3.172   0.019   5.069 -0.4824 -0.3661 -0.5411
17775TIP3    H174740   3.188   0.112   5.053  1.4886 -0.3654  1.1874
17775TIP3    H274741   3.080   0.014   5.093 -1.0249  0.8982 -2.2697
17776TIP3   OH274742   0.564   1.627  17.006  0.2592  0.1111 -0.2082
17776TIP3    H174743   0.582   1.533  17.009  0.6110  0.1120 -2.0384
17776TIP3    H274744   0.648   1.668  17.025  0.8138  0.0700 -2.5232
17777TIP3   OH274745   2.914   4.279  14.388 -0.1492  0.2944  0.2479
17777TIP3    H174746   2.845   4.344  14.402 -1.5585 -1.6082  2.4117
17777TIP3    H274747   2.872   4.195  14.403  2.0741 -1.0539 -0.8041
17778TIP3   OH274748   1.259   6.552   2.541 -0.4316 -0.2836 -0.5890
17778TIP3    H174749   1.174   6.528   2.579 -0.3315  0.5598  0.1807
17778TIP3    H274750   1.323   6.518   2.603 -0.2507  0.5476 -0.3156
17779TIP3   OH274751   6.157   4.516   1.987  0.0324  0.1897  0.4263
17779TIP3    H174752   6.091   4.502   2.054  1.4192  0.2684  1.8290
17779TIP3    H274753   6.127   4.594   1.940 -1.1671 -0.1206  0.6684
17780TIP3   OH274754   5.118   1.443   6.039  0.1077  0.4060 -0.3846
17780TIP3    H174755   5.123   1.537   6.058 -1.2806  0.3472  0.3608
17780TIP3    H274756   5.122   1.401   6.124  1.5811 -0.2705 -0.7735
17781TIP3   OH274757   5.593   4.206  11.367 -0.3341  0.2993  0.7010
17781TIP3    H174758   5.610   4.172  11.455 -2.5873  0.6986  1.3170
17781TIP3    H274759   5.572   4.299  11.381  2.0963  1.1063 -0.5822
17782TIP3   OH274760   3.843   2.972  11.579  0.4067  0.1651 -0.1522
17782TIP3    H174761   3.926   2.986  11.626 -1.0705  0.7272  2.3829
17782TIP3    H274762   3.777   3.017  11.632 -1.6567 -0.9543 -1.6841
17783TIP3   OH274763   2.244   0.148   1.119  0.2842  0.1376  0.0688
17783TIP3    H174764   2.211   0.219   1.065  1.0658  0.1552 -0.3926
17783TIP3    H274765   2.173   0.083   1.119 -0.1796  0.6381 -0.0107
17784TIP3   OH274766   1.570   1.822   1.027 -0.2001 -0.0288  0.4926
17784TIP3    H174767   1.651   1.830   0.977  0.6075 -1.8731  1.4523
17784TIP3    H274768   1.528   1.908   1.020  0.0204 -0.1432 -3.0954
17785TIP3   OH274769   0.824   1.601   6.535 -0.0719 -0.5297  0.0641
17785TIP3    H174770   0.841   1.508   6.548 -1.2026 -0.8258 -0.5147
17785TIP3    H274771   0.735   1.614   6.567  0.4162  0.5527  1.0415
17786TIP3   OH274772   3.789   3.032   0.687 -0.3364  0.0455  0.2074
17786TIP3    H174773   3.735   2.971   0.737  0.1193  0.8414  1.7242
17786TIP3    H274774   3.765   3.118   0.722  0.0157  0.6180 -0.9389
17787TIP3   OH274775   3.239   2.400   4.998  0.5992  0.3927 -0.4073
17787TIP3    H174776   3.317   2.348   4.975  1.8094  2.1509 -0.3766
17787TIP3    H274777   3.268   2.491   4.991 -2.3680  1.1792 -3.5845
17788TIP3   OH274778   5.062   3.713   0.492  0.0503  0.1728 -0.7136
17788TIP3    H174779   5.102   3.711   0.578  1.2766  0.9331 -1.2509
17788TIP3    H274780   4.968   3.705   0.508  0.3630 -0.8760  0.6069
17789TIP3   OH274781   5.979   1.768   3.763  0.4218 -0.7365 -0.5468
17789TIP3    H174782   5.885   1.775   3.774  0.3226 -1.5142 -0.8914
17789TIP3    H274783   5.996   1.802   3.675  0.5518  0.0893 -0.2085
17790TIP3   OH274784   2.656   4.037   3.088  0.6916  0.2928  0.4387
17790TIP3    H174785   2.672   4.124   3.124  0.6371  0.5092 -0.0469
17790TIP3    H274786   2.563   4.021   3.104  0.3346  0.9916 -0.8720
17791TIP3   OH274787   4.392   5.646   1.709 -0.3172 -0.0147  0.1416
17791TIP3    H174788   4.413   5.611   1.623 -1.8600  0.4300 -0.4225
17791TIP3    H274789   4.303   5.680   1.701  0.1149  1.5250  1.4461
17792TIP3   OH274790   2.223   2.550  11.596 -0.7671  0.1620  0.1585
17792TIP3    H174791   2.299   2.582  11.547 -2.0911  0.7986 -1.4810
17792TIP3    H274792   2.223   2.603  11.676 -0.6940  1.5825 -0.7776
17793TIP3   OH274793   2.134   0.254  13.921  0.1755 -0.6228  0.1482
17793TIP3    H174794   2.042   0.257  13.947  0.0444 -0.3988 -0.3360
17793TIP3    H274795   2.180   0.306  13.987 -0.1962  0.1922 -0.2200
17794TIP3   OH274796   3.510   4.276  10.244 -0.0314  0.0286  0.8779
17794TIP3    H174797   3.603   4.276  10.268  0.2325  2.1012 -0.0114
17794TIP3    H274798   3.503   4.207  10.177  0.9344  0.0863  0.7068
17795TIP3   OH274799   0.219   2.196   2.619 -0.3405  0.1650 -0.0229
17795TIP3    H174800   0.176   2.272   2.581 -0.6042  1.0658  2.0158
17795TIP3    H274801   0.148   2.133   2.633 -1.0685  1.6397  3.3177
17796TIP3   OH274802   0.087   4.769   4.091 -0.6039 -0.8220 -0.0565
17796TIP3    H174803   0.017   4.824   4.125  0.3777 -0.1361  0.8759
17796TIP3    H274804   0.048   4.723   4.017 -1.0657  2.1540 -1.7392
17797TIP3   OH274805   4.713   2.144  16.127  0.1709  0.4418  0.2210
17797TIP3    H174806   4.633   2.098  16.103  1.0627 -0.5358 -0.9162
17797TIP3    H274807   4.747   2.178  16.044  1.7217 -0.4148  0.4935
17798TIP3   OH274808   4.932   5.030  11.804  0.5347  0.0826 -0.7774
17798TIP3    H174809   4.962   4.947  11.767 -0.7961 -0.2487 -1.1531
17798TIP3    H274810   4.891   5.006  11.887  0.3535  0.3915 -0.7771
17799TIP3   OH274811   6.040   1.172   2.765  0.0781  0.3787 -0.6113
17799TIP3    H174812   5.977   1.242   2.783  0.3614  0.4875 -0.0201
17799TIP3    H274813   6.122   1.217   2.749  0.7861  0.0983  2.0588
17800TIP3   OH274814   2.208   6.299  11.415  0.1828 -0.1203  0.5529
17800TIP3    H174815   2.224   6.378  11.363  0.4396  0.0455  0.8790
17800TIP3    H274816   2.268   6.234  11.377 -0.3363 -0.2844  0.0070
17801TIP3   OH274817   5.840   1.910  12.105  0.5841  0.4954  0.4383
17801TIP3    H174818   5.880   1.837  12.152  0.9029  0.9469  0.8805
17801TIP3    H274819   5.782   1.951  12.170 -0.0362  0.2847  0.0187
17802TIP3   OH274820   1.885   1.122  13.447 -0.2434  0.2083  0.5245
17802TIP3    H174821   1.927   1.159  13.369 -2.3813 -0.7170 -1.0801
17802TIP3    H274822   1.931   1.040  13.462  0.4502  0.5851  0.4955
17803TIP3   OH274823   5.761   0.937  16.623  0.1683  0.5959  0.0045
17803TIP3    H174824   5.687   0.994  16.604  0.0048  0.2549 -0.3807
17803TIP3    H274825   5.786   0.901  16.538 -0.8316 -1.2675  0.4785
17804TIP3   OH274826   1.169   0.045   5.791  0.0738 -0.1566  0.3761
17804TIP3    H174827   1.144  -0.021   5.726 -0.4355 -1.2394  1.6594
17804TIP3    H274828   1.207   0.116   5.739 -0.7854 -0.7873 -1.1567
17805TIP3   OH274829   1.743   5.947  10.744  0.2222 -0.1983 -0.3541
17805TIP3    H174830   1.681   5.877  10.725 -0.9515  1.5736 -3.5116
17805TIP3    H274831   1.816   5.932  10.684  2.1530 -1.2817  2.1599
17806TIP3   OH274832   5.839   5.515   2.092 -0.4669  0.1705 -0.0618
17806TIP3    H174833   5.928   5.525   2.127 -0.9068 -0.2232  1.1605
17806TIP3    H274834   5.830   5.588   2.031  0.6360  0.3195 -0.0676
17807TIP3   OH274835   2.968   1.918   4.375  0.1018  0.1401  0.0004
17807TIP3    H174836   2.880   1.891   4.400  1.1113 -0.6761  2.8810
17807TIP3    H274837   2.969   2.012   4.391 -0.1640  0.1031  0.2458
17808TIP3   OH274838   3.749   1.100  15.203  0.2317  0.1502 -0.3852
17808TIP3    H174839   3.840   1.111  15.175  0.2792  1.4479  0.2326
17808TIP3    H274840   3.742   1.007  15.225  1.2463 -0.0752 -0.9739
17809TIP3   OH274841   4.605   2.331  14.664  0.2064  0.4709 -0.4779
17809TIP3    H174842   4.558   2.406  14.628  0.5391  0.0507 -1.8187
17809TIP3    H274843   4.564   2.254  14.623 -0.7413 -0.1459  1.5844
17810TIP3   OH274844   0.910   6.685  13.757  0.2616 -0.2117  0.1122
17810TIP3    H174845   0.950   6.604  13.787 -1.1075 -1.7410 -2.0665
17810TIP3    H274846   0.974   6.721  13.695 -0.1720 -0.8513 -0.7115
17811TIP3   OH274847   0.561   3.864  16.224  0.3450  0.1148 -0.3175
17811TIP3    H174848   0.513   3.851  16.306 -1.9361  2.1770 -1.2268
17811TIP3    H274849   0.509   3.817  16.158 -0.8937  2.8942 -1.4209
17812TIP3   OH274850   4.082   5.350  13.460  0.0411 -0.1228 -0.1656
17812TIP3    H174851   4.082   5.309  13.374  0.4010 -0.0683 -0.1881
17812TIP3    H274852   3.998   5.396  13.464 -0.0109 -0.1918 -0.4525
17813TIP3   OH274853   4.944   2.231   1.482 -0.1582  0.2749  0.1432
17813TIP3    H174854   4.850   2.230   1.465  0.2045 -0.7101 -2.1024
17813TIP3    H274855   4.963   2.144   1.516  0.0706  0.1834 -0.2183
17814TIP3   OH274856   5.959   0.652   2.075  0.0465  0.2917  0.2722
17814TIP3    H174857   6.002   0.567   2.062 -0.7932  0.0002 -0.6830
17814TIP3    H274858   5.866   0.632   2.077 -0.1543  1.1813  0.1495
17815TIP3   OH274859   3.503   2.341   0.474  0.3947 -0.1735 -0.3408
17815TIP3    H174860   3.555   2.414   0.439  0.3149  0.1045  0.1085
17815TIP3    H274861   3.478   2.370   0.561 -0.3561 -0.3836 -0.4822
17816TIP3   OH274862   5.709   1.834   1.319 -0.3034 -0.2735  0.4890
17816TIP3    H174863   5.687   1.853   1.410 -2.0543  1.2862 -0.2128
17816TIP3    H274864   5.700   1.918   1.274  0.5677 -1.0133 -1.1190
17817TIP3   OH274865   1.884   3.201   2.333  0.5303 -0.2837  0.0857
17817TIP3    H174866   1.921   3.278   2.376  0.3047 -0.3656  0.4329
17817TIP3    H274867   1.848   3.234   2.251  4.1766 -0.7287 -1.8041
17818TIP3   OH274868   0.762   5.891   1.616  0.0260  0.5285 -0.1389
17818TIP3    H174869   0.796   5.823   1.674 -1.3582 -0.5146 -0.5428
17818TIP3    H274870   0.816   5.968   1.636  1.3044 -0.5481  0.6373
17819TIP3   OH274871   0.327   1.823   2.795 -0.0394  0.4632 -0.3051
17819TIP3    H174872   0.360   1.861   2.876 -0.3619 -0.4443  0.2723
17819TIP3    H274873   0.304   1.733   2.819 -0.2631  0.2277 -1.3728
17820TIP3   OH274874   2.155   2.021  11.205  0.1694  0.1939 -0.5955
17820TIP3    H174875   2.176   2.115  11.208  0.8044  0.0682 -1.1222
17820TIP3    H274876   2.159   1.993  11.297  2.2113  0.2014 -0.6620
17821TIP3   OH274877   5.598   4.800  15.901  0.3989 -0.2623 -0.3797
17821TIP3    H174878   5.617   4.708  15.916  0.9589  0.0217  0.6862
17821TIP3    H274879   5.575   4.805  15.808  0.1431 -1.5050 -0.3937
17822TIP3   OH274880   2.402   4.808   5.026 -0.0540  0.1927  0.0261
17822TIP3    H174881   2.429   4.845   5.110 -0.5341  0.0047  0.2646
17822TIP3    H274882   2.306   4.807   5.030 -0.0537 -0.6119 -0.1780
17823TIP3   OH274883   3.638   5.043  10.611  0.0021 -0.1545  0.4029
17823TIP3    H174884   3.665   5.125  10.651 -2.4800  0.5327  0.7951
17823TIP3    H274885   3.635   5.062  10.517 -2.0243  0.7034  0.6112
17824TIP3   OH274886   1.095   0.093   3.726 -0.1315  0.2884  0.1314
17824TIP3    H174887   1.069   0.180   3.755  3.0571  1.2771  0.1885
17824TIP3    H274888   1.063   0.086   3.637 -2.3711  0.6164  0.8931
17825TIP3   OH274889   3.521   3.155   2.246 -0.4874  0.9083 -0.1197
17825TIP3    H174890   3.571   3.074   2.258 -0.5319  0.6852 -1.3457
17825TIP3    H274891   3.524   3.198   2.331 -1.2752 -0.8317  0.8051
17826TIP3   OH274892   2.323   1.263   5.327 -0.3047  0.3205 -0.1875
17826TIP3    H174893   2.387   1.204   5.288  1.0571  1.7928 -0.2123
17826TIP3    H274894   2.375   1.334   5.364 -1.9562  1.8864 -0.7955
17827TIP3   OH274895   0.271   6.413  15.121 -0.4902  0.2104  0.0656
17827TIP3    H174896   0.286   6.376  15.034 -0.1587  0.5429 -0.0198
17827TIP3    H274897   0.184   6.453  15.115 -1.7582 -2.3299  0.7762
17828TIP3   OH274898   4.040   2.317   1.867 -0.1793 -0.2448 -0.2489
17828TIP3    H174899   3.954   2.359   1.858  0.3280  0.5663 -1.4481
17828TIP3    H274900   4.030   2.232   1.826 -0.2651  0.0706 -0.8902
17829TIP3   OH274901   3.561   0.313   5.644 -0.5009  0.5269 -0.1357
17829TIP3    H174902   3.466   0.309   5.656 -0.4374  0.3153  0.3102
17829TIP3    H274903   3.591   0.368   5.717 -0.2352  0.2453 -0.0357
17830TIP3   OH274904   3.917   2.528  11.878  0.3999  0.6114  0.3039
17830TIP3    H174905   3.910   2.464  11.808  0.7579 -0.3327  1.1202
17830TIP3    H274906   3.848   2.592  11.859  0.5565  0.4262 -0.9504
17831TIP3   OH274907   5.029   3.039  11.159  0.1014 -0.4810  0.0755
17831TIP3    H174908   5.096   3.099  11.127  0.3153 -0.6211  0.2593
17831TIP3    H274909   4.956   3.051  11.099  0.6648 -1.0678 -0.7548
17832TIP3   OH274910   0.277   5.047  14.776  0.2898 -0.2051 -0.1703
17832TIP3    H174911   0.258   4.992  14.700  1.2671 -2.2634  1.0200
17832TIP3    H274912   0.217   5.121  14.768  0.0104 -0.6619 -2.6448
17833TIP3   OH274913   0.220   2.977   5.462  0.1860 -0.3405  0.4129
17833TIP3    H174914   0.252   2.996   5.374 -3.5098  2.1095 -0.4878
17833TIP3    H274915   0.181   2.890   5.455  0.5682 -0.4649 -0.1624
17834TIP3   OH274916   5.937   3.455  16.238 -0.0022 -0.4662  0.0144
17834TIP3    H174917   5.991   3.489  16.310  0.2532  0.4027 -0.5729
17834TIP3    H274918   5.995   3.459  16.162 -2.0129  4.1043 -1.4493
17835TIP3   OH274919   2.460   1.960  14.686  0.7716 -0.0010 -0.1811
17835TIP3    H174920   2.399   2.000  14.625  1.4591  1.0578 -0.2019
17835TIP3    H274921   2.515   1.904  14.632  0.2814 -0.3900 -0.2719
17836TIP3   OH274922   5.200   2.901   0.171 -1.1726  0.3441  0.8606
17836TIP3    H174923   5.289   2.866   0.164 -1.7957 -1.2580  0.5495
17836TIP3    H274924   5.205   2.988   0.132 -0.4601 -1.0753 -2.3907
17837TIP3   OH274925   3.610   6.288  13.271  0.0234  0.0179  1.0032
17837TIP3    H174926   3.591   6.345  13.196 -0.3911 -0.9434  0.3541
17837TIP3    H274927   3.536   6.299  13.330 -0.3195 -0.2555  0.6242
17838TIP3   OH274928   5.167   1.980  13.590  0.4694 -0.2593 -0.1002
17838TIP3    H174929   5.217   2.055  13.622 -0.1963  0.6210 -1.0558
17838TIP3    H274930   5.232   1.922  13.551  0.8263  0.5866 -0.7826
17839TIP3   OH274931   5.836   0.624   2.474 -0.2797 -0.1240  0.5303
17839TIP3    H174932   5.821   0.698   2.414 -1.3654 -1.1271 -0.4791
17839TIP3    H274933   5.923   0.592   2.451 -0.2015  0.2426  0.3058
17840TIP3   OH274934   5.464   5.971  13.251  0.1855  0.0928 -0.3492
17840TIP3    H174935   5.552   5.947  13.223  0.6264  1.9267 -0.5873
17840TIP3    H274936   5.472   5.990  13.345 -0.5570 -2.5193  0.2828
17841TIP3   OH274937   6.101   2.285   1.551 -0.0738  0.3275 -0.3491
17841TIP3    H174938   6.057   2.229   1.615 -0.7083  1.0865 -0.1200
17841TIP3    H274939   6.186   2.242   1.537 -0.0524 -0.0132  0.7606
17842TIP3   OH274940   0.859   6.711  11.541 -0.1142 -0.2935  0.3194
17842TIP3    H174941   0.945   6.746  11.518 -0.5914  1.3844  1.0043
17842TIP3    H274942   0.816   6.783  11.587 -1.1162 -1.8073  1.7851
17843TIP3   OH274943   1.189   6.648   0.601  0.3266 -0.5773  0.1063
17843TIP3    H174944   1.119   6.689   0.652 -0.2702 -0.2229 -0.9749
17843TIP3    H274945   1.269   6.687   0.635 -0.1742  0.8414 -0.2995
17844TIP3   OH274946   5.904   0.221  12.582 -0.4171  0.0068 -0.1992
17844TIP3    H174947   5.972   0.155  12.568  1.3995  1.2146  2.5137
17844TIP3    H274948   5.931   0.295  12.527 -0.4311 -0.1050 -0.3583
17845TIP3   OH274949   0.027   5.185  12.320  0.1175  0.2444 -0.4672
17845TIP3    H174950  -0.010   5.227  12.398  0.0528  0.3106 -0.5331
17845TIP3    H274951   0.110   5.231  12.305 -0.4179  1.0316 -1.1206
17846TIP3   OH274952   2.146   1.489  14.274 -0.2043  0.6004 -0.4584
17846TIP3    H174953   2.053   1.484  14.251 -0.4944  2.2368  0.3093
17846TIP3    H274954   2.164   1.408  14.320 -0.9240 -0.3162 -1.7610
17847TIP3   OH274955   0.820   1.210   4.403 -0.5518 -0.4243 -0.1583
17847TIP3    H174956   0.781   1.143   4.346  0.5047 -0.3891 -0.9534
17847TIP3    H274957   0.864   1.161   4.472  0.5435 -0.5795 -0.9527
17848TIP3   OH274958   2.004   6.684   4.689 -0.2827 -0.0074 -0.2795
17848TIP3    H174959   2.028   6.592   4.679  1.8856  0.8897 -4.2097
17848TIP3    H274960   1.910   6.687   4.669 -0.2618 -1.2558 -0.5780
17849TIP3   OH274961   6.123   4.648  10.984  0.5443  0.2201  0.6503
17849TIP3    H174962   6.143   4.567  10.937  0.7530 -0.0174  1.1423
17849TIP3    H274963   6.195   4.707  10.962  0.1456  0.4431 -0.0927
17850TIP3   OH274964   1.282   4.511  13.841 -0.4063 -0.2000  0.3641
17850TIP3    H174965   1.309   4.419  13.847  0.8747 -0.0853 -2.4551
17850TIP3    H274966   1.363   4.560  13.850 -0.5128  0.4378 -1.7318
17851TIP3   OH274967   4.183   5.576  13.252 -0.0257 -0.8929 -0.3646
17851TIP3    H174968   4.221   5.632  13.320 -1.2115 -1.2571  0.6240
17851TIP3    H274969   4.255   5.521  13.222  0.4023 -1.0311  0.9145
17852TIP3   OH274970   2.505   6.540  12.833 -0.3436 -0.5290  0.0979
17852TIP3    H174971   2.519   6.562  12.925 -1.1350 -1.1861  0.3836
17852TIP3    H274972   2.416   6.570  12.814 -1.1361 -2.7097  0.2703
17853TIP3   OH274973   1.202   2.833   2.813 -0.1144  0.1733 -0.0997
17853TIP3    H174974   1.113   2.812   2.784  0.8452 -0.9347 -2.4022
17853TIP3    H274975   1.253   2.755   2.791  1.6575  1.2472  0.1011
17854TIP3   OH274976   3.173   3.571  13.311  0.6265  0.2785 -0.1589
17854TIP3    H174977   3.250   3.516  13.329  1.3062  1.0787 -0.5558
17854TIP3    H274978   3.178   3.588  13.217 -0.5279 -0.3830 -0.3431
17855TIP3   OH274979   3.791   5.978  10.914  0.7829  1.4010 -0.4266
17855TIP3    H174980   3.843   6.055  10.938  0.1335  1.6069  0.3252
17855TIP3    H274981   3.702   6.012  10.905 -0.0430  0.2484  2.7078
17856TIP3   OH274982   1.187   6.763   4.185 -0.5740 -0.3166 -0.2877
17856TIP3    H174983   1.253   6.762   4.116  0.6053  0.9943  0.8026
17856TIP3    H274984   1.113   6.715   4.147 -0.2882  1.1117 -2.7891
17857TIP3   OH274985   5.534   5.148   1.385  0.1988 -0.4160 -0.7438
17857TIP3    H174986   5.486   5.073   1.422 -0.4949 -0.1615 -1.1117
17857TIP3    H274987   5.465   5.208   1.356  0.7520  0.7073  0.2310
17858TIP3   OH274988   3.726   3.813   2.445  0.1220  0.2086  0.0854
17858TIP3    H174989   3.733   3.805   2.540 -0.2426  2.9338  0.3791
17858TIP3    H274990   3.815   3.830   2.415  0.4634 -1.9508 -0.2557
17859TIP3   OH274991   0.558   0.673  12.697 -0.2952 -0.1727  0.6226
17859TIP3    H174992   0.533   0.718  12.616 -1.0998  0.6467  1.3114
17859TIP3    H274993   0.589   0.744  12.754  0.4116 -0.7658  0.9794
17860TIP3   OH274994   0.506   1.557   6.152 -0.8605  0.3293  0.1834
17860TIP3    H174995   0.570   1.627   6.167  0.4453 -1.0349  1.1964
17860TIP3    H274996   0.423   1.602   6.140 -0.4149  1.9823  2.9332
17861TIP3   OH274997   5.476   5.288   2.593 -0.2731  0.1612 -0.1923
17861TIP3    H174998   5.513   5.303   2.506 -0.5859  0.3541 -0.2949
17861TIP3    H274999   5.528   5.343   2.651  0.3135 -0.4112 -0.1672
17862TIP3   OH275000   3.222   5.821  16.340  0.1462  0.1054 -0.6096
17862TIP3    H175001   3.295   5.781  16.387 -0.4858 -2.8941 -2.0561
17862TIP3    H275002   3.151   5.758  16.347 -0.6204  0.5183 -3.7348
17863TIP3   OH275003   0.715   0.086   3.693 -0.2191 -0.1296  0.1626
17863TIP3    H175004   0.756   0.114   3.611 -0.6160 -0.3533 -0.1118
17863TIP3    H275005   0.754   0.001   3.711  0.6024  0.3562  0.7259
17864TIP3   OH275006   5.821   4.898   3.767  0.9004 -0.4993  0.0127
17864TIP3    H175007   5.856   4.937   3.688  1.7115 -1.6345 -0.2084
17864TIP3    H275008   5.728   4.920   3.767  1.1322  0.4661 -0.6597
17865TIP3   OH275009   6.655   1.782   6.586 -0.0352  0.2233 -0.3085
17865TIP3    H175010   6.714   1.784   6.662 -0.6967 -0.2615  0.2294
17865TIP3    H275011   6.572   1.752   6.622 -0.4035  0.1694 -1.2029
17866TIP3   OH275012   3.522   1.816   1.082  0.2845 -0.0200 -0.0964
17866TIP3    H175013   3.540   1.909   1.066 -0.4230  0.2061  0.3731
17866TIP3    H275014   3.512   1.778   0.995  0.6298  0.3320 -0.2930
17867TIP3   OH275015   0.597   0.446  14.050 -0.3428  0.4679  0.5730
17867TIP3    H175016   0.610   0.433  13.956  1.1557 -1.8940  1.0586
17867TIP3    H275017   0.685   0.461  14.085 -0.6519 -0.6431  1.8607
17868TIP3   OH275018   0.020   1.114   2.470  0.5975  0.2620 -0.0553
17868TIP3    H175019   0.057   1.072   2.547 -1.0642  1.4799  1.4558
17868TIP3    H275020  -0.071   1.131   2.494  0.0643  0.6921 -2.2810
17869TIP3   OH275021   3.169   5.470   4.633  0.1025 -0.1094  0.1165
17869TIP3    H175022   3.123   5.499   4.711 -2.4062  0.8872 -1.6584
17869TIP3    H275023   3.111   5.407   4.592  0.5313  0.7417 -1.8896
17870TIP3   OH275024   0.931   0.115  17.084 -0.4185  0.6652 -0.3519
17870TIP3    H175025   0.995   0.085  17.149 -0.6172 -0.1199 -0.5093
17870TIP3    H275026   0.858   0.148  17.137 -1.0509 -0.9934 -0.1535
17871TIP3   OH275027   1.769   6.519   4.808 -0.4351  0.4311  0.1723
17871TIP3    H175028   1.761   6.424   4.819 -0.8137  0.4963  0.5038
17871TIP3    H275029   1.683   6.553   4.833  0.5143  1.0848  2.6692
17872TIP3   OH275030   2.651   6.525  13.857  0.1736 -0.1169  0.1937
17872TIP3    H175031   2.556   6.526  13.857  0.0678 -3.6860  0.2005
17872TIP3    H275032   2.676   6.495  13.770  1.2517  0.2014  0.3784
17873TIP3   OH275033   1.148   3.645   5.670 -0.4512  0.1891 -0.6870
17873TIP3    H175034   1.194   3.625   5.751 -0.3977 -0.4971 -0.8878
17873TIP3    H275035   1.083   3.712   5.695  1.8617  2.5413 -0.7565
17874TIP3   OH275036   3.712   0.543  11.632 -0.2584 -0.3709  0.1516
17874TIP3    H175037   3.691   0.462  11.585 -0.7516 -0.1393 -0.0273
17874TIP3    H275038   3.790   0.521  11.683  1.1802 -0.1644 -1.9268
17875TIP3   OH275039   6.665   5.351  15.463 -0.3776  0.0954  0.0548
17875TIP3    H175040   6.640   5.418  15.400 -2.7954 -0.5156  0.3262
17875TIP3    H275041   6.586   5.333  15.512  1.2416 -0.1003  2.6929
17876TIP3   OH275042   2.563   0.421   5.059  0.3664 -0.0286 -0.2465
17876TIP3    H175043   2.509   0.485   5.105  0.6438  0.5850 -0.7749
17876TIP3    H275044   2.517   0.404   4.977 -0.6764 -1.9154  0.6909
17877TIP3   OH275045   0.963   4.122   2.386 -0.0625 -0.4772  0.0883
17877TIP3    H175046   0.872   4.095   2.373 -0.4429  0.5237  0.5782
17877TIP3    H275047   0.972   4.134   2.480  1.2414 -2.7674  0.2983
17878TIP3   OH275048   2.491   2.916   1.280 -0.2595 -0.5738 -0.1758
17878TIP3    H175049   2.470   2.903   1.187 -2.5498 -1.1746  0.3941
17878TIP3    H275050   2.580   2.881   1.289  1.0213  1.7582 -2.6219
17879TIP3   OH275051   2.282   3.715   2.943  0.3870  0.5656 -0.4542
17879TIP3    H175052   2.302   3.672   3.027 -0.5745  1.4997  0.2675
17879TIP3    H275053   2.235   3.648   2.893 -0.9609  0.6768  0.6031
17880TIP3   OH275054   3.401   2.669   0.571  0.0389 -1.0248 -0.0685
17880TIP3    H175055   3.385   2.593   0.627 -0.6755  0.1095  1.2906
17880TIP3    H275056   3.339   2.659   0.498 -1.5675 -0.6312  1.2213
17881TIP3   OH275057   4.499   3.714  12.389 -0.3194  0.4632 -0.3569
17881TIP3    H175058   4.509   3.620  12.402  1.4811  0.8583  1.3536
17881TIP3    H275059   4.473   3.747  12.475  0.5071  1.7076 -0.5719
17882TIP3   OH275060   5.134   3.600  11.812 -0.1818  0.4394  0.0262
17882TIP3    H175061   5.121   3.565  11.723 -1.1849  0.1288  0.2844
17882TIP3    H275062   5.180   3.531  11.859  0.9735  0.8814 -0.4409
17883TIP3   OH275063   2.539   4.281   1.329  0.7070 -0.0049  0.1624
17883TIP3    H175064   2.515   4.352   1.388  1.4417  0.2871  0.1032
17883TIP3    H275065   2.631   4.264   1.347  0.4454 -1.1859  0.4374
17884TIP3   OH275066   1.326   1.185  16.520 -0.4026  0.9255  0.0296
17884TIP3    H175067   1.294   1.138  16.597 -1.0776  0.9248 -0.2431
17884TIP3    H275068   1.403   1.135  16.491 -0.4311  0.6525  0.4199
17885TIP3   OH275069   3.689   4.146   5.075  0.4007  0.0870 -0.0598
17885TIP3    H175070   3.734   4.184   5.149 -1.6753  2.5714 -0.0129
17885TIP3    H275071   3.749   4.156   5.001  1.5530 -0.3652  0.8114
17886TIP3   OH275072   3.144   6.301  14.976  0.2911  0.0796  0.0225
17886TIP3    H175073   3.124   6.227  15.033  0.0848 -0.3677 -0.6274
17886TIP3    H275074   3.234   6.285  14.946 -0.3664 -0.8404 -1.5218
17887TIP3   OH275075   2.922   2.080  12.875 -0.4623  1.0836 -0.0341
17887TIP3    H175076   2.828   2.085  12.891 -0.1571  4.2322  1.2348
17887TIP3    H275077   2.954   2.016  12.938 -1.5459  1.2659  0.7228
17888TIP3   OH275078   5.367   0.637   2.138  0.2035 -0.4216 -0.3327
17888TIP3    H175079   5.296   0.574   2.151 -2.2315  2.7810  2.7910
17888TIP3    H275080   5.428   0.620   2.209 -0.5670  0.7936  0.6481
17889TIP3   OH275081   4.219   1.594  16.428 -0.5200 -0.5724  0.1879
17889TIP3    H175082   4.304   1.551  16.436 -0.7807 -0.8072  1.9242
17889TIP3    H275083   4.239   1.680  16.392  0.6349 -0.0644  1.9539
17890TIP3   OH275084   0.425   3.302   2.737  0.4873  0.4768  0.1682
17890TIP3    H175085   0.471   3.356   2.673  0.6955 -0.0217 -0.1102
17890TIP3    H275086   0.461   3.327   2.821 -0.6232  1.9822  0.2147
17891TIP3   OH275087   4.022   5.138   3.054 -0.3789 -0.0931 -0.0637
17891TIP3    H175088   3.988   5.103   2.972  1.2502  1.8535 -1.6112
17891TIP3    H275089   4.117   5.139   3.042 -0.1439  0.4774  1.7418
17892TIP3   OH275090   6.234   0.774  12.568  0.5109 -0.7566  0.4559
17892TIP3    H175091   6.278   0.858  12.560  0.5728 -0.9316 -1.0643
17892TIP3    H275092   6.298   0.710  12.539 -0.3839 -1.0970 -0.8283
17893TIP3   OH275093   5.162   3.514   3.302  0.1936  0.4557  0.4985
17893TIP3    H175094   5.214   3.435   3.289 -0.8418 -0.3833  1.3861
17893TIP3    H275095   5.120   3.502   3.386 -0.6768  1.5719  0.2415
17894TIP3   OH275096   5.907   6.062   3.814 -0.2780  0.3921 -0.4217
17894TIP3    H175097   5.877   5.996   3.877  2.0658 -0.6035 -0.2986
17894TIP3    H275098   5.902   6.145   3.862 -1.9552  0.1387 -0.1312
17895TIP3   OH275099   0.317   6.716   5.894  0.3984  0.8781  0.2460
17895TIP3    H175100   0.255   6.653   5.858  1.2697  1.2019 -1.8581
17895TIP3    H275101   0.310   6.792   5.837  0.8673  1.9186  1.5398
17896TIP3   OH275102   0.208   4.444  11.514 -0.0839 -0.1580  0.2820
17896TIP3    H175103   0.208   4.386  11.590 -0.8222  1.5649  1.6216
17896TIP3    H275104   0.187   4.531  11.549  2.7393  1.2926 -1.4257
17897TIP3   OH275105   4.795   4.429   1.893  0.3117  0.4259 -0.5147
17897TIP3    H175106   4.842   4.388   1.820  0.1007  1.4247 -1.2249
17897TIP3    H275107   4.742   4.358   1.930 -0.9229  0.2912 -2.4521
17898TIP3   OH275108   3.282   2.208  15.411 -0.0368 -0.0130  0.5583
17898TIP3    H175109   3.326   2.150  15.473  0.6144  0.4491  0.5272
17898TIP3    H275110   3.347   2.225  15.343 -1.6052 -2.7405 -1.7424
17899TIP3   OH275111   0.780   1.161   1.178  0.3845  0.0889 -0.2126
17899TIP3    H175112   0.698   1.110   1.174  0.4715 -0.1242  0.5483
17899TIP3    H275113   0.765   1.235   1.120  0.2275 -0.7788 -1.2964
17900TIP3   OH275114   6.568   5.960   1.955 -0.5162  0.1673 -0.1491
17900TIP3    H175115   6.626   5.893   1.920 -3.7191 -2.2882 -0.9906
17900TIP3    H275116   6.573   5.949   2.050  1.0134  0.5748 -0.1683
17901TIP3   OH275117   0.990   1.424  13.570 -0.6174  0.2834  0.1432
17901TIP3    H175118   0.955   1.339  13.542  0.0170 -0.1049  0.5143
17901TIP3    H275119   0.947   1.488  13.513  1.1633 -0.5517 -2.2089
17902TIP3   OH275120   0.180   2.735  15.014  0.3000  0.3297 -0.5506
17902TIP3    H175121   0.259   2.748  15.067  0.1387 -1.6885  0.2268
17902TIP3    H275122   0.111   2.717  15.078 -0.5275  0.7784 -1.3015
17903TIP3   OH275123   2.816   2.865  16.095 -0.4466 -0.1117 -0.5882
17903TIP3    H175124   2.809   2.786  16.150 -2.0341 -0.6879 -1.5893
17903TIP3    H275125   2.883   2.843  16.030  0.9573  0.3267  0.6940
17904TIP3   OH275126   5.760   2.729  14.844 -0.6441 -0.0701 -0.6362
17904TIP3    H175127   5.732   2.773  14.924 -0.3295 -0.0286 -0.5485
17904TIP3    H275128   5.853   2.749  14.837 -0.4113 -1.0525 -0.3928
17905TIP3   OH275129   0.219   4.067   4.862  0.0571 -0.3927 -0.8280
17905TIP3    H175130   0.295   4.069   4.919 -0.5884 -1.7276  0.0988
17905TIP3    H275131   0.255   4.079   4.774  1.6483 -3.3123 -0.6639
17906TIP3   OH275132   0.679   4.665   6.062 -0.1898 -0.7921  0.6707
17906TIP3    H175133   0.696   4.629   6.149  1.2460  2.0817  1.6391
17906TIP3    H275134   0.658   4.757   6.078  1.5703  0.1628 -2.1387
17907TIP3   OH275135   5.238   0.392  13.391 -0.1529 -0.5331  0.3764
17907TIP3    H175136   5.332   0.379  13.407  0.5834  1.9300 -1.7034
17907TIP3    H275137   5.211   0.314  13.342  1.1027 -0.6409 -0.1664
17908TIP3   OH275138   0.263   1.991   1.814  0.2518  0.5585  0.0968
17908TIP3    H175139   0.218   1.980   1.729  1.3237  1.7329 -0.6514
17908TIP3    H275140   0.255   2.085   1.832  0.9389  0.4822  0.8010
17909TIP3   OH275141   5.805   2.769   1.349  0.5072  0.2363  0.3859
17909TIP3    H175142   5.821   2.863   1.341 -1.0622  0.4162 -0.7042
17909TIP3    H275143   5.890   2.728   1.330  1.2954  1.4359  1.2935
17910TIP3   OH275144   4.977   0.532   3.046 -0.0924  0.2012  0.2744
17910TIP3    H175145   5.056   0.538   2.993 -1.1168  0.3690 -1.2734
17910TIP3    H275146   4.990   0.595   3.117  0.9733  0.5266 -0.2051
17911TIP3   OH275147   5.549   0.551  16.731 -0.7954 -0.1667 -0.1177
17911TIP3    H175148   5.538   0.644  16.752  0.2247  0.2934 -1.5483
17911TIP3    H275149   5.640   0.543  16.702 -1.0623 -1.4761 -0.6451
17912TIP3   OH275150   2.009   2.299  12.739  0.1856 -0.0523 -0.5529
17912TIP3    H175151   2.054   2.242  12.677 -0.1137  0.7192 -1.4954
17912TIP3    H275152   2.064   2.297  12.818  0.6911 -0.8604 -0.9177
17913TIP3   OH275153   5.157   1.336  13.845  0.0368 -0.8444  0.1063
17913TIP3    H175154   5.230   1.311  13.901 -0.1252 -0.9443  0.2756
17913TIP3    H275155   5.136   1.426  13.871  1.5658 -0.0015 -1.5193
17914TIP3   OH275156   5.608   0.143  10.909 -0.0689  0.8556 -0.0784
17914TIP3    H175157   5.542   0.150  10.839 -0.4681  0.0665  0.2226
17914TIP3    H275158   5.675   0.086  10.872  0.4222  1.5974 -0.3558
17915TIP3   OH275159   0.688   2.135   0.384  0.5651 -0.1635 -0.1513
17915TIP3    H175160   0.694   2.062   0.323  2.8844 -0.7478  0.7071
17915TIP3    H275161   0.673   2.212   0.329  1.5291 -0.8266 -1.3520
17916TIP3   OH275162   4.836   3.968   5.127 -0.0298 -0.1810 -0.1774
17916TIP3    H175163   4.776   3.987   5.055  1.8131  1.3085 -1.3452
17916TIP3    H275164   4.866   3.878   5.111  1.2038  0.5126 -1.9109
17917TIP3   OH275165   3.159   5.438  16.855  0.2462 -0.0732 -0.3750
17917TIP3    H175166   3.162   5.486  16.772  1.0290  1.0436  0.2854
17917TIP3    H275167   3.170   5.505  16.922  2.5633 -1.2931  0.5268
17918TIP3   OH275168   4.409   1.266   2.156  0.0404  0.1241  0.4883
17918TIP3    H175169   4.447   1.179   2.166 -0.6326 -0.1395  0.7214
17918TIP3    H275170   4.437   1.314   2.234 -1.0917 -0.4312  1.2406
17919TIP3   OH275171   3.839   2.963   6.196 -0.3916  0.1377  0.5170
17919TIP3    H175172   3.900   2.962   6.270 -1.0619 -0.9315  1.0593
17919TIP3    H275173   3.803   3.052   6.196  0.8305  0.6518  0.4545
17920TIP3   OH275174   3.506   2.800  13.050  0.1460  0.0206 -0.1202
17920TIP3    H175175   3.595   2.766  13.054 -0.3508 -1.1674  1.1160
17920TIP3    H275176   3.475   2.777  12.962  0.4964 -0.9744  0.0191
17921TIP3   OH275177   4.614   2.095  13.134  0.5924  0.5588 -0.3622
17921TIP3    H175178   4.655   2.037  13.070 -0.0415 -0.0886 -0.1827
17921TIP3    H275179   4.528   2.056  13.151  0.3977  1.2189  0.2085
17922TIP3   OH275180   4.234   4.902  14.177  0.2410  0.0585 -0.0946
17922TIP3    H175181   4.312   4.893  14.122 -0.8457 -0.8400 -1.5546
17922TIP3    H275182   4.191   4.981  14.144  0.1666  0.1581  0.2392
17923TIP3   OH275183   3.989   0.678  13.352  0.6313  0.1636 -0.1853
17923TIP3    H175184   4.008   0.741  13.421 -0.3903  1.4269 -1.0373
17923TIP3    H275185   3.946   0.605  13.396  0.0575  0.9248  0.5226
17924TIP3   OH275186   3.140   1.555  14.691  0.1625 -0.1764 -0.4824
17924TIP3    H175187   3.196   1.479  14.674  0.4833  0.0509 -0.4473
17924TIP3    H275188   3.200   1.623  14.722  0.1956  0.8477 -2.7466
17925TIP3   OH275189   4.535   1.771  14.261  0.5645  0.1646  0.1201
17925TIP3    H175190   4.445   1.768  14.294  1.4073 -0.7258  2.3898
17925TIP3    H275191   4.583   1.710  14.316  2.8630  1.6525 -0.1823
17926TIP3   OH275192   1.076   1.081  11.627 -0.4074 -0.1866 -0.4677
17926TIP3    H175193   1.030   0.997  11.626  0.4552 -0.6717  0.0955
17926TIP3    H275194   1.109   1.089  11.717 -2.3786  1.7957  0.1425
17927TIP3   OH275195   2.783   2.708  11.891 -0.0106 -0.6009  0.0054
17927TIP3    H175196   2.819   2.740  11.808  0.4764 -1.0599  0.0373
17927TIP3    H275197   2.803   2.614  11.891  0.8617 -0.4239  1.0890
17928TIP3   OH275198   2.130   5.007   1.002  0.0043 -0.2567  0.0672
17928TIP3    H175199   2.111   4.968   0.916 -0.2654  1.7682 -0.8025
17928TIP3    H275200   2.067   5.078   1.010  0.3854 -0.1085  1.7353
17929TIP3   OH275201   2.883   6.434  10.779  0.5078  0.2159  0.4151
17929TIP3    H175202   2.852   6.514  10.737 -0.9026  0.3572  1.6969
17929TIP3    H275203   2.920   6.464  10.863  0.2098 -0.4368  0.7813
17930TIP3   OH275204   1.534   2.165   3.910  0.4936 -0.7878 -0.6989
17930TIP3    H175205   1.474   2.239   3.911  1.3180 -0.1248  1.1936
17930TIP3    H275206   1.533   2.131   3.999  1.4165 -2.0184 -1.1370
17931TIP3   OH275207   2.610   4.234   0.260  0.0467 -0.2898 -0.2569
17931TIP3    H175208   2.609   4.161   0.198 -0.3442 -1.6294  1.3046
17931TIP3    H275209   2.571   4.307   0.211 -1.3177 -1.6327 -1.2144
17932TIP3   OH275210   1.838   2.302  11.738  0.0618  0.1274 -0.3783
17932TIP3    H175211   1.868   2.305  11.829  1.2775 -0.7352 -0.7450
17932TIP3    H275212   1.743   2.305  11.744  0.0841 -1.4063  0.9823
17933TIP3   OH275213   5.229   4.253   4.704  0.5811  0.6286  0.0052
17933TIP3    H175214   5.314   4.254   4.748  0.6491 -2.6990  0.0716
17933TIP3    H275215   5.166   4.242   4.775  0.5187 -2.1430 -0.3965
17934TIP3   OH275216   4.320   3.412  15.614 -0.3142 -0.5270  0.0999
17934TIP3    H175217   4.316   3.317  15.630  0.1825 -0.5726 -0.0289
17934TIP3    H275218   4.248   3.428  15.553  0.5410 -1.0790 -1.0697
17935TIP3   OH275219   0.442   2.772  15.114 -0.1636 -0.2544  0.6673
17935TIP3    H175220   0.531   2.800  15.096 -0.0021 -1.0057  0.3019
17935TIP3    H275221   0.451   2.687  15.156 -0.7695 -1.1403 -0.9741
17936TIP3   OH275222   3.398   6.248  16.335 -0.7492 -0.1847 -0.1261
17936TIP3    H175223   3.395   6.320  16.398  0.4275 -0.0213 -0.2486
17936TIP3    H275224   3.342   6.180  16.373  0.9263 -0.5735  1.7152
17937TIP3   OH275225   4.839   2.529   1.271  0.3146 -0.0973  0.2557
17937TIP3    H175226   4.753   2.512   1.310  1.0090 -1.9747  1.0443
17937TIP3    H275227   4.864   2.614   1.306 -0.8982  0.1286  0.6087
17938TIP3   OH275228   0.934   0.824  11.343  0.2294 -0.1692  0.1478
17938TIP3    H175229   0.906   0.754  11.285 -2.1885  1.8871 -1.3281
17938TIP3    H275230   1.009   0.789  11.390  0.1112 -3.1066 -1.7428
17939TIP3   OH275231   6.185   5.648  15.438 -0.6162  0.3695  0.0550
17939TIP3    H175232   6.209   5.564  15.400  1.5370  0.7811  0.4832
17939TIP3    H275233   6.095   5.635  15.469 -0.5686 -1.5256 -0.5452
17940TIP3   OH275234   1.632   1.674   2.322 -0.1022 -0.2910 -0.1783
17940TIP3    H175235   1.592   1.595   2.287 -0.8332 -0.6241  1.3258
17940TIP3    H275236   1.700   1.643   2.381  0.0087  0.2031 -0.0419
17941TIP3   OH275237   2.825   6.211   4.358 -0.1251 -0.2776  0.0855
17941TIP3    H175238   2.894   6.164   4.404 -0.8847 -1.4283  0.0671
17941TIP3    H275239   2.786   6.268   4.424 -0.8690 -1.5407  0.7467
17942TIP3   OH275240   6.505   3.831   4.785  0.7784  0.0943 -0.9356
17942TIP3    H175241   6.442   3.799   4.720  0.4193  0.7292 -0.9047
17942TIP3    H275242   6.567   3.759   4.796  1.3093  0.2842 -2.5930
17943TIP3   OH275243   5.963   4.315   4.175 -0.3822 -0.2159  0.0989
17943TIP3    H175244   5.926   4.385   4.121 -1.7251 -1.2419 -0.3327
17943TIP3    H275245   5.889   4.281   4.225  0.2907 -1.2185  0.4320
17944TIP3   OH275246   6.456   6.522  13.496  0.1390 -0.5625  0.4121
17944TIP3    H175247   6.424   6.519  13.586  0.0824 -0.7401  0.3855
17944TIP3    H275248   6.451   6.432  13.465  1.6988 -0.7681  0.7609
17945TIP3   OH275249   0.452   0.319   3.563 -0.5378 -0.5354 -0.4274
17945TIP3    H175250   0.419   0.240   3.608  2.4048 -0.5800  1.7746
17945TIP3    H275251   0.543   0.327   3.592  0.3461  1.5860 -3.5674
17946TIP3   OH275252   1.684   1.094  11.946 -0.4267 -0.4114  0.1514
17946TIP3    H175253   1.744   1.024  11.919 -0.0315 -0.5101  1.2502
17946TIP3    H275254   1.736   1.174  11.937 -1.1478 -0.1529 -1.9166
17947TIP3   OH275255   0.698   4.676  11.516  0.3068 -0.0211  0.6499
17947TIP3    H175256   0.677   4.584  11.532 -1.0701  0.4703  1.7626
17947TIP3    H275257   0.794   4.679  11.515  0.3721 -1.2355  1.9855
17948TIP3   OH275258   5.758   4.506   2.949 -0.0659 -0.1294 -0.2821
17948TIP3    H175259   5.683   4.477   3.000  1.0121 -1.7744  0.4467
17948TIP3    H275260   5.802   4.570   3.005 -0.8958  0.8251 -0.7047
17949TIP3   OH275261   3.773   0.446  10.642  0.1892  0.4186 -0.5468
17949TIP3    H175262   3.806   0.534  10.659 -1.4463  0.4615  2.7328
17949TIP3    H275263   3.828   0.389  10.696 -0.4056 -0.3070 -0.6976
17950TIP3   OH275264   3.007   3.420   1.593 -0.3962 -0.5575  0.8106
17950TIP3    H175265   2.996   3.330   1.560  0.1779  0.0415 -1.0624
17950TIP3    H275266   3.094   3.445   1.564 -1.9653  1.9404 -1.9020
17951TIP3   OH275267   2.385   3.618  16.931 -0.3689  0.1185 -0.8075
17951TIP3    H175268   2.456   3.659  16.881  0.2333 -0.1740 -0.1957
17951TIP3    H275269   2.421   3.534  16.960 -0.8481  0.1124 -0.2151
17952TIP3   OH275270   5.319   3.428  11.387  0.0609 -0.1946 -0.3477
17952TIP3    H175271   5.279   3.349  11.350  1.7299 -0.4514 -1.6754
17952TIP3    H275272   5.412   3.421  11.364  0.2920  1.9917 -0.1921
17953TIP3   OH275273   5.061   4.138  11.095 -0.0794  0.0362 -0.0443
17953TIP3    H175274   4.976   4.103  11.067  0.5317 -0.7911 -0.9158
17953TIP3    H275275   5.096   4.070  11.153 -0.5840  0.9736  1.3803
17954TIP3   OH275276   1.556   4.844  14.081  0.3063  0.3419  0.2833
17954TIP3    H175277   1.489   4.865  14.147 -0.3741  0.6053 -0.4927
17954TIP3    H275278   1.636   4.831  14.132 -0.2911  0.2002  1.2044
17955TIP3   OH275279   5.480   2.805   2.871 -0.0147  0.1234  0.2302
17955TIP3    H175280   5.442   2.893   2.878  0.9163  0.4339  1.4592
17955TIP3    H275281   5.494   2.777   2.961  1.4545 -0.5109 -0.1748
17956TIP3   OH275282   0.135   2.445   2.538 -0.3713  0.0522 -0.2812
17956TIP3    H175283   0.120   2.453   2.444  0.3484  0.0839 -0.3917
17956TIP3    H275284   0.074   2.508   2.578  0.8227  1.5772 -0.8259
17957TIP3   OH275285   1.382   2.553  16.265 -0.0725 -0.0913  0.0864
17957TIP3    H175286   1.387   2.538  16.171  0.5815  1.5263 -0.1565
17957TIP3    H275287   1.289   2.545  16.286 -0.7074  2.8677 -1.3138
17958TIP3   OH275288   3.827   1.999  13.349 -0.4581 -0.2008 -0.2568
17958TIP3    H175289   3.754   2.058  13.365 -0.0507  0.3762 -0.5357
17958TIP3    H275290   3.900   2.037  13.398 -0.7064 -1.5527  1.2282
17959TIP3   OH275291   3.404   5.129  16.342  0.5163 -0.2245 -0.0878
17959TIP3    H175292   3.376   5.060  16.403  0.0088  1.1476  1.2570
17959TIP3    H275293   3.322   5.168  16.312  0.8409  2.8707  2.7707
17960TIP3   OH275294   5.719   3.111   0.095  0.5847 -0.2572  0.4340
17960TIP3    H175295   5.658   3.111   0.169  0.0544  0.6429  0.0034
17960TIP3    H275296   5.800   3.144   0.131 -0.1212  1.7244  0.2769
17961TIP3   OH275297   5.415   2.695  15.201  0.0021 -0.8801  0.2013
17961TIP3    H175298   5.424   2.601  15.181 -0.1259 -1.2734  1.8836
17961TIP3    H275299   5.494   2.716  15.250 -0.1663 -0.2049  0.1801
17962TIP3   OH275300   0.101   6.262  15.831 -0.7997  0.4490 -0.1440
17962TIP3    H175301   0.180   6.298  15.872 -0.6947  0.3363 -0.2474
17962TIP3    H275302   0.074   6.191  15.889  0.1434 -0.6225 -0.9999
17963TIP3   OH275303   1.404   2.620  13.279  0.1379 -0.5544 -0.3444
17963TIP3    H175304   1.317   2.648  13.251 -0.4992 -2.3621 -0.2845
17963TIP3    H275305   1.430   2.684  13.344  0.1999  1.7979 -2.5809
17964TIP3   OH275306   6.060   3.358   2.315 -0.2864 -0.0018 -0.6137
17964TIP3    H175307   6.046   3.324   2.226  0.4936 -1.4786 -0.1967
17964TIP3    H275308   5.976   3.395   2.340 -1.1748 -1.5934 -1.1429
17965TIP3   OH275309   3.768   3.422  11.076  0.1213  0.3402  0.1358
17965TIP3    H175310   3.774   3.330  11.051  1.1891 -0.1583  2.1311
17965TIP3    H275311   3.677   3.433  11.105  0.7893 -0.9069  2.8620
17966TIP3   OH275312   6.616   1.520   1.975  0.5678 -0.2197  0.4377
17966TIP3    H175313   6.665   1.446   2.011  1.7035  0.5252  0.4713
17966TIP3    H275314   6.575   1.562   2.052 -0.0126 -0.7623  0.4263
17967TIP3   OH275315   5.037   1.774   1.281  0.6239 -0.5401  0.5199
17967TIP3    H175316   4.974   1.784   1.210 -0.2033  0.2021  1.3523
17967TIP3    H275317   5.079   1.860   1.287 -0.1834 -0.2190  1.7444
17968TIP3   OH275318   0.185   6.607  14.139  0.1183 -0.3811  0.1681
17968TIP3    H175319   0.261   6.594  14.196  0.2132  0.2523  0.1840
17968TIP3    H275320   0.220   6.595  14.050  0.1850 -0.3257  0.1861
17969TIP3   OH275321   4.224   4.802   0.553 -0.6188 -0.0361 -0.7978
17969TIP3    H175322   4.158   4.870   0.563 -1.4554 -1.2174  2.4785
17969TIP3    H275323   4.290   4.822   0.619  0.0225 -1.4209 -0.9984
17970TIP3   OH275324   3.523   6.654  13.129 -0.1190 -0.3518 -0.1293
17970TIP3    H175325   3.576   6.671  13.207  1.1557 -0.3839 -0.9836
17970TIP3    H275326   3.553   6.718  13.065 -1.3698 -0.1360 -0.5235
17971TIP3   OH275327   6.679   5.386   1.670 -0.3177 -0.1853 -0.4324
17971TIP3    H175328   6.584   5.392   1.682 -0.4052 -1.5005 -0.4061
17971TIP3    H275329   6.714   5.378   1.758 -0.1392  0.7640 -0.4127
17972TIP3   OH275330   4.256   4.921   0.994 -0.2346 -0.6651  0.1437
17972TIP3    H175331   4.303   4.838   0.981  0.3349 -0.4783  0.9496
17972TIP3    H275332   4.299   4.960   1.069  0.1816  0.8543 -0.8709
17973TIP3   OH275333   3.675   0.070   0.683 -0.2190 -0.5027  0.2051
17973TIP3    H175334   3.697   0.018   0.606  0.3800 -0.6916  0.5003
17973TIP3    H275335   3.654   0.157   0.649  2.3216  0.0734  0.0361
17974TIP3   OH275336   2.837   0.493  14.716 -0.9259  0.3325  0.0506
17974TIP3    H175337   2.832   0.589  14.717  0.9088  0.4484  1.3462
17974TIP3    H275338   2.745   0.464  14.714 -1.5305  2.1152  0.8852
17975TIP3   OH275339   2.430   4.948   3.105 -0.0335 -0.5391 -0.7151
17975TIP3    H175340   2.514   4.904   3.119 -0.5130 -0.7693  1.6694
17975TIP3    H275341   2.366   4.877   3.102 -0.1121 -0.4072 -3.1429
17976TIP3   OH275342   5.161   0.014  11.424 -0.2261 -0.1810  0.8531
17976TIP3    H175343   5.132   0.105  11.426  1.5583  0.4488 -0.2867
17976TIP3    H275344   5.197   0.002  11.336 -0.8691 -2.1427  0.8221
17977TIP3   OH275345   4.615   2.237  16.729  0.5309 -0.8524  0.0405
17977TIP3    H175346   4.626   2.201  16.817 -0.0409  0.7761  0.7879
17977TIP3    H275347   4.678   2.309  16.724 -0.5876  0.1225 -0.2857
17978TIP3   OH275348   2.523   1.543   4.463  0.0688  0.1979  0.0198
17978TIP3    H175349   2.428   1.539   4.447  0.1401 -3.2905  0.0002
17978TIP3    H275350   2.558   1.580   4.382 -1.1333  0.0253 -0.6039
17979TIP3   OH275351   0.352   2.995   0.974 -0.3777 -0.7413  0.0301
17979TIP3    H175352   0.393   2.915   1.006 -0.2837 -0.9320 -0.5655
17979TIP3    H275353   0.416   3.064   0.993 -1.1694 -0.5347  2.1016
17980TIP3   OH275354   1.834   4.748   3.123  0.1663  0.0443  0.3702
17980TIP3    H175355   1.792   4.713   3.045  1.5500 -1.8127  0.4464
17980TIP3    H275356   1.767   4.742   3.191 -0.3542 -0.2493 -0.1621
17981TIP3   OH275357   5.455   4.617  12.458  0.7987  0.4851  0.1787
17981TIP3    H175358   5.385   4.630  12.394  0.3232  2.3414  1.0361
17981TIP3    H275359   5.475   4.524  12.454  1.0477  0.6391 -2.9402
17982TIP3   OH275360   3.806   5.199  17.171  0.4655 -0.2000 -0.4769
17982TIP3    H175361   3.875   5.264  17.157  0.4187 -0.4065 -1.7120
17982TIP3    H275362   3.779   5.174  17.083  0.4514 -1.8705 -0.0027
17983TIP3   OH275363   1.040   2.555  14.550  0.6650  0.0542 -0.3887
17983TIP3    H175364   0.963   2.516  14.593  1.4747 -2.0493 -0.8028
17983TIP3    H275365   1.065   2.491  14.484  2.1924  1.1939 -0.9225
17984TIP3   OH275366   4.494   2.787   2.495 -0.0662 -0.1329 -0.6489
17984TIP3    H175367   4.481   2.821   2.583 -2.2070  1.6491 -1.6216
17984TIP3    H275368   4.555   2.714   2.507 -1.9374 -1.2857  2.5965
17985TIP3   OH275369   5.127   0.066  15.393 -0.2302 -0.2013  0.1624
17985TIP3    H175370   5.163  -0.021  15.377 -0.9853 -0.6510  0.8158
17985TIP3    H275371   5.200   0.126  15.380  1.1276 -1.1996  2.7279
17986TIP3   OH275372   5.822   0.090  11.912  0.1664 -0.4025 -0.2209
17986TIP3    H175373   5.762   0.152  11.871  0.6566  0.3858  0.2291
17986TIP3    H275374   5.795   0.005  11.880 -0.6672  0.0284 -0.6675
17987TIP3   OH275375   5.032   4.170   5.197  0.0906  0.4007 -0.1990
17987TIP3    H175376   4.952   4.121   5.214  0.5082 -0.9237 -1.9762
17987TIP3    H275377   5.102   4.106   5.205  0.7833  1.0471 -0.9874
17988TIP3   OH275378   6.437   5.420   0.823  0.2150 -0.1418 -0.2772
17988TIP3    H175379   6.447   5.327   0.844 -1.3084 -0.1881  0.2987
17988TIP3    H275380   6.523   5.447   0.791  1.2549 -1.2674  1.4672
17989TIP3   OH275381   5.986   6.148   1.992  0.1661 -0.1768 -0.7849
17989TIP3    H175382   6.034   6.188   1.920 -1.4583 -0.7890 -2.2603
17989TIP3    H275383   5.894   6.169   1.973 -0.5747 -3.1450 -0.6873
17990TIP3   OH275384   4.201   1.007  11.942 -0.4634 -0.1279  0.1152
17990TIP3    H175385   4.293   0.991  11.919 -0.6335 -0.6708 -0.1987
17990TIP3    H275386   4.160   1.033  11.860 -0.7004 -0.3948  0.1476
17991TIP3   OH275387   1.641   6.442   0.761 -0.0156 -0.4425 -0.4738
17991TIP3    H175388   1.605   6.497   0.831  1.1170  0.5820 -0.6758
17991TIP3    H275389   1.677   6.504   0.698 -1.3376 -1.3660 -2.1377
17992TIP3   OH275390   0.028   6.563   3.984 -0.0351 -0.0057 -0.0691
17992TIP3    H175391  -0.017   6.611   3.914 -0.9248 -0.7977 -0.0360
17992TIP3    H275392   0.120   6.566   3.958 -0.2718  0.3352 -0.9007
17993TIP3   OH275393   6.111   5.202  15.948 -0.4338 -0.0481 -0.2553
17993TIP3    H175394   6.175   5.131  15.952 -0.5219 -0.1067  0.0867
17993TIP3    H275395   6.152   5.275  15.995  0.2077  0.5659 -1.7130
17994TIP3   OH275396   1.001   4.941   2.270 -0.4359  0.0633  0.4770
17994TIP3    H175397   1.041   4.859   2.301 -0.4902 -0.4511 -0.7893
17994TIP3    H275398   0.954   4.916   2.191 -2.0563  0.9592  1.1324
17995TIP3   OH275399   3.485   1.950  15.474 -0.3782  0.3254 -0.0143
17995TIP3    H175400   3.500   1.952  15.379 -1.2174  0.1944 -0.1542
17995TIP3    H275401   3.454   1.860  15.491 -1.3687  0.7000  0.2011
17996TIP3   OH275402   0.625   6.464  11.525  0.9209 -0.6608 -0.3077
17996TIP3    H175403   0.694   6.400  11.505 -0.9275 -2.5154 -0.9373
17996TIP3    H275404   0.613   6.457  11.620 -0.6312 -2.7310 -0.6170
17997TIP3   OH275405   5.205   2.503  16.219 -0.5646  0.7492  0.7164
17997TIP3    H175406   5.288   2.537  16.184 -0.9189  2.0214  1.0741
17997TIP3    H275407   5.186   2.559  16.294 -0.6030 -0.9955  2.0409
17998TIP3   OH275408   1.070   5.355  12.098  0.5852 -0.1591  0.6557
17998TIP3    H175409   1.113   5.434  12.064  0.7946 -1.9242 -3.3729
17998TIP3    H275410   0.978   5.379  12.105  0.6852  0.5224 -0.3103
17999TIP3   OH275411   1.920   2.530   4.483  0.2933 -0.6184 -0.4037
17999TIP3    H175412   1.855   2.581   4.435  2.0329 -0.4545 -2.6615
17999TIP3    H275413   1.880   2.443   4.493  0.4058 -1.0765 -3.4020
18000TIP3   OH275414   1.042   3.644  14.702  0.2933 -0.2099  0.5132
18000TIP3    H175415   1.011   3.593  14.777 -0.4709  0.6632  0.8014
18000TIP3    H275416   0.986   3.616  14.629 -0.8897  1.0035  0.9230
18001TIP3   OH275417   3.328   0.951   2.311 -0.1558  0.4963 -0.2159
18001TIP3    H175418   3.251   0.935   2.257  1.0034 -1.4395 -1.3345
18001TIP3    H275419   3.293   0.954   2.401 -1.4548 -0.8335 -0.6601
18002TIP3   OH275420   5.341   2.476   5.596  0.3366  0.0085 -0.7670
18002TIP3    H175421   5.250   2.505   5.592 -0.0347 -0.6415  2.0354
18002TIP3    H275422   5.372   2.483   5.505 -1.3689  3.7381 -1.1622
18003TIP3   OH275423   5.507   1.638   4.933  0.1966 -0.1197  0.3135
18003TIP3    H175424   5.553   1.706   4.982 -0.5135  0.9205 -0.4219
18003TIP3    H275425   5.421   1.632   4.976  0.1534 -0.3515  0.1972
18004TIP3   OH275426   6.544   0.166  13.370  0.6765 -0.1768  0.0898
18004TIP3    H175427   6.559   0.258  13.349  1.1596  0.2388  2.1423
18004TIP3    H275428   6.488   0.134  13.300  1.5310  1.3534 -1.3129
18005TIP3   OH275429   0.520   3.298   0.494  0.0633 -0.1524  0.3666
18005TIP3    H175430   0.439   3.349   0.496  0.5048  0.5299  1.0467
18005TIP3    H275431   0.495   3.210   0.523 -0.6673 -0.2847 -0.6434
18006TIP3   OH275432   4.129   6.396   3.709  0.8218 -0.2578 -0.3653
18006TIP3    H175433   4.118   6.336   3.635  0.8996 -2.1228  1.0967
18006TIP3    H275434   4.063   6.464   3.694  0.5014 -0.8751 -1.8848
18007TIP3   OH275435   5.106   6.719   0.003  0.5719 -0.0490 -0.0980
18007TIP3    H175436   5.163   6.656   0.047  1.2248  1.3712  1.1389
18007TIP3    H275437   5.167   6.779  -0.040 -0.0183  0.5755 -0.0660
18008TIP3   OH275438   0.743   5.421   3.448  0.0901  0.4324 -0.2023
18008TIP3    H175439   0.690   5.363   3.393  1.4788 -1.6915  0.6537
18008TIP3    H275440   0.775   5.488   3.387  1.3796 -1.7215 -1.9590
18009TIP3   OH275441   2.454   1.831  11.335 -0.2078  0.5133 -0.1072
18009TIP3    H175442   2.464   1.846  11.429  2.1457  0.1162 -0.2585
18009TIP3    H275443   2.372   1.781  11.328 -0.2138  0.1999  1.7663
18010TIP3   OH275444   3.202   0.594  11.674 -0.6094 -0.4229 -0.0920
18010TIP3    H175445   3.193   0.688  11.684 -1.2648 -0.5028  0.1228
18010TIP3    H275446   3.218   0.581  11.580  1.8653  0.0654  0.2424
18011TIP3   OH275447   6.458   4.866   0.966  0.3996  0.1053  0.5034
18011TIP3    H175448   6.422   4.812   0.896 -0.3293 -0.1409  1.0579
18011TIP3    H275449   6.532   4.911   0.926 -0.2611  0.2846 -0.5467
18012TIP3   OH275450   0.331   3.350  13.199 -0.1683  0.0618 -0.0538
18012TIP3    H175451   0.392   3.424  13.208 -2.6678  2.0451  1.0372
18012TIP3    H275452   0.343   3.299  13.279 -0.3697  0.7618  0.4248
18013TIP3   OH275453   4.906   4.486   0.898  0.0309  0.8891 -0.0522
18013TIP3    H175454   4.939   4.405   0.937 -0.7852 -0.0516 -1.2438
18013TIP3    H275455   4.927   4.554   0.961 -2.1539 -0.7087  2.4836
18014TIP3   OH275456   5.095   3.896  14.087 -0.4490 -0.4579 -0.0845
18014TIP3    H175457   5.074   3.918  14.177 -0.6065 -1.4421  0.1265
18014TIP3    H275458   5.119   3.803  14.089 -0.3258 -0.4606 -1.0272
18015TIP3   OH275459   6.425   2.484  16.491  0.2873 -0.5017  0.3626
18015TIP3    H175460   6.470   2.503  16.409 -0.0268 -0.0828  0.2813
18015TIP3    H275461   6.379   2.402  16.475 -0.6916  0.1497 -0.2722
18016TIP3   OH275462   4.978   2.682   4.860 -0.3619  0.0470  0.2248
18016TIP3    H175463   4.929   2.628   4.798 -1.1116  2.3707 -1.2469
18016TIP3    H275464   5.038   2.733   4.806  1.5271 -0.5114  1.7444
18017TIP3   OH275465   3.602   0.728   1.338 -0.8347  0.3556  0.1598
18017TIP3    H175466   3.595   0.716   1.432 -0.6870  0.5486  0.1967
18017TIP3    H275467   3.622   0.641   1.304 -0.1933  0.4148  0.3796
18018TIP3   OH275468   3.571   6.467   4.681 -0.0341 -0.0941 -0.3834
18018TIP3    H175469   3.643   6.421   4.723  0.5679 -2.0080 -3.3081
18018TIP3    H275470   3.596   6.559   4.684  0.7737 -0.3555  1.8363
18019TIP3   OH275471   4.068   0.830  11.582  0.3410  0.8945  0.3907
18019TIP3    H175472   4.018   0.908  11.561 -2.5095 -0.5480  1.5713
18019TIP3    H275473   4.003   0.768  11.614  2.9858 -0.8093  2.6513
18020TIP3   OH275474   0.019   5.374  15.712  0.3007 -0.5830  0.3685
18020TIP3    H175475   0.105   5.415  15.699  0.5520 -0.5458  2.0179
18020TIP3    H275476  -0.015   5.361  15.623  1.4591  0.5553 -0.2622
18021TIP3   OH275477   0.963   6.530   5.504  0.2884  0.9965  0.0136
18021TIP3    H175478   0.870   6.544   5.522 -0.1383  0.1547 -1.4718
18021TIP3    H275479   0.986   6.599   5.441  0.5224  0.8367 -0.0761
18022TIP3   OH275480   2.427   6.135   1.975 -0.3428  0.1404  0.1308
18022TIP3    H175481   2.381   6.060   2.012  2.1566 -0.8841  1.2430
18022TIP3    H275482   2.395   6.140   1.884  0.2314 -2.9190 -0.2853
18023TIP3   OH275483   6.546   2.708   1.078 -0.7514 -0.1506  0.5539
18023TIP3    H175484   6.504   2.793   1.091 -0.0542 -0.1155  2.7158
18023TIP3    H275485   6.500   2.649   1.137  1.2234 -0.4384  1.8479
18024TIP3   OH275486   5.889   1.087  16.104 -0.4560 -0.2693  0.5584
18024TIP3    H175487   5.938   1.066  16.024 -2.4015 -0.8339 -0.5091
18024TIP3    H275488   5.807   1.039  16.096 -1.8136  1.7901  1.6521
18025TIP3   OH275489   1.887   2.037  11.678 -0.4418 -0.7841 -0.5849
18025TIP3    H175490   1.890   2.132  11.684 -1.2867 -0.6783 -1.7022
18025TIP3    H275491   1.914   2.007  11.765 -1.8279  0.5080  0.3297
18026TIP3   OH275492   3.720   3.845   3.557 -0.2576  0.2974  0.0106
18026TIP3    H175493   3.697   3.757   3.528  2.0407  0.3334 -2.0787
18026TIP3    H275494   3.771   3.832   3.636 -1.1349 -0.1586  0.5079
18027TIP3   OH275495   3.624   1.086   6.050 -1.3275 -0.7814 -0.4384
18027TIP3    H175496   3.588   1.143   6.118 -1.6676 -0.2092 -1.0878
18027TIP3    H275497   3.708   1.056   6.086 -0.6045  1.0202 -0.5286
18028TIP3   OH275498   4.101   5.021  13.090 -0.3922  0.2260  0.4378
18028TIP3    H175499   4.178   4.970  13.113  0.0937  0.8500  0.1992
18028TIP3    H275500   4.075   4.989  13.003 -1.1996 -0.9132  1.0765
18029TIP3   OH275501   3.784   0.268   1.530 -0.3696 -0.1942  0.2861
18029TIP3    H175502   3.822   0.325   1.598 -0.3475  0.7942 -0.5470
18029TIP3    H275503   3.857   0.212   1.503  0.1655  0.8159 -0.3858
18030TIP3   OH275504   6.372   5.888   0.051 -0.3238 -0.0823  0.4273
18030TIP3    H175505   6.431   5.916   0.121  0.5263  1.5995 -0.9320
18030TIP3    H275506   6.385   5.793   0.046  1.6633  0.1391  0.7307
18031TIP3   OH275507   5.022   0.617   0.713  0.0979  0.3538 -0.4533
18031TIP3    H175508   4.986   0.540   0.670 -0.0973  0.4367 -0.4377
18031TIP3    H275509   5.117   0.605   0.709  0.0520 -0.2473  0.2007
18032TIP3   OH275510   1.673   0.072   6.243 -0.2620  0.0024 -0.6827
18032TIP3    H175511   1.594   0.047   6.291  0.9358 -1.9131  0.3854
18032TIP3    H275512   1.736   0.003   6.265  2.7974  3.2993  1.2890
18033TIP3   OH275513   2.086   3.045  11.299 -0.9942  0.8686 -0.3714
18033TIP3    H175514   2.167   3.078  11.337 -1.2671  0.0899  0.9307
18033TIP3    H275515   2.097   3.056  11.205  1.3985 -0.9359 -0.3413
18034TIP3   OH275516   1.404   4.254  13.853 -0.0181  0.0475  0.7186
18034TIP3    H175517   1.401   4.256  13.757  0.1499  0.2718  0.7170
18034TIP3    H275518   1.492   4.220  13.873 -0.9506 -2.4010  0.7838
18035TIP3   OH275519   3.412   4.726  10.474  0.2378  0.0922  0.3000
18035TIP3    H175520   3.323   4.760  10.482  0.5984  1.0907  0.2377
18035TIP3    H275521   3.401   4.632  10.460 -0.7888  0.1472  0.6839
18036TIP3   OH275522   4.930   3.673   6.115 -0.2942 -0.4846 -0.3726
18036TIP3    H175523   4.949   3.714   6.199 -0.4798  0.9321 -1.0228
18036TIP3    H275524   4.932   3.579   6.134  1.4350 -0.2353  0.8390
18037TIP3   OH275525   1.537   4.365   4.315 -0.1920  0.4792 -0.3871
18037TIP3    H175526   1.567   4.280   4.345  0.0421  0.2689 -1.2189
18037TIP3    H275527   1.456   4.346   4.267 -0.8460  0.8723  0.5452
18038TIP3   OH275528   0.713   4.281   3.158 -0.4647  0.2205 -0.2354
18038TIP3    H175529   0.754   4.219   3.218 -0.3587  0.9480  0.4403
18038TIP3    H275530   0.621   4.254   3.153 -0.8355  1.1359  1.4983
18039TIP3   OH275531   4.325   2.686   4.924  0.2829  0.1306 -0.1462
18039TIP3    H175532   4.356   2.596   4.913 -3.0674 -1.0629 -0.4331
18039TIP3    H275533   4.294   2.712   4.837 -1.1933  0.5749  0.4894
18040TIP3   OH275534   4.533   2.138  15.036 -0.2922 -0.3261 -0.4295
18040TIP3    H175535   4.451   2.171  14.998 -0.0072  1.4552  0.4644
18040TIP3    H275536   4.534   2.173  15.125 -0.0493 -2.9169  0.6371
18041TIP3   OH275537   6.156   4.614  12.405  0.4142  0.5481  0.5647
18041TIP3    H175538   6.161   4.631  12.311  2.6446  1.4942  0.8176
18041TIP3    H275539   6.081   4.556  12.415  0.6000 -0.1604 -1.8875
18042TIP3   OH275540   4.557   5.068   2.084  0.4787  0.7828  0.3019
18042TIP3    H175541   4.483   5.013   2.110  0.1891  1.0586  0.0680
18042TIP3    H275542   4.542   5.086   1.991  0.8935  0.7611  0.2279
18043TIP3   OH275543   6.447   5.922   6.509 -0.7461 -0.3212 -0.0173
18043TIP3    H175544   6.496   5.841   6.495 -0.8492 -0.5589  0.9700
18043TIP3    H275545   6.514   5.990   6.517 -0.6153 -0.5133  0.4916
18044TIP3   OH275546   3.158   0.769  14.609  0.2696 -0.3672 -0.4403
18044TIP3    H175547   3.227   0.826  14.573  0.4236  0.0242  0.4556
18044TIP3    H275548   3.191   0.744  14.695 -0.7680 -0.0655  0.0515
18045TIP3   OH275549   5.382   5.900  17.007 -0.0037  0.3181 -0.1556
18045TIP3    H175550   5.434   5.980  17.019  1.8118 -0.7050 -0.9019
18045TIP3    H275551   5.422   5.836  17.067 -0.8168 -0.3166 -0.2748
18046TIP3   OH275552   2.932   5.835   3.025 -0.2606 -0.4247 -0.2234
18046TIP3    H175553   2.908   5.797   3.110  0.7399 -2.2134 -0.7069
18046TIP3    H275554   2.870   5.796   2.963 -0.3346  0.0856 -0.4742
18047TIP3   OH275555   1.285   4.292  16.354 -0.5494 -0.2358  0.2140
18047TIP3    H175556   1.220   4.319  16.418  0.1414  2.1072 -0.0310
18047TIP3    H275557   1.369   4.299  16.401  0.0321  2.2415 -1.1419
18048TIP3   OH275558   0.739   0.850   0.821 -0.1744  0.0929 -0.1424
18048TIP3    H175559   0.770   0.858   0.911  0.4245  0.4375 -0.3690
18048TIP3    H275560   0.729   0.941   0.791 -2.3333 -0.0021  0.2214
18049TIP3   OH275561   3.389   3.255   4.629  0.0129 -0.1673 -0.5714
18049TIP3    H175562   3.398   3.235   4.722 -1.5522 -1.7185 -0.7213
18049TIP3    H275563   3.477   3.276   4.599  0.8039 -1.3696  0.8807
18050TIP3   OH275564   0.672   2.261   4.635 -0.0003  0.2863 -0.1488
18050TIP3    H175565   0.739   2.194   4.640 -0.2932 -0.0887 -1.1192
18050TIP3    H275566   0.637   2.267   4.724  1.1939  0.3753  0.3276
18051TIP3   OH275567   6.184   3.919  11.603  0.4862  0.8121 -0.0247
18051TIP3    H175568   6.236   3.929  11.523  2.4195 -2.0271  0.7951
18051TIP3    H275569   6.242   3.949  11.673 -0.8693  2.4339  0.4404
18052TIP3   OH275570   3.798   1.205   4.591 -0.4750 -0.1618 -0.4429
18052TIP3    H175571   3.832   1.254   4.517  3.8657  1.0441  2.2172
18052TIP3    H275572   3.746   1.268   4.641 -1.1878 -0.2930 -1.0080
18053TIP3   OH275573   2.557   3.514  10.534 -0.4624  0.1793 -0.2535
18053TIP3    H175574   2.561   3.435  10.587 -1.0877  1.0870  1.1900
18053TIP3    H275575   2.616   3.576  10.579  0.8030  0.2259 -1.9186
18054TIP3   OH275576   1.869   4.852   5.059 -0.3210 -0.1592  0.7164
18054TIP3    H175577   1.850   4.781   5.120  0.7611  1.3089  2.7955
18054TIP3    H275578   1.788   4.862   5.008 -1.3448 -1.1961  2.1195
18055TIP3   OH275579   4.517   2.705  17.092  0.6181 -0.0556 -0.9655
18055TIP3    H175580   4.447   2.750  17.138  0.2239 -2.0094  0.4202
18055TIP3    H275581   4.596   2.729  17.139  0.5205 -0.0990 -0.7790
18056TIP3   OH275582   6.407   0.785   5.909  0.0189 -0.2807  0.9944
18056TIP3    H175583   6.414   0.721   5.837 -2.3911  0.9418 -0.3839
18056TIP3    H275584   6.351   0.742   5.973  0.8978 -0.7419  1.4714
18057TIP3   OH275585   2.761   6.267  13.368  0.1721 -0.1929 -0.3024
18057TIP3    H175586   2.747   6.222  13.451 -0.9313  0.9756  0.1707
18057TIP3    H275587   2.689   6.237  13.312 -0.3099  0.6296 -0.1296
18058TIP3   OH275588   5.790   5.743  13.471  0.1736 -0.8204 -0.2263
18058TIP3    H175589   5.709   5.744  13.523 -0.7785  1.1760 -1.6716
18058TIP3    H275590   5.860   5.728  13.534 -1.0723  0.2969  1.4555
18059TIP3   OH275591   1.915   4.036   2.963  0.1973 -0.0868  0.0731
18059TIP3    H175592   1.931   4.055   2.870 -1.5581  1.1786  0.0019
18059TIP3    H275593   1.994   3.991   2.992  0.8295 -0.3845 -2.0041
18060TIP3   OH275594   3.988   2.093  15.474 -0.0755 -0.1485 -0.1777
18060TIP3    H175595   3.940   2.115  15.554  1.2778  0.5224  0.4576
18060TIP3    H275596   3.936   2.132  15.403 -1.3104 -0.7968  0.3484
18061TIP3   OH275597   6.460   3.237   4.350  0.4912 -0.0385 -0.0136
18061TIP3    H175598   6.523   3.167   4.370 -0.2114 -0.4446  0.7630
18061TIP3    H275599   6.515   3.311   4.327  1.2680 -0.4460  0.4876
18062TIP3   OH275600   2.407   0.834   0.053 -0.5241 -0.3546  0.0382
18062TIP3    H175601   2.318   0.867   0.061 -0.1100  0.4978  1.3195
18062TIP3    H275602   2.410   0.759   0.112  0.3036  1.1609  1.9857
18063TIP3   OH275603   0.791   3.730   2.426 -0.2812 -0.1058 -0.6010
18063TIP3    H175604   0.880   3.700   2.408 -0.3194 -0.0162 -0.9281
18063TIP3    H275605   0.801   3.791   2.500 -0.3868 -2.0977  1.1142
18064TIP3   OH275606   5.747   5.822   4.759  0.3129  0.0686  0.1276
18064TIP3    H175607   5.682   5.786   4.699 -0.4462 -1.2988  1.7158
18064TIP3    H275608   5.709   5.906   4.787  0.6790  0.7199 -1.2809
18065TIP3   OH275609   4.873   4.724  13.367  0.2054 -0.2579 -0.5270
18065TIP3    H175610   4.959   4.767  13.367  1.1526 -2.1014 -0.7666
18065TIP3    H275611   4.811   4.794  13.386  1.6598  1.3151 -1.4349
18066TIP3   OH275612   0.167   5.552  15.080  0.2205 -0.2518 -0.4095
18066TIP3    H175613   0.198   5.603  15.155  0.8381 -2.2187  0.7113
18066TIP3    H275614   0.180   5.461  15.106 -0.6107 -0.9886 -2.4727
18067TIP3   OH275615   0.050   1.263  12.792  0.5967 -0.2560 -0.2537
18067TIP3    H175616   0.131   1.312  12.811  0.3515  0.5726 -1.3347
18067TIP3    H275617   0.071   1.209  12.716  1.4570 -3.3135  2.0400
18068TIP3   OH275618   2.834   2.273  13.312 -0.1977  0.6355  0.0209
18068TIP3    H175619   2.920   2.315  13.307  0.1746 -0.3726 -3.7491
18068TIP3    H275620   2.829   2.239  13.401  3.0788  1.2461  0.5071
18069TIP3   OH275621   4.754   2.760   4.100 -0.2443  0.3068 -0.1292
18069TIP3    H175622   4.831   2.775   4.155 -0.1985 -0.0692 -0.0878
18069TIP3    H275623   4.780   2.791   4.013 -0.0985  0.3202 -0.0807
18070TIP3   OH275624   0.044   4.015  13.670  0.6457 -0.1718 -0.3526
18070TIP3    H175625   0.135   4.005  13.699  0.3314 -1.4276  0.2406
18070TIP3    H275626   0.044   3.988  13.578  0.8083 -0.5301 -0.2490
18071TIP3   OH275627   2.869   0.993  11.783  0.2007  0.2443 -0.4454
18071TIP3    H175628   2.946   1.009  11.838  0.4419  1.2927 -1.0788
18071TIP3    H275629   2.887   0.908  11.742  0.1544 -0.4000  0.8607
18072TIP3   OH275630   6.208   3.655  15.301 -0.0446 -0.6041 -0.5168
18072TIP3    H175631   6.286   3.675  15.352 -2.0526 -0.3523  2.5275
18072TIP3    H275632   6.206   3.559  15.299 -0.1231 -0.6172  0.1232
18073TIP3   OH275633   2.195   5.496  12.253 -0.0084 -0.1439  0.5789
18073TIP3    H175634   2.248   5.565  12.294 -0.0665  0.4787 -0.3819
18073TIP3    H275635   2.249   5.417  12.260  0.6728  0.3020  0.3970
18074TIP3   OH275636   3.574   3.230  14.408 -0.8356  0.1889  0.0240
18074TIP3    H175637   3.618   3.251  14.489  0.2599  0.1152 -0.5485
18074TIP3    H275638   3.513   3.160  14.431  0.4139 -0.7578  0.5065
18075TIP3   OH275639   3.875   1.392  11.368  0.1494 -0.0333  0.3263
18075TIP3    H175640   3.851   1.439  11.288  0.3356 -1.1341 -0.3886
18075TIP3    H275641   3.830   1.308  11.361  0.4254 -0.2668  1.2280
18076TIP3   OH275642   5.690   2.069  16.131 -0.4961 -0.5054 -0.0657
18076TIP3    H175643   5.782   2.076  16.106 -0.4930 -1.2451 -0.2616
18076TIP3    H275644   5.692   2.036  16.221 -0.5534  0.3834  0.2689
18077TIP3   OH275645   1.607   2.502   0.750 -0.9001 -0.4382  0.0418
18077TIP3    H175646   1.674   2.491   0.818  0.0591 -0.2889 -0.8724
18077TIP3    H275647   1.587   2.595   0.752 -0.9067 -0.4410  0.1464
18078TIP3   OH275648   1.667   4.345  14.913  0.5699 -0.3473 -0.6275
18078TIP3    H175649   1.590   4.301  14.877  0.4652 -1.6640  1.1641
18078TIP3    H275650   1.649   4.439  14.899 -1.5231 -0.6101  0.0627
18079TIP3   OH275651   5.052   5.840  13.079 -0.2667 -0.3365  0.2658
18079TIP3    H175652   5.141   5.837  13.113  0.1273 -1.9828 -0.8332
18079TIP3    H275653   5.037   5.753  13.041 -2.5951 -0.3240  1.0530
18080TIP3   OH275654   0.702   4.471  14.617  0.2295 -0.0239 -0.0511
18080TIP3    H175655   0.641   4.433  14.681  1.5007 -1.2397  0.4609
18080TIP3    H275656   0.650   4.481  14.537 -1.8284  2.9512  1.5579
18081TIP3   OH275657   6.438   2.630   4.598 -0.5547 -0.3070 -0.2866
18081TIP3    H175658   6.440   2.725   4.606  0.5923 -0.3784  0.2613
18081TIP3    H275659   6.400   2.615   4.511 -1.9749  0.6176  0.1521
18082TIP3   OH275660   6.267   0.663   0.769 -0.1778  0.2064  0.0327
18082TIP3    H175661   6.353   0.703   0.754 -0.1758  0.5138  0.8458
18082TIP3    H275662   6.228   0.715   0.838 -0.8394 -0.2196 -0.0155
18083TIP3   OH275663   2.917   6.314   1.327  0.7973  0.5537  0.2232
18083TIP3    H175664   2.954   6.241   1.276 -1.4744 -0.1517 -0.4730
18083TIP3    H275665   2.882   6.272   1.406 -2.0804  0.6098 -0.9882
18084TIP3   OH275666   4.230   0.349   4.283 -0.0323 -0.2973  0.0910
18084TIP3    H175667   4.215   0.315   4.371 -0.4912 -1.2788 -0.3606
18084TIP3    H275668   4.324   0.337   4.269  0.1334  0.3252  0.6312
18085TIP3   OH275669   0.209   2.819  12.032 -0.5454  0.3998 -0.3646
18085TIP3    H175670   0.261   2.898  12.045 -0.6930  0.3571  0.5246
18085TIP3    H275671   0.211   2.804  11.937  0.2963  0.9098 -0.4345
18086TIP3   OH275672   5.942   0.640  14.156 -0.0186 -0.1891  0.5207
18086TIP3    H175673   5.890   0.560  14.157 -0.4975  0.1272  1.1053
18086TIP3    H275674   6.033   0.610  14.157 -0.1639 -0.7521 -0.8781
18087TIP3   OH275675   6.612   3.174  14.524  0.0403  0.5290 -0.1446
18087TIP3    H175676   6.654   3.251  14.487 -0.2671  1.2507  0.9938
18087TIP3    H275677   6.683   3.110  14.532  0.0691  0.2547 -2.1704
18088TIP3   OH275678   4.143   6.134  16.335 -0.6152 -0.0329  0.2822
18088TIP3    H175679   4.061   6.116  16.290  0.1074 -1.8895 -0.3853
18088TIP3    H275680   4.150   6.066  16.402  0.0479  0.5140  0.7823
18089TIP3   OH275681   6.512   1.910   4.235  0.0724  0.9576  0.2106
18089TIP3    H175682   6.599   1.949   4.231 -0.3488  1.8720 -0.2411
18089TIP3    H275683   6.523   1.832   4.289  1.0736  1.3291  0.5608
18090TIP3   OH275684   1.013   1.750  13.703  0.0847  0.2190  0.2083
18090TIP3    H175685   1.041   1.778  13.790  1.3608  0.8707 -0.3966
18090TIP3    H275686   1.035   1.657  13.698  0.0541  0.1948  0.5620
18091TIP3   OH275687   1.855   3.053  13.516 -0.2031 -0.5122 -0.5567
18091TIP3    H175688   1.917   3.090  13.578 -2.2708  1.0338  0.6396
18091TIP3    H275689   1.908   2.994  13.462  1.9865 -0.4452  1.4242
18092TIP3   OH275690   3.939   6.529   4.888 -0.0187  0.5054 -0.4257
18092TIP3    H175691   3.919   6.621   4.905 -1.7221 -0.2215  1.7407
18092TIP3    H275692   3.868   6.481   4.931  3.0214 -1.9482  2.1080
18093TIP3   OH275693   4.370   5.226   1.687 -0.3709  0.6248  0.4330
18093TIP3    H175694   4.317   5.235   1.766 -0.7652  0.6712  0.1628
18093TIP3    H275695   4.339   5.296   1.630  1.4339  1.9911  1.1009
18094TIP3   OH275696   1.279   4.590  12.321  0.4418  0.9688  0.2690
18094TIP3    H175697   1.197   4.544  12.306  0.6148  0.0836  1.9305
18094TIP3    H275698   1.314   4.552  12.402  1.3878  2.8866  0.8004
18095TIP3   OH275699   5.099   1.009   1.186  0.7971 -0.2801 -0.2240
18095TIP3    H175700   5.101   1.093   1.231  1.8178 -2.1490  3.5032
18095TIP3    H275701   5.190   0.979   1.188  0.1291 -2.3771  0.4752
18096TIP3   OH275702   5.991   3.031   1.331 -0.3227 -0.4410  0.8267
18096TIP3    H175703   6.016   2.996   1.417 -2.3979 -1.2891  1.1172
18096TIP3    H275704   5.969   3.123   1.348  1.1073 -0.0872  0.8318
18097TIP3   OH275705   6.446   6.147  16.971 -0.0598  0.1892 -0.1009
18097TIP3    H175706   6.521   6.107  17.016 -0.5150 -0.7248 -0.1429
18097TIP3    H275707   6.475   6.156  16.880  0.2955  0.6173  0.0461
18098TIP3   OH275708   4.766   2.652   5.167  0.3571 -0.0453  0.0391
18098TIP3    H175709   4.795   2.629   5.079  1.1164  0.2347  0.2140
18098TIP3    H275710   4.698   2.719   5.152 -0.7923 -1.2800 -0.3959
18099TIP3   OH275711   5.758   3.276  11.892 -0.0287  0.5884  0.1841
18099TIP3    H175712   5.678   3.322  11.864 -0.5000 -0.1852  0.2488
18099TIP3    H275713   5.744   3.185  11.866 -0.6039 -0.2396  3.1831
18100TIP3   OH275714   4.042   3.591   3.779  1.1135  0.3370 -0.5233
18100TIP3    H175715   4.123   3.541   3.790  1.3464  0.5021 -1.4461
18100TIP3    H275716   3.978   3.526   3.751  0.8879  0.1835  0.3297
18101TIP3   OH275717   5.785   2.387   4.450 -0.2784  0.0584 -0.6440
18101TIP3    H175718   5.842   2.379   4.373  0.7107  0.4424  0.0379
18101TIP3    H275719   5.775   2.481   4.463 -0.9289 -0.0061 -0.6466
18102TIP3   OH275720   3.610   3.871   1.826 -0.1769 -0.0639 -0.3715
18102TIP3    H175721   3.610   3.967   1.829 -2.5765 -0.0346 -0.0677
18102TIP3    H275722   3.649   3.845   1.910  0.6198  0.6226 -0.5152
18103TIP3   OH275723   4.016   5.519   3.337 -0.0276  0.4956  0.2147
18103TIP3    H175724   3.949   5.483   3.278  0.6548 -0.4102 -0.0189
18103TIP3    H275725   4.029   5.608   3.307 -1.0998  0.6661  0.2304
18104TIP3   OH275726   4.299   1.270   0.215  0.3419 -0.4237 -0.1633
18104TIP3    H175727   4.342   1.204   0.161  0.5788 -0.0750 -0.4058
18104TIP3    H275728   4.224   1.298   0.163  0.6981  0.0758 -0.4158
18105TIP3   OH275729   4.253   0.145  12.196  0.2191  0.2875  0.7422
18105TIP3    H175730   4.259   0.141  12.291  1.0669  0.9209  0.7207
18105TIP3    H275731   4.265   0.237  12.174  0.5887  0.0710 -0.0050
18106TIP3   OH275732   2.675   1.624   4.271  0.2447 -0.4375 -0.0164
18106TIP3    H175733   2.654   1.679   4.195  0.2127  0.2375  0.4788
18106TIP3    H275734   2.768   1.604   4.261 -0.0872 -1.6177 -1.0403
18107TIP3   OH275735   5.233   1.269   0.639  0.2350 -0.3509 -0.2605
18107TIP3    H175736   5.211   1.361   0.624 -0.7684 -0.6632 -0.7750
18107TIP3    H275737   5.245   1.262   0.733 -0.6254  0.1213 -0.1055
18108TIP3   OH275738   5.304   2.798   4.263  0.2832 -0.1061 -0.2618
18108TIP3    H175739   5.290   2.705   4.280  1.1843 -0.3996 -1.0589
18108TIP3    H275740   5.389   2.802   4.219  0.5474  1.1533  0.3214
18109TIP3   OH275741   4.840   2.966  16.641 -0.1058 -0.0304  0.6295
18109TIP3    H175742   4.903   3.033  16.668 -1.1257  1.3310 -0.3558
18109TIP3    H275743   4.755   3.000  16.670 -0.6942 -0.6313 -0.3948
18110TIP3   OH275744   4.183   1.649   2.411 -0.3241  0.0435 -0.1740
18110TIP3    H175745   4.202   1.626   2.502  0.1466  0.4012 -0.1789
18110TIP3    H275746   4.216   1.739   2.402 -1.2570  0.3624 -0.4210
18111TIP3   OH275747   4.434   4.186  16.283  0.2437 -0.3492 -0.4171
18111TIP3    H175748   4.468   4.124  16.347 -1.3852  1.5614  2.4460
18111TIP3    H275749   4.460   4.272  16.317 -3.7729  0.9147 -0.3072
18112TIP3   OH275750   5.321   3.924   1.797 -0.0055 -0.4918  0.0095
18112TIP3    H175751   5.393   3.978   1.831 -0.5991  0.6912 -0.6259
18112TIP3    H275752   5.245   3.981   1.797 -0.8151 -1.5514  0.0448
18113TIP3   OH275753   6.423   2.763   0.023 -0.3142 -0.1862 -0.5195
18113TIP3    H175754   6.428   2.853  -0.010  2.9484 -0.2536 -0.3546
18113TIP3    H275755   6.382   2.772   0.109 -0.1393  1.1564 -0.5639
18114TIP3   OH275756   1.334   3.407  16.628 -0.2136  0.2241 -0.3688
18114TIP3    H175757   1.260   3.430  16.572  0.0811 -0.0276 -0.8613
18114TIP3    H275758   1.298   3.345  16.692 -0.2636 -0.4478 -1.0464
18115TIP3   OH275759   3.043   6.528  16.481 -0.0840  0.1357  0.2520
18115TIP3    H175760   3.059   6.579  16.560 -2.6633  0.6988  0.4326
18115TIP3    H275761   3.080   6.442  16.501  0.7807  0.7534  1.4122
18116TIP3   OH275762   6.605   0.237   0.281  0.3732 -0.1058  0.1604
18116TIP3    H175763   6.596   0.313   0.225 -1.2387 -1.2561 -1.1832
18116TIP3    H275764   6.523   0.232   0.330 -0.5126 -2.2559 -1.4407
18117TIP3   OH275765   5.112   4.534   2.674 -0.0080 -0.4628  0.2690
18117TIP3    H175766   5.018   4.551   2.681 -0.1648 -1.3410  0.3782
18117TIP3    H275767   5.127   4.460   2.733  0.5354 -1.1137 -0.6778
18118TIP3   OH275768   3.747   5.297   1.151 -0.2322 -0.2309  0.1090
18118TIP3    H175769   3.800   5.327   1.225  0.0719 -2.9745  1.0359
18118TIP3    H275770   3.790   5.337   1.075  0.2579  1.5139  1.2579
18119TIP3   OH275771   0.027   0.048   3.809 -0.1337 -0.5003 -0.5177
18119TIP3    H175772  -0.030   0.089   3.745 -1.7834 -2.4573 -0.3711
18119TIP3    H275773   0.087  -0.006   3.757 -1.8508 -2.5454 -0.4233
18120TIP3   OH275774   4.058   1.326   1.253  0.0299 -0.5823 -0.1078
18120TIP3    H175775   4.152   1.340   1.240  0.3068 -1.3913  0.9843
18120TIP3    H275776   4.052   1.266   1.326 -1.3098 -1.6868 -1.0946
18121TIP3   OH275777   2.295   2.561   7.060 -0.4925  0.1309 -0.7553
18121TIP3    H175778   2.241   2.505   7.004 -0.5308  1.3971 -2.0031
18121TIP3    H275779   2.376   2.574   7.010 -0.6173  1.4672 -0.6242
18122TIP3   OH275780   6.537   0.814  16.412  0.3908 -0.2378  0.2931
18122TIP3    H175781   6.451   0.843  16.442  0.0388 -2.2864  1.3723
18122TIP3    H275782   6.542   0.843  16.321 -1.1997  0.4174  0.3968
18123TIP3   OH275783   3.636   1.962   2.180  0.2831 -0.1777 -0.2876
18123TIP3    H175784   3.646   1.945   2.086  0.8375 -0.7350 -0.1343
18123TIP3    H275785   3.638   2.058   2.187 -2.4298 -0.0160 -1.1130
18124TIP3   OH275786   6.169   0.144  11.228  0.8738 -0.3636  0.3634
18124TIP3    H175787   6.192   0.235  11.210 -0.5669 -0.6807 -3.5704
18124TIP3    H275788   6.077   0.147  11.254  0.3119 -0.7969 -1.4649
18125TIP3   OH275789   0.491   1.274   3.935 -0.3511 -0.0425  0.2797
18125TIP3    H175790   0.490   1.275   4.030 -0.7945 -1.7693  0.3119
18125TIP3    H275791   0.574   1.314   3.910 -1.4818  3.0745  1.3186
18126TIP3   OH275792   4.098   2.714   3.053 -0.9146 -0.5527 -0.1309
18126TIP3    H175793   4.164   2.661   3.097 -0.8053 -1.3220 -1.2068
18126TIP3    H275794   4.015   2.669   3.071 -0.9996 -0.2551  0.2175
18127TIP3   OH275795   1.966   3.362   3.810 -0.7550 -0.0263 -0.0473
18127TIP3    H175796   2.051   3.406   3.817 -0.8237  0.3947 -1.5530
18127TIP3    H275797   1.936   3.384   3.722 -1.5887 -1.6942 -0.1904
18128TIP3   OH275798   2.898   0.211   4.686  0.2082  0.1904 -0.6791
18128TIP3    H175799   2.976   0.173   4.727  2.3048  2.9343 -1.9632
18128TIP3    H275800   2.846   0.243   4.759  1.5697  0.6856  0.0960
18129TIP3   OH275801   3.176   6.391   4.729 -0.1603 -0.0956 -0.6081
18129TIP3    H175802   3.158   6.408   4.636  2.9533  2.6089 -0.7896
18129TIP3    H275803   3.123   6.454   4.776 -0.8197 -0.6531 -0.6066
18130TIP3   OH275804   4.932   1.201   0.370 -0.0553  0.1529 -0.2234
18130TIP3    H175805   5.014   1.159   0.391  0.7178  2.3456  1.3218
18130TIP3    H275806   4.865   1.151   0.417  0.4980 -1.0175 -0.6760
18131TIP3   OH275807   2.036   3.789  16.587  0.5826 -0.4023 -0.2758
18131TIP3    H175808   2.035   3.697  16.613  2.6660 -0.0292  1.2874
18131TIP3    H275809   2.072   3.788  16.498  2.5205 -0.9734  0.4837
18132TIP3   OH275810   5.064   2.261   0.586 -0.5160 -0.1582  0.3337
18132TIP3    H175811   5.107   2.268   0.672 -1.0409 -0.5876  0.6335
18132TIP3    H275812   5.039   2.169   0.579 -0.0238 -0.2326 -0.5032
18133TIP3   OH275813   3.148   5.534  10.389  0.0415  0.8988 -0.4320
18133TIP3    H175814   3.064   5.557  10.349  0.2342  2.0171 -0.2140
18133TIP3    H275815   3.208   5.602  10.358  1.2435 -0.7602 -1.8489
18134TIP3   OH275816   6.296   5.613   4.312  0.0773  0.1450  0.6191
18134TIP3    H175817   6.386   5.584   4.325  0.8431  2.2975  0.4077
18134TIP3    H275818   6.278   5.670   4.387 -0.9523  0.0557  0.4413
18135TIP3   OH275819   3.556   6.475  17.054  0.8271 -0.7148 -0.3126
18135TIP3    H175820   3.480   6.427  17.023  1.6115 -1.9001 -0.4409
18135TIP3    H275821   3.552   6.559  17.008 -0.8331 -0.4404  0.3013
18136TIP3   OH275822   6.776   5.033  11.920  0.6789  0.8934 -0.3034
18136TIP3    H175823   6.860   5.006  11.884 -0.2371  0.6495 -2.3089
18136TIP3    H275824   6.789   5.124  11.945  0.6386  1.9096 -3.6812
18137TIP3   OH275825   3.278   2.716  14.235 -0.2528  0.3940 -0.2544
18137TIP3    H175826   3.240   2.640  14.190  0.4687  0.4984 -1.0587
18137TIP3    H275827   3.217   2.787  14.217  0.2918  0.5621 -1.5413
18138TIP3   OH275828   1.036   1.871  16.409  0.3266  0.3789  0.1112
18138TIP3    H175829   1.015   1.803  16.346  1.0665  0.3697 -0.1358
18138TIP3    H275830   0.952   1.906  16.436 -0.0769 -0.8187  0.4424
18139TIP3   OH275831   1.120   5.308   0.419  0.3577  0.9932  0.0097
18139TIP3    H175832   1.080   5.382   0.464  1.2978  1.3526  0.2599
18139TIP3    H275833   1.161   5.345   0.341  2.5129  1.0684  1.1348
18140TIP3   OH275834   3.336   6.041   5.998  0.6563 -0.4258 -0.6674
18140TIP3    H175835   3.251   6.012   6.031  0.8692 -0.3776 -0.0573
18140TIP3    H275836   3.386   5.960   5.986  0.0480 -0.5505 -2.3812
18141TIP3   OH275837   2.942   3.236   3.554 -0.3529  0.6155 -0.0125
18141TIP3    H175838   2.927   3.149   3.519 -0.3721  0.8299 -0.5421
18141TIP3    H275839   2.857   3.265   3.587 -0.2841  0.3199  0.4314
18142TIP3   OH275840   4.096   5.116   4.415 -0.4347 -0.4307 -0.1753
18142TIP3    H175841   4.061   5.052   4.353  0.5630  0.1022 -1.3323
18142TIP3    H275842   4.167   5.070   4.459 -0.0123 -0.2840 -0.6853
18143TIP3   OH275843   0.991   0.771   2.154 -0.1667  0.0109  0.3265
18143TIP3    H175844   1.083   0.761   2.176 -0.0369  0.9461  0.2339
18143TIP3    H275845   0.946   0.708   2.210  0.3572  0.9124  1.8086
18144TIP3   OH275846   6.564   2.442   1.223  0.1193 -0.0635 -0.3977
18144TIP3    H175847   6.519   2.359   1.205  0.3564 -0.0573 -1.0244
18144TIP3    H275848   6.651   2.431   1.185 -0.0075  0.6454 -0.9037
18145TIP3   OH275849   0.014   2.822  14.807 -0.3698  0.1592  0.1449
18145TIP3    H175850   0.075   2.803  14.879 -1.7229  2.1594  1.8936
18145TIP3    H275851   0.018   2.745  14.751  3.7905  0.2274  0.1616
18146TIP3   OH275852   0.060   3.136   4.871  0.2778 -0.1214  0.0654
18146TIP3    H175853   0.012   3.083   4.807  0.1897  1.8194 -1.5283
18146TIP3    H275854   0.138   3.085   4.891 -0.2230 -1.2373 -0.7556
18147TIP3   OH275855   0.187   0.366   4.143  0.2175 -0.2341 -0.4720
18147TIP3    H175856   0.144   0.418   4.075  1.9375  1.3572 -0.3684
18147TIP3    H275857   0.115   0.334   4.197 -0.8485  2.6592 -0.1032
18148TIP3   OH275858   6.225   4.184  13.313 -0.1886  0.6588 -0.0754
18148TIP3    H175859   6.267   4.099  13.328  1.7029  1.5422 -0.1711
18148TIP3    H275860   6.259   4.213  13.228 -0.7085  1.5808  0.0208
18149TIP3   OH275861   4.880   5.923   4.445  0.1385  0.2197  0.2450
18149TIP3    H175862   4.890   5.835   4.481  0.0562 -0.0018 -0.2639
18149TIP3    H275863   4.840   5.973   4.516  0.9966  0.0728  0.8448
18150TIP3   OH275864   1.567   2.799  11.188 -0.0464  0.4790  0.3401
18150TIP3    H175865   1.499   2.837  11.133 -1.2817 -0.8547  0.9243
18150TIP3    H275866   1.524   2.726  11.233  2.2464 -1.6341 -0.7584
18151TIP3   OH275867   2.637   4.312  10.992 -0.0402  0.7845 -0.1602
18151TIP3    H175868   2.696   4.339  10.921  0.1811  2.6956  0.7180
18151TIP3    H275869   2.550   4.329  10.957 -0.0556 -0.9223 -1.0109
18152TIP3   OH275870   2.053   6.051  14.829 -0.0873  0.0649 -0.3545
18152TIP3    H175871   2.071   5.994  14.754  1.4023  1.4142 -1.0643
18152TIP3    H275872   2.117   6.121  14.821 -1.3791  1.4295  0.9435
18153TIP3   OH275873   6.684   4.493  14.827  1.1905  0.5089  0.4869
18153TIP3    H175874   6.598   4.515  14.863  0.4391  0.6103 -1.2897
18153TIP3    H275875   6.728   4.577  14.816  0.9528  0.5810  0.0647
18154TIP3   OH275876   4.074   3.304  11.818  0.2802  0.0157 -0.2470
18154TIP3    H175877   4.014   3.306  11.744 -1.8872  0.5543  1.4567
18154TIP3    H275878   4.096   3.396  11.833 -0.3482  0.0288  0.6012
18155TIP3   OH275879   1.161   4.425  11.871 -0.2093  0.4375 -0.1502
18155TIP3    H175880   1.071   4.430  11.905 -0.7712  1.0152 -1.6842
18155TIP3    H275881   1.215   4.456  11.943 -1.2589  0.1966  0.7564
18156TIP3   OH275882   3.235   0.302   1.030  0.7463 -0.2308 -0.2122
18156TIP3    H175883   3.258   0.325   0.940  0.6168  0.1315 -0.1561
18156TIP3    H275884   3.319   0.289   1.075  0.8087 -0.4983 -0.4084
18157TIP3   OH275885   1.405   4.002  15.014 -0.2596 -0.3864 -0.0011
18157TIP3    H175886   1.346   4.063  15.060  0.3982  0.1581  0.1217
18157TIP3    H275887   1.431   4.050  14.936  1.7839  0.2670  1.0385
18158TIP3   OH275888   0.291   4.077   6.105  0.0443  0.0842 -0.4649
18158TIP3    H175889   0.235   4.154   6.093  1.3400  1.4536  1.8912
18158TIP3    H275890   0.264   4.041   6.190  1.2046 -0.5611 -0.3584
18159TIP3   OH275891   4.122   0.774   0.180  0.3308 -0.8674  0.1151
18159TIP3    H175892   4.205   0.818   0.162 -0.0376 -0.1425  0.1644
18159TIP3    H275893   4.055   0.838   0.158 -0.4100 -2.9713 -4.2128
18160TIP3   OH275894   0.751   4.663   0.368 -0.2831  0.6408 -0.1240
18160TIP3    H175895   0.684   4.607   0.327 -0.9485  0.6198  0.9894
18160TIP3    H275896   0.741   4.748   0.325  0.0097  0.2161 -1.0537
18161TIP3   OH275897   1.573   6.421   5.335 -0.3735 -0.3471 -0.8144
18161TIP3    H175898   1.615   6.421   5.249  1.2470 -0.8160 -0.0354
18161TIP3    H275899   1.612   6.347   5.381  2.4233  2.7374  2.0514
18162TIP3   OH275900   1.658   2.035   5.410  0.1972  0.5010  0.7077
18162TIP3    H175901   1.686   2.089   5.484 -0.5922 -1.6609  2.6555
18162TIP3    H275902   1.735   1.983   5.389  0.0762  0.2870  0.7895
18163TIP3   OH275903   3.951   2.129  17.061 -0.4929 -0.0169 -0.3793
18163TIP3    H175904   3.929   2.122  16.968  0.4161 -0.9599 -0.5293
18163TIP3    H275905   4.022   2.193  17.064 -0.0792 -0.4712 -0.4104
18164TIP3   OH275906   4.571   4.780  11.721  0.2707 -0.3678  0.8223
18164TIP3    H175907   4.530   4.709  11.672  0.3059 -1.6467  2.6011
18164TIP3    H275908   4.665   4.766  11.710  0.2983 -1.3002  2.1084
18165TIP3   OH275909   6.125   6.422   3.611 -0.0215 -0.1334 -0.5023
18165TIP3    H175910   6.046   6.444   3.660  0.9013  0.6210  0.6431
18165TIP3    H275911   6.134   6.327   3.622 -0.5929 -0.1806 -0.3992
18166TIP3   OH275912   0.248   4.072  16.105 -0.1864  0.3682 -0.2458
18166TIP3    H175913   0.181   4.136  16.080  0.1622  1.0963  0.6414
18166TIP3    H275914   0.322   4.125  16.134  0.3996 -0.4376 -0.2564
18167TIP3   OH275915   1.062   0.505  12.326 -0.1395  0.3029  0.5096
18167TIP3    H175916   1.011   0.497  12.246 -1.1000  1.6887  0.9554
18167TIP3    H275917   1.012   0.456  12.392 -1.4780  2.5016  1.1869
18168TIP3   OH275918   5.721   5.133  15.286  0.4521 -0.2793  0.5662
18168TIP3    H175919   5.642   5.122  15.233  0.4447  2.7208 -0.1131
18168TIP3    H275920   5.788   5.083  15.238 -0.0606  0.6298 -1.1449
18169TIP3   OH275921   0.730   1.888   1.770  0.1568 -0.6980  0.0260
18169TIP3    H175922   0.698   1.799   1.785 -1.7205 -0.5582 -2.7689
18169TIP3    H275923   0.793   1.880   1.699  0.9615  0.0359  0.6443
18170TIP3   OH275924   5.090   1.060  13.363  0.2933  0.2320  0.0145
18170TIP3    H175925   5.126   1.061  13.452 -0.4756  0.9019  0.3334
18170TIP3    H275926   4.998   1.040  13.375 -0.5219  3.4533 -0.3195
18171TIP3   OH275927   5.054   1.131   6.546 -0.2048  0.7382  0.4215
18171TIP3    H175928   5.015   1.167   6.626 -0.9256  1.1053 -0.0969
18171TIP3    H275929   5.091   1.047   6.574  1.8801  2.0510  1.7355
18172TIP3   OH275930   5.737   4.037  14.894  0.6047  0.7350 -0.6060
18172TIP3    H175931   5.644   4.030  14.871  0.5285  1.1009 -0.4184
18172TIP3    H275932   5.778   4.073  14.815  1.3066 -3.3795 -2.2564
18173TIP3   OH275933   4.386   0.723   6.610 -0.1661  0.5369  0.0145
18173TIP3    H175934   4.377   0.789   6.678  3.1104  2.2932 -1.1583
18173TIP3    H275935   4.364   0.768   6.529  1.4202  0.0350 -0.7205
18174TIP3   OH275936   1.167   0.792   1.072 -0.4140  1.0646 -0.1161
18174TIP3    H175937   1.261   0.773   1.081 -0.2343  1.9692 -0.0132
18174TIP3    H275938   1.163   0.855   1.000 -1.0151  0.5069 -0.5788
18175TIP3   OH275939   1.218   0.950  16.650 -0.5862  0.3643 -0.3617
18175TIP3    H175940   1.221   0.866  16.604 -2.2963 -0.3641  0.7749
18175TIP3    H275941   1.292   0.946  16.711 -0.1518  0.0311 -0.9128
18176TIP3   OH275942   0.745   3.847   5.963  0.0048 -0.1673 -0.4236
18176TIP3    H175943   0.806   3.783   5.927  1.8178  1.3941 -0.1865
18176TIP3    H275944   0.725   3.906   5.891 -2.7654 -1.7444 -1.0282
18177TIP3   OH275945   3.015   2.738  13.482 -1.0091 -0.5168  0.0226
18177TIP3    H175946   3.101   2.776  13.502 -1.0463 -0.2295 -0.3604
18177TIP3    H275947   2.979   2.794  13.414 -1.4672 -0.6892  0.1182
18178TIP3   OH275948   2.242   2.792   3.434 -0.5738  0.1749  0.5088
18178TIP3    H175949   2.255   2.813   3.527  1.4729 -0.1965  0.3312
18178TIP3    H275950   2.246   2.696   3.430 -0.2098  0.2135 -0.0337
18179TIP3   OH275951   5.990   3.305  16.016  0.1455  0.4067  0.2212
18179TIP3    H175952   5.920   3.286  15.953 -1.0631  2.0071  1.0375
18179TIP3    H275953   5.949   3.290  16.101  1.6638 -1.3915  0.6683
18180TIP3   OH275954   6.170   0.651  16.999  0.2791  0.0170 -0.3237
18180TIP3    H175955   6.120   0.731  17.015  0.1200 -0.1673  0.1012
18180TIP3    H275956   6.117   0.602  16.937 -0.1795 -0.2771  0.2891
18181TIP3   OH275957   2.575   1.992   4.794  0.0835 -0.1944  0.3336
18181TIP3    H175958   2.593   1.898   4.785 -1.4918 -0.6201  1.4295
18181TIP3    H275959   2.642   2.024   4.855  2.5495  0.0560 -2.3820
18182TIP3   OH275960   5.703   0.471  12.921  0.0473 -0.3139  0.7117
18182TIP3    H175961   5.721   0.490  12.829 -1.2965  0.7952  0.6701
18182TIP3    H275962   5.643   0.540  12.949 -0.0592 -1.0067  2.2536
18183TIP3   OH275963   0.017   3.357  14.436  0.3630 -0.1129  0.2857
18183TIP3    H175964   0.097   3.400  14.405 -0.4174  0.5864 -0.8283
18183TIP3    H275965  -0.019   3.417  14.500  0.3732 -0.1027  0.2816
18184TIP3   OH275966   0.756   2.205  11.708  0.1839  0.0345 -0.0559
18184TIP3    H175967   0.775   2.111  11.705 -1.8541 -0.3847 -1.2682
18184TIP3    H275968   0.680   2.212  11.766  1.1116  1.1107  1.0729
18185TIP3   OH275969   5.472   3.571   0.205 -0.0981  0.3266  0.0222
18185TIP3    H175970   5.486   3.643   0.266 -0.9384  0.8358 -0.3826
18185TIP3    H275971   5.554   3.522   0.207 -0.7058 -0.6257  2.8192
18186TIP3   OH275972   4.130   1.676  12.339 -0.4171 -0.2494 -0.8568
18186TIP3    H175973   4.087   1.760  12.323  0.2457  0.4614  0.9996
18186TIP3    H275974   4.059   1.613  12.338 -0.9274  0.3148 -2.2478
18187TIP3   OH275975   1.799   2.401  14.336  0.1828 -0.2408 -0.2354
18187TIP3    H175976   1.808   2.338  14.407  0.4754  1.1545  0.9726
18187TIP3    H275977   1.712   2.438  14.346  0.7305  0.9525  0.2351
18188TIP3   OH275978   1.266   1.930   3.662  0.0127 -0.0556  0.5417
18188TIP3    H175979   1.343   1.878   3.642 -0.4544 -0.5374 -0.0463
18188TIP3    H275980   1.194   1.883   3.620 -0.3732  1.2327 -0.2525
18189TIP3   OH275981   4.219   5.557   2.945  0.1297  0.8350  0.1945
18189TIP3    H175982   4.165   5.481   2.968  0.2112  1.0796  1.2372
18189TIP3    H275983   4.215   5.562   2.850 -0.0875 -0.3227  0.1415
18190TIP3   OH275984   0.510   2.504   0.984 -0.5123  0.0130  0.1143
18190TIP3    H175985   0.466   2.436   0.934 -1.5976  1.9499 -1.6116
18190TIP3    H275986   0.571   2.456   1.041 -1.2535 -2.3728 -1.0442
18191TIP3   OH275987   0.619   6.673   5.735  0.4510  0.1673 -0.2946
18191TIP3    H175988   0.596   6.750   5.788  1.5214 -0.1406  0.6343
18191TIP3    H275989   0.538   6.623   5.730  0.1589  0.5372  0.4940
18192TIP3   OH275990   5.313   5.634  16.194  0.7399  0.2216  0.6058
18192TIP3    H175991   5.300   5.592  16.109 -1.7471 -1.1457  1.5946
18192TIP3    H275992   5.399   5.604  16.223  0.1830 -2.0436  0.0450
18193TIP3   OH275993   0.085   4.850  14.577 -0.4023  0.1110 -0.3822
18193TIP3    H175994   0.012   4.853  14.515 -1.1360 -0.4007  0.4353
18193TIP3    H275995   0.163   4.863  14.524 -1.1304  1.1450 -1.2020
18194TIP3   OH275996   6.723   5.722   4.852 -0.1467 -0.6918  0.1011
18194TIP3    H175997   6.770   5.644   4.883 -0.3119 -0.7062  0.3166
18194TIP3    H275998   6.674   5.692   4.775 -0.0975 -0.7669  0.1000
18195TIP3   OH275999   1.570   1.150   0.878  0.1693 -0.1121 -0.2132
18195TIP3    H176000   1.659   1.186   0.870  0.4005 -0.5574  0.3345
18195TIP3    H276001   1.527   1.206   0.942  0.1084 -0.0020 -0.3498
18196TIP3   OH276002   4.410   3.788  12.624 -0.0934 -0.0847  0.2556
18196TIP3    H176003   4.432   3.880  12.634 -2.4478  0.5026  0.4035
18196TIP3    H276004   4.400   3.755  12.713  0.6401 -0.4529  0.2010
18197TIP3   OH276005   3.002   1.094   3.965 -1.0394 -0.0515 -0.1228
18197TIP3    H176006   3.087   1.076   3.925 -1.3681 -0.6074 -0.5890
18197TIP3    H276007   3.009   1.060   4.054 -0.3792  0.9758  0.2180
18198TIP3   OH276008   6.137   0.945  14.459  0.1910 -0.0404  0.2952
18198TIP3    H176009   6.056   0.991  14.434 -0.2843  0.1641  2.1556
18198TIP3    H276010   6.189   0.944  14.379 -1.4711  0.2123 -0.8242
18199TIP3   OH276011   1.938   4.056  14.183 -0.0778 -0.5472  0.6522
18199TIP3    H176012   2.009   4.069  14.245  1.4929  1.4556 -1.4574
18199TIP3    H276013   1.951   3.968  14.149 -1.4121 -1.9688  3.6230
18200TIP3   OH276014   3.264   0.660   4.646 -0.0627 -0.3364  0.1758
18200TIP3    H176015   3.280   0.683   4.737 -0.3487 -1.6014  0.5588
18200TIP3    H276016   3.305   0.730   4.595 -0.2905  0.5968  1.2823
18201TIP3   OH276017   2.942   3.033  13.054  0.3851 -0.4483  0.5297
18201TIP3    H176018   2.965   3.115  13.011 -0.8779 -0.3254  0.0783
18201TIP3    H276019   2.848   3.024  13.041  0.6420 -2.3846 -0.1313
18202TIP3   OH276020   6.741   2.379  11.600 -0.0620 -0.4775 -0.2972
18202TIP3    H176021   6.801   2.307  11.580  1.1493  0.1329  1.0767
18202TIP3    H276022   6.787   2.458  11.569 -0.3650 -0.0545  0.3174
18203TIP3   OH276023   1.751   2.859  15.247 -0.4952  0.0174  0.3447
18203TIP3    H176024   1.696   2.879  15.172  0.2011 -1.6926 -0.6430
18203TIP3    H276025   1.703   2.893  15.322 -1.8394  0.5147 -0.7280
18204TIP3   OH276026   4.994   5.952  11.415  0.2833  0.0389 -0.1761
18204TIP3    H176027   4.901   5.959  11.395  0.0262  0.3638  1.0588
18204TIP3    H276028   5.034   5.924  11.333 -1.0133 -0.9669 -0.4853
18205TIP3   OH276029   1.370   0.867  16.171 -0.1595  0.0106 -0.4993
18205TIP3    H176030   1.432   0.940  16.173  0.4598 -0.5359  1.5342
18205TIP3    H276031   1.424   0.788  16.167 -0.6618 -0.4879  1.6798
18206TIP3   OH276032   4.145   6.723  15.324  0.2402 -0.1818 -1.1899
18206TIP3    H176033   4.128   6.726  15.230 -0.5134 -1.1294 -1.0840
18206TIP3    H276034   4.145   6.630  15.346 -0.1577  0.0607 -0.1482
18207TIP3   OH276035   0.318   1.683  11.242  0.0588  0.0142  0.2625
18207TIP3    H176036   0.385   1.723  11.188  0.3410  2.3374  2.2169
18207TIP3    H276037   0.341   1.591  11.245  2.7524  0.6497  0.3003
18208TIP3   OH276038   5.392   4.093   4.170 -0.5090 -0.1602  0.5794
18208TIP3    H176039   5.342   4.031   4.224 -0.1389  0.7147  1.9652
18208TIP3    H276040   5.459   4.127   4.229  0.8731 -0.2964 -0.8824
18209TIP3   OH276041   4.764   4.416   3.674  0.4256  0.1019 -0.3333
18209TIP3    H176042   4.813   4.422   3.592 -1.8080 -0.8327 -1.7953
18209TIP3    H276043   4.673   4.405   3.647 -0.2485 -1.2494  2.2586
18210TIP3   OH276044   0.954   1.044  16.394 -0.4032 -0.7007  0.1652
18210TIP3    H176045   1.019   0.998  16.341 -0.7451 -0.2506 -0.6486
18210TIP3    H276046   0.924   0.978  16.458 -0.3384 -1.3818 -0.5022
18211TIP3   OH276047   6.147   0.221  16.849 -0.2856 -0.0900  0.1986
18211TIP3    H176048   6.150   0.152  16.782  1.1008 -1.0182  1.1870
18211TIP3    H276049   6.171   0.177  16.930 -0.9097  1.2517  1.1359
18212TIP3   OH276050   6.681   2.649   0.671  0.7924 -0.0423 -0.9328
18212TIP3    H176051   6.724   2.631   0.588 -0.3197 -1.3275 -1.2476
18212TIP3    H276052   6.687   2.566   0.719 -0.9583 -0.1094 -0.8177
18213TIP3   OH276053   0.683   2.996   4.425  0.0412  0.3837 -0.3523
18213TIP3    H176054   0.729   3.010   4.508  1.0158  0.6695 -0.9238
18213TIP3    H276055   0.673   3.083   4.388 -0.8723  0.3082 -0.2935
18214TIP3   OH276056   5.312   0.561   3.186  0.2309  0.1061 -0.0445
18214TIP3    H176057   5.271   0.628   3.241 -1.1843 -0.9765  0.2566
18214TIP3    H276058   5.306   0.596   3.097  2.4306  1.8175  0.4397
18215TIP3   OH276059   1.251   0.585  14.182  0.1059 -0.5360 -0.2277
18215TIP3    H176060   1.268   0.661  14.127  1.7932 -0.6717  0.0760
18215TIP3    H276061   1.230   0.622  14.268  1.1317 -0.4064 -0.0260
18216TIP3   OH276062   1.803   1.618   2.535 -0.3241  0.0904 -0.4808
18216TIP3    H176063   1.726   1.621   2.592 -0.8173 -1.6613 -1.0410
18216TIP3    H276064   1.858   1.549   2.572 -0.8963 -1.4490 -2.4273
18217TIP3   OH276065   3.202   3.709  17.181 -0.1567 -0.5771  0.2459
18217TIP3    H176066   3.267   3.740  17.243 -0.1361  2.2233 -1.0786
18217TIP3    H276067   3.118   3.736  17.218 -0.1098  1.6737 -1.1505
18218TIP3   OH276068   4.320   2.056  11.407  0.0870  0.1490 -0.2132
18218TIP3    H176069   4.381   2.070  11.334 -0.2292  3.4733  0.1085
18218TIP3    H276070   4.370   2.080  11.485 -0.3615 -1.0391  0.4532
18219TIP3   OH276071   5.946   1.513  17.024  0.4072 -0.1473  0.2099
18219TIP3    H176072   5.990   1.490  16.943  1.2792  1.1585  0.3044
18219TIP3    H276073   5.922   1.605  17.014  1.8368  0.4431  2.0115
18220TIP3   OH276074   1.659   6.762  15.815  0.0050 -0.0004 -0.6832
18220TIP3    H176075   1.622   6.849  15.805  0.4413  0.1198 -1.2912
18220TIP3    H276076   1.688   6.738  15.727  0.3490 -0.5508 -0.4245
18221TIP3   OH276077   0.891   0.749  12.958  0.2599  0.1854 -0.5460
18221TIP3    H176078   0.826   0.725  13.024  0.4266  2.0198  0.3096
18221TIP3    H276079   0.963   0.787  13.008 -0.2934  3.0867 -1.9043
18222TIP3   OH276080   0.392   6.465  13.598  0.8287  0.6030  0.2258
18222TIP3    H176081   0.313   6.433  13.555  1.4364  0.1570 -0.5592
18222TIP3    H276082   0.381   6.560  13.602  0.1771  0.5262  0.2800
18223TIP3   OH276083   2.750   4.679  14.234 -0.0321  0.1173 -0.1086
18223TIP3    H176084   2.672   4.624  14.226 -0.1892  0.5114 -1.4013
18223TIP3    H276085   2.716   4.768  14.229  0.3081  0.3243  1.1816
18224TIP3   OH276086   4.657   5.794   2.882 -0.0782  0.0404  0.2219
18224TIP3    H176087   4.704   5.827   2.959  0.4150  0.1307 -0.1177
18224TIP3    H276088   4.569   5.776   2.914  0.4439 -1.0298  1.0988
18225TIP3   OH276089   2.056   0.050  14.691 -0.2977  0.3136 -0.2446
18225TIP3    H176090   2.081  -0.018  14.628 -2.9625 -1.7409  0.8012
18225TIP3    H276091   2.125   0.116  14.684  0.6802 -0.9645 -3.6188
18226TIP3   OH276092   5.625   4.369   5.496 -0.1749  0.6167 -0.9767
18226TIP3    H176093   5.607   4.309   5.569 -0.4541  0.2500 -1.3403
18226TIP3    H276094   5.712   4.344   5.466  0.7729  2.0821  0.4886
18227TIP3   OH276095   2.480   6.277  12.610  0.2713 -0.1495 -0.2904
18227TIP3    H176096   2.387   6.265  12.592  0.2329 -1.1643  0.5378
18227TIP3    H276097   2.482   6.341  12.682  0.2421  0.3344 -0.7164
18228TIP3   OH276098   5.632   1.115   5.574  0.8020  0.5221  0.4496
18228TIP3    H176099   5.624   1.193   5.520  0.0023  0.1483  0.0245
18228TIP3    H276100   5.570   1.128   5.645 -1.8149 -1.1998 -1.4290
18229TIP3   OH276101   6.178   1.604   0.504 -0.2077  0.0546  0.5800
18229TIP3    H176102   6.097   1.653   0.520 -1.5061 -1.4393 -1.1293
18229TIP3    H276103   6.203   1.568   0.589  0.7055  3.5152  1.8520
18230TIP3   OH276104   6.020   3.759  16.047  0.1198  0.2949  0.0755
18230TIP3    H176105   5.959   3.756  16.121 -0.0734 -1.2235 -0.1203
18230TIP3    H276106   5.981   3.700  15.982  1.0863  0.4125 -0.6177
18231TIP3   OH276107   1.862   2.830   2.074 -0.6658 -0.1513  0.1700
18231TIP3    H176108   1.887   2.797   1.987 -0.3481 -0.2165  0.2842
18231TIP3    H276109   1.775   2.794   2.089 -0.4054 -0.7719  0.2083
18232TIP3   OH276110   1.202   0.685  10.332 -0.2641 -0.1742 -0.4458
18232TIP3    H176111   1.178   0.775  10.307  1.8351  0.4506 -0.3266
18232TIP3    H276112   1.180   0.680  10.425  0.5114  0.5388 -0.2208
18233TIP3   OH276113   5.837   2.129   4.811 -0.1229  0.0470  0.6092
18233TIP3    H176114   5.865   2.062   4.749 -1.3337 -1.1027  1.2689
18233TIP3    H276115   5.748   2.151   4.783 -0.0706  0.7032  0.9559
18234TIP3   OH276116   4.490   0.026   4.347  0.2931 -0.5166 -0.2240
18234TIP3    H176117   4.512   0.011   4.255  0.3066 -0.9402 -0.1487
18234TIP3    H276118   4.424  -0.040   4.368  0.7323 -0.8121  0.2407
18235TIP3   OH276119   2.464   2.408   2.950 -0.2977  0.2895 -0.2090
18235TIP3    H176120   2.492   2.466   2.879  2.5398 -0.3129  0.3504
18235TIP3    H276121   2.413   2.340   2.906  2.2033 -0.5988 -1.8270
18236TIP3   OH276122   5.900   4.833   0.467  0.2188  0.2002  0.0195
18236TIP3    H176123   5.913   4.881   0.385  0.7246  0.3338  0.1780
18236TIP3    H276124   5.973   4.859   0.522 -0.1128  0.0945  0.5111
18237TIP3   OH276125   6.204   1.534  17.179 -0.4142  0.0905  0.2546
18237TIP3    H176126   6.165   1.522  17.092 -1.8086 -0.8468  0.9933
18237TIP3    H276127   6.155   1.475  17.235  2.4169 -1.4770  1.1396
18238TIP3   OH276128   1.372   4.525  17.111  0.5010 -0.1292  0.5174
18238TIP3    H176129   1.434   4.454  17.126 -0.4935 -0.9555  0.7422
18238TIP3    H276130   1.401   4.565  17.029  0.3303 -1.5801 -0.2687
18239TIP3   OH276131   4.844   6.364   2.310 -0.1796 -0.2116  0.6872
18239TIP3    H176132   4.788   6.372   2.387 -1.4770  2.4526 -0.4616
18239TIP3    H276133   4.888   6.449   2.303 -0.4506 -0.2408 -1.7802
18240TIP3   OH276134   4.565   4.163  15.331  0.1568  0.1171 -0.1409
18240TIP3    H176135   4.558   4.126  15.243 -1.1354 -0.2737  0.1141
18240TIP3    H276136   4.632   4.231  15.323 -0.2852  0.4081 -1.5326
18241TIP3   OH276137   3.270   6.454  12.444 -0.1476  0.0241 -0.0570
18241TIP3    H176138   3.217   6.419  12.372 -2.2030 -0.4145  1.6295
18241TIP3    H276139   3.214   6.519  12.486  1.1862  0.5689  0.9208
18242TIP3   OH276140   6.699   2.784  15.986 -0.4052 -0.2453 -0.2534
18242TIP3    H176141   6.696   2.701  15.939  0.2517  0.0043 -0.7483
18242TIP3    H276142   6.771   2.774  16.049 -0.0200  0.1110 -0.6347
18243TIP3   OH276143   2.964   4.730   4.658  0.3780  0.0440 -0.1028
18243TIP3    H176144   2.990   4.708   4.569 -2.0472 -3.1204 -0.1102
18243TIP3    H276145   3.006   4.664   4.713 -1.6076 -0.6247  0.6365
18244TIP3   OH276146   5.627   4.880   0.555  0.4995  0.2810  0.1906
18244TIP3    H176147   5.601   4.790   0.571 -0.3136  0.6771  1.1369
18244TIP3    H276148   5.718   4.874   0.525 -0.2847 -1.0308 -2.0770
18245TIP3   OH276149   0.474   6.257  13.336  0.0240  0.4286 -0.2996
18245TIP3    H176150   0.557   6.296  13.365  1.1285 -2.2656  0.2789
18245TIP3    H276151   0.438   6.218  13.415 -1.5038  1.0354 -0.6944
18246TIP3   OH276152   5.846   0.719  12.931  0.3435  0.3902 -0.2611
18246TIP3    H176153   5.930   0.713  12.977 -0.2462 -1.6187  0.6133
18246TIP3    H276154   5.853   0.655  12.861 -0.5110  0.1136 -0.0989
18247TIP3   OH276155   5.802   6.029  16.552  0.2502 -0.2854 -0.4524
18247TIP3    H176156   5.762   6.081  16.482 -1.5177 -1.5300 -0.4218
18247TIP3    H276157   5.843   6.093  16.610  0.5638  0.8556 -1.9112
18248TIP3   OH276158   1.512   1.689  12.639  0.3471 -0.5838  0.0132
18248TIP3    H176159   1.424   1.697  12.675  0.7216  1.8722  0.4696
18248TIP3    H276160   1.507   1.615  12.579 -2.0576 -0.3897 -0.0534
18249TIP3   OH276161   2.753   0.798  10.710 -0.6201 -0.0256 -0.1439
18249TIP3    H176162   2.806   0.857  10.655  0.5480 -0.8031  0.1318
18249TIP3    H276163   2.775   0.710  10.679 -0.6511 -0.4260  0.9436
18250TIP3   OH276164   6.094   2.320   5.523 -0.1626 -0.4520  0.2108
18250TIP3    H176165   6.033   2.275   5.582  0.1991 -1.2298 -0.0009
18250TIP3    H276166   6.161   2.254   5.504  0.7864  0.4182  0.5077
18251TIP3   OH276167   6.480   2.943  10.963 -0.3468  0.3141 -0.2758
18251TIP3    H176168   6.464   2.896  11.045 -0.7413 -0.5365 -0.8278
18251TIP3    H276169   6.574   2.939  10.950 -0.1865  1.2059  0.5758
18252TIP3   OH276170   3.347   0.799   0.657 -0.1943 -0.0532 -0.1820
18252TIP3    H176171   3.365   0.706   0.669  0.3349  0.1587  0.7274
18252TIP3    H276172   3.387   0.842   0.733 -0.8487  0.8651 -0.3329
18253TIP3   OH276173   4.829   5.985  11.183 -1.0422  0.3380 -0.7732
18253TIP3    H176174   4.822   6.079  11.203  1.2399  0.3801 -0.0139
18253TIP3    H276175   4.865   5.983  11.094  0.5596  0.2176 -0.1419
18254TIP3   OH276176   5.844   2.701  11.270  0.0624 -0.2977 -0.1391
18254TIP3    H176177   5.908   2.746  11.215 -1.0290  2.0023  0.4323
18254TIP3    H276178   5.870   2.723  11.360 -1.3238  0.3802  0.1050
18255TIP3   OH276179   0.060   1.647  12.060 -0.0915  0.4697  0.4396
18255TIP3    H176180   0.113   1.641  12.139 -1.1741 -0.7046  1.0908
18255TIP3    H276181  -0.029   1.665  12.092 -1.0559 -2.6344 -0.3032
18256TIP3   OH276182   3.634   3.162  16.891  0.6336  0.6348 -0.5093
18256TIP3    H176183   3.721   3.201  16.892  1.5103 -1.2549  1.2756
18256TIP3    H276184   3.646   3.076  16.851 -0.3117  0.1587  0.1979
18257TIP3   OH276185   0.576   0.605   4.507 -0.1155  0.3751  0.2378
18257TIP3    H176186   0.548   0.658   4.582  1.1555  0.6108  0.5482
18257TIP3    H276187   0.495   0.565   4.475 -0.7426  0.6753  1.4211
18258TIP3   OH276188   0.982   3.450  13.423  0.2017 -0.5736 -0.5426
18258TIP3    H176189   0.996   3.527  13.367  2.8922 -0.1848  0.5744
18258TIP3    H276190   1.033   3.381  13.381  1.1687 -0.6291  0.6953
18259TIP3   OH276191   6.021   1.017  13.076  0.5977 -0.3578 -0.3105
18259TIP3    H176192   6.088   0.964  13.032 -0.1828 -0.0925 -1.8363
18259TIP3    H276193   5.962   0.953  13.116 -0.6286 -0.6956 -2.5804
18260TIP3   OH276194   4.105   2.946  12.255  0.1088  0.1280 -0.0600
18260TIP3    H176195   4.183   2.928  12.202  0.6054  1.2658  0.2460
18260TIP3    H276196   4.139   2.999  12.328 -0.7884 -0.2590  0.6363
18261TIP3   OH276197   0.604   0.627   2.503 -0.2787 -0.5242  0.0931
18261TIP3    H176198   0.522   0.582   2.524 -0.8679  0.9340  1.0018
18261TIP3    H276199   0.609   0.623   2.407 -0.9888 -1.3390  0.0788
18262TIP3   OH276200   1.544   1.466   4.236  0.3753 -0.1710 -0.3112
18262TIP3    H176201   1.480   1.461   4.307  1.4192 -0.5627  0.6111
18262TIP3    H276202   1.621   1.507   4.275  0.6537  0.3983 -1.4460
18263TIP3   OH276203   0.644   4.586   2.066 -0.2927  0.3109 -0.1914
18263TIP3    H176204   0.623   4.586   2.159  0.1505 -1.5021 -0.0599
18263TIP3    H276205   0.661   4.678   2.045 -2.1944  0.9744  1.0820
18264TIP3   OH276206   1.847   2.565  14.967 -0.2342 -0.5312 -0.0478
18264TIP3    H176207   1.800   2.571  14.884 -0.4928  2.2396  0.2626
18264TIP3    H276208   1.779   2.545  15.031 -0.2208 -1.4076 -0.2941
18265TIP3   OH276209   1.041   5.113  15.415  0.0533  0.1492  0.1787
18265TIP3    H176210   0.965   5.167  15.392 -1.2568 -0.9687  1.7371
18265TIP3    H276211   1.024   5.087  15.506  2.0886 -0.5032  0.3828
18266TIP3   OH276212   0.437   4.805  12.607  0.6331  0.9544 -0.0676
18266TIP3    H176213   0.491   4.866  12.556  3.1281 -1.4031 -0.3444
18266TIP3    H276214   0.404   4.743  12.542  0.0683  0.6228  0.5388
18267TIP3   OH276215   0.159   3.476   2.056  0.1438 -0.4382 -0.2475
18267TIP3    H176216   0.069   3.506   2.045 -0.1482 -1.0383  0.4439
18267TIP3    H276217   0.207   3.554   2.085 -0.0857 -0.0454 -0.9117
18268TIP3   OH276218   5.922   1.728  16.290  0.0070 -1.4458  0.3522
18268TIP3    H176219   5.842   1.688  16.257  0.0231 -2.1218  1.1022
18268TIP3    H276220   5.962   1.660  16.344  0.6693 -0.8335  0.6417
18269TIP3   OH276221   1.110   3.417   3.688 -0.3770  0.5165  0.2275
18269TIP3    H176222   1.033   3.397   3.741 -0.4916  0.1686 -0.0679
18269TIP3    H276223   1.178   3.358   3.720 -1.0175 -1.1000 -1.3568
18270TIP3   OH276224   6.499   5.646   0.571 -0.0823 -0.2173  0.0653
18270TIP3    H176225   6.499   5.710   0.499  0.3214  1.0613  1.1848
18270TIP3    H276226   6.407   5.637   0.594 -0.2806 -1.1169 -1.0215
18271TIP3   OH276227   6.502   5.215  15.254  0.1707  0.4381 -0.4656
18271TIP3    H176228   6.418   5.260  15.266 -0.0622 -0.1926  0.3205
18271TIP3    H276229   6.562   5.263  15.310  0.2483  0.6292 -0.7068
18272TIP3   OH276230   1.552   1.605  15.211 -0.0022 -0.5114  0.3056
18272TIP3    H176231   1.558   1.515  15.242  1.3445  0.0195  1.6318
18272TIP3    H276232   1.523   1.597  15.120 -3.5487 -2.1211  1.4778
18273TIP3   OH276233   5.193   4.782   2.809  0.7623  0.0676 -0.0554
18273TIP3    H176234   5.211   4.761   2.717 -0.8347  0.8208 -0.5596
18273TIP3    H276235   5.170   4.875   2.808 -1.0882 -0.3613  0.8321
18274TIP3   OH276236   2.269   6.707  13.524  0.1900  0.3263 -0.4638
18274TIP3    H176237   2.241   6.761  13.597 -0.1106  1.1608 -1.1908
18274TIP3    H276238   2.214   6.629  13.530 -0.2997  0.6879 -0.1921
18275TIP3   OH276239   4.590   6.202   2.550  0.5175  0.2705 -0.2520
18275TIP3    H176240   4.518   6.144   2.524 -0.6894  1.3202  0.6636
18275TIP3    H276241   4.663   6.142   2.568 -0.2469 -0.8478 -0.7952
18276TIP3   OH276242   0.794   3.278   0.624  0.0776 -0.0310  0.0512
18276TIP3    H176243   0.782   3.188   0.656  0.6443  0.3576  1.3600
18276TIP3    H276244   0.709   3.300   0.586 -0.7290 -0.3734  1.6170
18277TIP3   OH276245   1.940   3.721  11.917  0.6526 -0.4587  0.1111
18277TIP3    H176246   1.866   3.742  11.974  0.3939  2.2959 -1.1567
18277TIP3    H276247   2.010   3.781  11.945  0.4685  1.0635 -2.5172
18278TIP3   OH276248   6.572   4.840   4.030 -0.0185  0.0010  0.1897
18278TIP3    H176249   6.535   4.790   4.102 -3.5979  2.6168  0.2805
18278TIP3    H276250   6.573   4.779   3.956 -0.2660 -1.4362  1.3556
18279TIP3   OH276251   3.140   3.201  11.958 -0.3960 -0.3668 -0.2559
18279TIP3    H176252   3.101   3.266  12.017  1.0088 -0.4599  0.7912
18279TIP3    H276253   3.111   3.229  11.871 -2.7518 -0.4112  0.4606
18280TIP3   OH276254   3.489   0.455   2.628 -0.5052 -0.2858 -0.2423
18280TIP3    H176255   3.462   0.539   2.592 -0.2019  0.7696  1.9314
18280TIP3    H276256   3.568   0.432   2.578 -0.1954  1.0439 -0.3805
18281TIP3   OH276257   5.881   6.252  16.708 -0.0490 -0.0295 -0.4829
18281TIP3    H176258   5.904   6.287  16.794 -0.7299  0.2670 -0.4188
18281TIP3    H276259   5.844   6.326  16.661  0.5346 -0.1395 -1.1109
18282TIP3   OH276260   4.856   5.984  10.659  0.4286 -0.0220 -0.2895
18282TIP3    H176261   4.765   5.955  10.661 -0.2357  1.9793 -1.0017
18282TIP3    H276262   4.880   5.981  10.566  0.7196  0.5762 -0.2361
18283TIP3   OH276263   6.255   4.314   3.921  0.3534  0.3243  0.8261
18283TIP3    H176264   6.185   4.374   3.947  0.3696 -0.2817  2.3116
18283TIP3    H276265   6.320   4.371   3.878 -0.0569  1.2316  1.3909
18284TIP3   OH276266   2.424   4.982  16.117  0.4701 -0.0915 -0.7281
18284TIP3    H176267   2.380   4.897  16.108  1.1810 -0.5689  0.1837
18284TIP3    H276268   2.448   5.006  16.027 -3.2365  1.0696 -1.4808
18285TIP3   OH276269   2.506   2.915  12.161 -0.0248 -0.8657  0.3949
18285TIP3    H176270   2.494   2.877  12.248 -1.3679 -2.5130 -0.4890
18285TIP3    H276271   2.594   2.889  12.136 -0.2317 -1.7849  0.5929
18286TIP3   OH276272   1.603   1.669   5.117  0.1111 -0.3195  0.3227
18286TIP3    H176273   1.653   1.750   5.106  1.2354 -0.6414  2.6664
18286TIP3    H276274   1.664   1.599   5.093 -0.2042 -0.5662  0.2343
18287TIP3   OH276275   4.398   5.131  14.613 -0.1718  0.2828  0.2587
18287TIP3    H176276   4.344   5.137  14.692 -1.0863  1.2241 -0.4277
18287TIP3    H276277   4.439   5.045  14.619  0.9792  0.9373  2.5410
18288TIP3   OH276278   1.133   4.527  13.616  0.1419  0.3233 -0.2793
18288TIP3    H176279   1.149   4.452  13.559 -0.5922  0.0756 -0.1542
18288TIP3    H276280   1.190   4.511  13.692 -0.5094 -0.4546  0.0588
18289TIP3   OH276281   2.412   4.263   3.389 -0.0492  0.1090 -0.1338
18289TIP3    H176282   2.338   4.302   3.343  0.7213  1.1872 -0.4981
18289TIP3    H276283   2.405   4.297   3.478 -1.2718 -1.6016  0.4373
18290TIP3   OH276284   2.697   0.727   2.294  0.1881 -0.2690 -0.4178
18290TIP3    H176285   2.726   0.796   2.235 -0.5940 -0.1704 -0.6813
18290TIP3    H276286   2.771   0.715   2.354  1.1703 -0.6995 -1.6926
18291TIP3   OH276287   0.732   6.048   1.981 -0.4713  0.2351  0.2769
18291TIP3    H176288   0.713   6.131   2.023  3.0258  1.7801 -1.0262
18291TIP3    H276289   0.651   6.025   1.935 -1.4988  2.8504  0.7083
18292TIP3   OH276290   4.052   0.004   4.990 -0.2162 -0.1190  0.1804
18292TIP3    H176291   4.039  -0.053   5.065  1.0116  1.1859  1.4172
18292TIP3    H276292   3.964   0.020   4.956 -0.5329 -3.0888 -0.4852
18293TIP3   OH276293   1.347   1.057   0.702 -0.8664  0.6692  0.4328
18293TIP3    H176294   1.423   1.097   0.746 -0.6029 -0.1008  0.6770
18293TIP3    H276295   1.297   1.018   0.773 -1.6072  1.3526  0.2942
18294TIP3   OH276296   6.226   0.093  13.923 -0.0628 -0.0048  0.2012
18294TIP3    H176297   6.320   0.083  13.938  0.1973  0.4729 -1.0827
18294TIP3    H276298   6.215   0.081  13.829 -1.3598 -0.5650  0.4166
18295TIP3   OH276299   4.273   3.908  13.104 -0.6514 -0.5119 -0.3214
18295TIP3    H176300   4.181   3.901  13.129 -0.7871  1.5950 -0.1609
18295TIP3    H276301   4.283   3.998  13.073  1.5990 -0.3533  0.7564
18296TIP3   OH276302   4.351   6.141  11.829 -0.0353  0.1167  0.7845
18296TIP3    H176303   4.396   6.121  11.911  0.0413 -0.7907  0.5362
18296TIP3    H276304   4.419   6.181  11.774 -0.1214  0.8434  1.2110
18297TIP3   OH276305   3.355   2.448  13.408 -0.0902 -0.2909 -0.2653
18297TIP3    H176306   3.412   2.418  13.337 -0.4857  0.6320 -0.9756
18297TIP3    H276307   3.310   2.368  13.438  1.7879 -1.0859  0.5170
18298TIP3   OH276308   3.981   5.017   3.326 -0.8116  0.5011  0.0221
18298TIP3    H176309   3.955   4.927   3.304  1.2679  0.4033 -2.2665
18298TIP3    H276310   4.009   5.054   3.243 -0.7938  3.0063  1.1190
18299TIP3   OH276311   1.651   3.748  16.756 -0.6663 -0.3940  0.1186
18299TIP3    H176312   1.622   3.806  16.686 -1.4428  0.3061  0.9928
18299TIP3    H276313   1.622   3.792  16.837  1.1702 -0.6406  0.9226
18300TIP3   OH276314   1.659   6.670   3.885 -0.0195 -0.1232  0.2807
18300TIP3    H176315   1.745   6.655   3.848 -0.0926  0.9138 -0.3092
18300TIP3    H276316   1.675   6.720   3.965 -0.0322 -0.5164  0.5354
18301TIP3   OH276317   5.721   2.301  11.620  0.2393 -0.1636  0.1081
18301TIP3    H176318   5.708   2.283  11.713 -0.8151  1.9007  0.3827
18301TIP3    H276319   5.774   2.381  11.619 -0.2065  0.1158 -1.0759
18302TIP3   OH276320   2.541   5.951   2.989 -0.3672 -0.4646  0.3062
18302TIP3    H176321   2.476   5.900   3.038  0.0588  0.6104  1.9945
18302TIP3    H276322   2.620   5.947   3.042  1.0367 -1.8870 -1.8056
18303TIP3   OH276323   0.246   3.855   3.478 -0.0706 -0.5180  0.3266
18303TIP3    H176324   0.319   3.865   3.539  0.3995 -1.5940 -0.0526
18303TIP3    H276325   0.197   3.780   3.511 -1.2008  0.4067  0.7676
18304TIP3   OH276326   0.997   1.872  12.459  0.3412  0.1517  0.1824
18304TIP3    H176327   0.968   1.962  12.477 -3.3605 -0.6095 -1.4107
18304TIP3    H276328   1.064   1.882  12.392  0.8165  1.7923  0.8757
18305TIP3   OH276329   6.272   2.874   0.235 -0.2764 -0.0544  0.0673
18305TIP3    H176330   6.315   2.841   0.314 -1.8911 -2.0709  0.1568
18305TIP3    H276331   6.293   2.967   0.233 -0.3656  0.0747  3.0094
18306TIP3   OH276332   1.881   2.342   3.787  0.4691  0.1146  0.1473
18306TIP3    H176333   1.809   2.282   3.767  0.7360  0.0679 -0.6706
18306TIP3    H276334   1.942   2.289   3.839 -0.2042  0.2279  1.0661
18307TIP3   OH276335   2.497   5.109   1.969 -0.0588 -0.4540  0.0570
18307TIP3    H176336   2.548   5.037   2.006 -1.5418 -0.9126  1.2608
18307TIP3    H276337   2.495   5.175   2.038 -1.4782 -0.6364  0.2109
18308TIP3   OH276338   5.316   4.514   4.914 -0.3883  0.1697  0.5875
18308TIP3    H176339   5.385   4.579   4.926 -0.5639  0.6112 -0.6575
18308TIP3    H276340   5.248   4.560   4.863 -0.3640 -1.0738 -0.5978
18309TIP3   OH276341   6.479   4.224   1.908  0.1345 -0.2968  0.3725
18309TIP3    H176342   6.465   4.236   2.002  0.1883  1.8903  0.1290
18309TIP3    H276343   6.498   4.131   1.898  0.5559 -0.4695  2.5865
18310TIP3   OH276344   2.716   1.224  16.244  0.7109  0.0622  0.1785
18310TIP3    H176345   2.797   1.206  16.292  0.2697  0.9092  1.2630
18310TIP3    H276346   2.733   1.308  16.201  0.8828 -0.4007 -0.6657
18311TIP3   OH276347   2.830   2.456  12.901 -0.0479 -0.5804  0.6825
18311TIP3    H176348   2.835   2.509  12.981 -1.0034 -0.0212  0.3667
18311TIP3    H276349   2.919   2.421  12.891  0.1349 -0.4860  1.8748
18312TIP3   OH276350   5.224   0.323   2.982  0.6836  0.6136  0.0321
18312TIP3    H176351   5.253   0.377   3.055  1.1184  0.6453 -0.1605
18312TIP3    H276352   5.291   0.335   2.915  0.5628  0.1711 -0.1738
18313TIP3   OH276353   6.107   1.331  14.084 -0.4230  0.0857  0.1038
18313TIP3    H176354   6.016   1.301  14.094 -0.7687  1.5700  1.6654
18313TIP3    H276355   6.159   1.253  14.098 -1.4247 -0.5068  0.6169
18314TIP3   OH276356   6.775   5.739  12.737  0.0044 -0.5432  0.1059
18314TIP3    H176357   6.739   5.712  12.652 -1.5270  0.7939  0.3241
18314TIP3    H276358   6.767   5.661  12.792  3.1161 -2.1458 -1.6031
18315TIP3   OH276359   4.848   1.332   5.102  0.0867  0.1544  0.4348
18315TIP3    H176360   4.778   1.397   5.090 -0.4639 -0.3432  0.9315
18315TIP3    H276361   4.892   1.358   5.182  1.4086  1.3160 -0.6431
18316TIP3   OH276362   4.313   2.409  14.638  0.2080  0.2877  0.4078
18316TIP3    H176363   4.221   2.399  14.664  0.0645  1.1074  0.2361
18316TIP3    H276364   4.345   2.320  14.628 -0.5903 -0.0037  0.4144
18317TIP3   OH276365   0.088   1.227   5.484  0.6221 -0.7302  0.3953
18317TIP3    H176366   0.095   1.198   5.575 -0.0303 -0.4301  0.5430
18317TIP3    H276367   0.024   1.298   5.486  0.9477 -0.4119 -0.2272
18318TIP3   OH276368   4.324   1.658   5.211  0.3163 -0.1721 -0.6089
18318TIP3    H176369   4.395   1.600   5.239  0.0681 -0.8220 -1.3151
18318TIP3    H276370   4.288   1.693   5.293  0.1070 -1.4439 -0.1446
18319TIP3   OH276371   2.980   3.535   4.085  0.2620  0.0864  0.3417
18319TIP3    H176372   2.937   3.457   4.119 -0.1730  0.4318  0.5833
18319TIP3    H276373   3.061   3.503   4.046 -0.2067 -0.5562 -0.0977
18320TIP3   OH276374   2.170   5.105  14.479 -0.4854  0.0332 -0.1155
18320TIP3    H176375   2.164   5.065  14.392 -0.1396 -0.7435  0.2102
18320TIP3    H276376   2.174   5.030  14.539 -3.5159  0.5272  0.7839
18321TIP3   OH276377   1.104   1.023   1.315 -0.6823  0.3975  0.2154
18321TIP3    H176378   1.030   0.962   1.320 -1.1967  1.0461  0.6646
18321TIP3    H276379   1.181   0.968   1.326 -1.1837 -0.0523  1.6140
18322TIP3   OH276380   4.061   0.672   2.912  0.1921 -0.1392  0.4351
18322TIP3    H176381   4.090   0.666   2.821  1.6054  2.6190  0.6686
18322TIP3    H276382   4.021   0.758   2.919  0.6324 -0.0909  2.5590
18323TIP3   OH276383   4.260   4.027  11.740  0.3122 -0.4801  0.3028
18323TIP3    H176384   4.342   4.063  11.708 -1.4679  2.5474 -1.1685
18323TIP3    H276385   4.264   4.040  11.835  1.1671  0.5065  0.1468
18324TIP3   OH276386   4.589   5.909   4.012  0.6209 -0.8904  0.0612
18324TIP3    H176387   4.561   6.000   4.004  0.0804 -1.0188  0.4598
18324TIP3    H276388   4.615   5.899   4.103  1.5485 -0.8995 -0.1929
18325TIP3   OH276389   4.701   0.227  12.163  0.1710 -0.9069  0.0678
18325TIP3    H176390   4.652   0.190  12.089  1.1748  0.9190 -1.5692
18325TIP3    H276391   4.654   0.307  12.186  2.0280  0.6065 -1.2034
18326TIP3   OH276392   1.304   0.904   4.497  0.7358  0.2864  0.4593
18326TIP3    H176393   1.261   0.890   4.413  0.8308 -0.7491  0.5730
18326TIP3    H276394   1.233   0.907   4.561  0.8050 -1.2766  0.6285
18327TIP3   OH276395   3.973   3.086   6.731  0.3178  0.0950 -0.2131
18327TIP3    H176396   4.035   3.029   6.686  1.4021  1.3879 -0.3962
18327TIP3    H276397   3.917   3.027   6.781 -0.1071 -1.2750 -2.2617
18328TIP3   OH276398   3.595   1.743  14.148 -0.1895  0.1962  0.0606
18328TIP3    H176399   3.645   1.727  14.068  0.3627 -1.9116  0.8007
18328TIP3    H276400   3.650   1.801  14.200 -0.7618  1.9732 -1.2749
18329TIP3   OH276401   4.014   1.597   4.591 -0.3606  0.0448  0.1578
18329TIP3    H176402   3.953   1.541   4.543 -0.2604  1.4910 -1.6960
18329TIP3    H276403   3.985   1.686   4.572  1.4800  0.7142  0.3898
18330TIP3   OH276404   0.022   6.280  16.693 -0.2492  0.7562 -0.6329
18330TIP3    H176405  -0.008   6.215  16.630  1.2386 -0.8482  0.2659
18330TIP3    H276406   0.036   6.230  16.774  1.1487  2.1374  0.0065
18331TIP3   OH276407   3.414   1.660  12.324  0.1963  0.2366  0.5622
18331TIP3    H176408   3.502   1.697  12.321  1.3173 -2.3563 -1.6886
18331TIP3    H276409   3.374   1.687  12.241 -0.1359 -0.7753  0.3821
18332TIP3   OH276410   0.036   0.243  12.319 -0.2008 -0.3034  0.4774
18332TIP3    H176411   0.040   0.160  12.366 -0.7214 -1.4587 -1.4974
18332TIP3    H276412  -0.051   0.243  12.278  1.0836 -0.2918 -2.2825
18333TIP3   OH276413   2.618   1.390   0.819 -0.3506  0.0796  0.4474
18333TIP3    H176414   2.681   1.355   0.757 -0.4277 -0.7148  0.8109
18333TIP3    H276415   2.669   1.407   0.898 -0.4690  0.0013  0.5415
18334TIP3   OH276416   2.334   1.005   0.905 -0.5202  0.3180  0.0229
18334TIP3    H176417   2.289   1.076   0.860  0.3804 -0.0315 -1.4689
18334TIP3    H276418   2.269   0.969   0.965 -1.6824  0.9245 -0.8606
18335TIP3   OH276419   2.370   5.680  11.269  0.5539 -0.5559  0.0447
18335TIP3    H176420   2.417   5.608  11.312  0.4735 -0.5706  0.1062
18335TIP3    H276421   2.349   5.646  11.182  2.8281  0.3038 -0.8959
18336TIP3   OH276422   3.209   2.862   5.628  0.7554 -0.8308 -0.2146
18336TIP3    H176423   3.244   2.941   5.587  0.2382 -0.5998 -0.2213
18336TIP3    H276424   3.227   2.793   5.565  0.4180 -0.5632 -0.6091
18337TIP3   OH276425   0.625   1.316   6.079 -0.0645  0.1109 -0.0347
18337TIP3    H176426   0.573   1.379   6.128 -1.3645 -0.4301 -0.6782
18337TIP3    H276427   0.643   1.246   6.142  2.1169  1.5180  0.9154
18338TIP3   OH276428   4.664   3.770   1.225  0.0486  0.2618 -0.5464
18338TIP3    H176429   4.673   3.768   1.130  1.5004 -2.2778 -0.3830
18338TIP3    H276430   4.751   3.790   1.258 -0.1873 -0.0293  0.2824
18339TIP3   OH276431   0.355   1.547  15.934  0.0504  0.0766 -0.2040
18339TIP3    H176432   0.415   1.525  16.005  1.1263 -2.2573 -1.8014
18339TIP3    H276433   0.404   1.609  15.880  0.2608 -0.2902 -0.4292
18340TIP3   OH276434   0.095   2.384   4.755  0.2755  0.4088  0.4276
18340TIP3    H176435   0.059   2.347   4.836 -0.2358 -1.5784 -0.6778
18340TIP3    H276436   0.020   2.393   4.697  1.0226 -0.7365 -0.7576
18341TIP3   OH276437   3.758   0.727  14.897 -0.3159  0.3370  0.0369
18341TIP3    H176438   3.785   0.781  14.971  2.3680  0.4037 -0.9403
18341TIP3    H276439   3.840   0.694  14.860 -1.6743 -0.6964 -2.1651
18342TIP3   OH276440   5.423   1.123   3.932  0.5492  0.3275 -0.0201
18342TIP3    H176441   5.465   1.179   3.997  0.0793  0.8478 -0.1587
18342TIP3    H276442   5.484   1.122   3.858  1.3153 -0.6718  0.6199
18343TIP3   OH276443   4.202   0.253   5.048  0.7103  0.4258  0.8765
18343TIP3    H176444   4.161   0.167   5.035  2.6239 -0.3453 -0.2918
18343TIP3    H276445   4.129   0.311   5.069 -0.8934 -1.0431 -0.4169
18344TIP3   OH276446   4.952   4.416   3.454  0.0789 -0.1390 -0.0397
18344TIP3    H176447   5.046   4.429   3.469  0.3052 -1.8452  0.1030
18344TIP3    H276448   4.935   4.463   3.372  1.3838 -1.0815 -0.8755
18345TIP3   OH276449   5.058   2.408   0.079  0.2155  0.2666 -0.4646
18345TIP3    H176450   5.118   2.482   0.079  0.7885 -0.1913  0.1645
18345TIP3    H276451   5.099   2.343   0.136 -1.0441  0.0831  0.2569
18346TIP3   OH276452   2.437   5.388  14.350 -0.1362  0.0852  0.0763
18346TIP3    H176453   2.499   5.315  14.343  0.5191  0.5184  1.2364
18346TIP3    H276454   2.485   5.464  14.316 -0.7785  0.0226 -1.0230
18347TIP3   OH276455   0.707   6.401   1.999 -0.3995 -0.2142  0.2593
18347TIP3    H176456   0.687   6.485   2.040 -1.7393 -0.0504 -0.7137
18347TIP3    H276457   0.627   6.349   2.012  0.7304 -1.6630  1.6567
18348TIP3   OH276458   4.466   0.335  13.532  0.2155  0.0486 -0.0422
18348TIP3    H176459   4.494   0.246  13.553 -0.8059 -0.1100  0.6615
18348TIP3    H276460   4.528   0.391  13.579 -0.3560 -0.2987  1.1398
18349TIP3   OH276461   6.432   1.138  11.815  0.8309  0.4758 -0.3941
18349TIP3    H176462   6.389   1.146  11.731  0.9417  0.3691 -0.4613
18349TIP3    H276463   6.496   1.068  11.803 -0.4231 -0.8062  0.3183
18350TIP3   OH276464   0.974   4.758  12.283  0.4458  0.2847 -0.7435
18350TIP3    H176465   0.890   4.713  12.294  0.3597  0.5693 -0.2350
18350TIP3    H276466   1.011   4.720  12.203  0.3728 -0.6971 -0.3187
18351TIP3   OH276467   4.043   5.392  12.384 -0.1686  0.6672 -0.3899
18351TIP3    H176468   4.085   5.306  12.390  2.5687  1.7351 -2.6277
18351TIP3    H276469   3.998   5.391  12.299  2.4154  2.3964 -1.8655
18352TIP3   OH276470   0.305   5.223   5.857 -0.6974  0.0627  0.0595
18352TIP3    H176471   0.215   5.193   5.859 -1.3730  1.7808 -2.3242
18352TIP3    H276472   0.358   5.143   5.861 -2.2570 -0.8807  2.9329
18353TIP3   OH276473   3.157   1.054   2.870 -0.1936  0.6141  0.3568
18353TIP3    H176474   3.100   1.112   2.821  0.4936  0.0497 -1.1307
18353TIP3    H276475   3.173   1.101   2.952 -3.0370  0.6254  0.9603
18354TIP3   OH276476   0.731   5.938  12.097  0.1461  0.4185 -0.0162
18354TIP3    H176477   0.684   5.972  12.021 -0.5462 -1.2528 -0.3575
18354TIP3    H276478   0.768   6.016  12.139 -0.1114  1.4272 -1.6197
18355TIP3   OH276479   3.596   2.745   1.696  0.0915  0.0728 -0.1214
18355TIP3    H176480   3.647   2.810   1.743 -0.7852  0.8837 -0.2626
18355TIP3    H276481   3.591   2.778   1.606 -1.2914  0.3866  0.0584
18356TIP3   OH276482   0.911   4.001  12.818 -0.3425  0.5474 -0.3089
18356TIP3    H176483   0.912   3.907  12.802  0.2745  0.6364 -0.8243
18356TIP3    H276484   1.000   4.029  12.798 -0.9358  1.4987 -1.6631
18357TIP3   OH276485   0.407   0.410  14.599  0.3230  0.1963  0.2037
18357TIP3    H176486   0.320   0.409  14.559  0.7715  0.3200 -0.8031
18357TIP3    H276487   0.394   0.452  14.683 -0.5412  0.5159 -0.0837
18358TIP3   OH276488   6.530   1.550   1.703  0.3777 -0.3698 -0.1280
18358TIP3    H176489   6.585   1.561   1.781  3.0977  0.7255 -2.1313
18358TIP3    H276490   6.530   1.636   1.662 -0.9635 -0.9617 -1.4061
18359TIP3   OH276491   5.473   6.143   3.691  0.3742  0.1649  0.0802
18359TIP3    H176492   5.405   6.207   3.669  0.1650 -0.2471 -0.4769
18359TIP3    H276493   5.441   6.060   3.655  1.1569 -0.0369 -0.1661
18360TIP3   OH276494   3.944   6.575  16.695  0.4642 -0.4424 -0.0352
18360TIP3    H176495   3.886   6.519  16.747  0.9180 -0.2930  0.6353
18360TIP3    H276496   3.886   6.615  16.629 -0.3072  0.1853  1.0142
18361TIP3   OH276497   0.626   2.573   3.882  0.3803  0.1867  0.0838
18361TIP3    H176498   0.582   2.505   3.933  1.6237 -0.5425  0.1921
18361TIP3    H276499   0.656   2.636   3.948 -0.1294  0.4677  0.0466
18362TIP3   OH276500   2.905   0.839   1.276  0.0621  0.1222  0.1071
18362TIP3    H176501   2.893   0.904   1.208  1.2013 -0.3806 -0.5871
18362TIP3    H276502   2.825   0.843   1.328 -0.5237  0.9813 -0.8546
18363TIP3   OH276503   5.210   3.740  12.306  0.3269  0.1990  0.0384
18363TIP3    H176504   5.204   3.647  12.328 -2.0569  1.2009  4.0862
18363TIP3    H276505   5.304   3.755  12.294  0.8863 -2.4533  0.6868
18364TIP3   OH276506   6.373   1.036   4.655  0.1088  0.1699 -0.4721
18364TIP3    H176507   6.336   1.124   4.651  2.2005  1.0994  0.2025
18364TIP3    H276508   6.314   0.983   4.601  0.5315  2.6099 -3.5022
18365TIP3   OH276509   4.133   3.593  15.142  0.1921  0.1828  0.3411
18365TIP3    H176510   4.113   3.570  15.051  1.1364 -0.8749  0.3890
18365TIP3    H276511   4.055   3.568  15.191 -0.1155  0.2742 -0.0996
18366TIP3   OH276512   6.054   6.398   1.427 -0.4298 -0.0539 -0.3062
18366TIP3    H176513   6.115   6.378   1.356  0.3369 -0.9535  0.5820
18366TIP3    H276514   6.007   6.316   1.442 -1.4630  0.4761 -0.5931
18367TIP3   OH276515   3.762   4.863   3.693  0.3756 -0.2266  0.1660
18367TIP3    H176516   3.841   4.917   3.696  0.5577 -0.3781 -1.5543
18367TIP3    H276517   3.794   4.774   3.712  0.2965  0.0191  1.5075
18368TIP3   OH276518   0.702   5.303  13.546  0.2505 -0.0840 -0.3175
18368TIP3    H176519   0.748   5.380  13.513  0.8227  0.5233  1.8353
18368TIP3    H276520   0.640   5.338  13.611 -0.4086 -1.3080 -0.2701
18369TIP3   OH276521   0.898   1.132   2.083 -0.2403  0.1680 -0.8695
18369TIP3    H176522   0.917   1.157   1.993 -0.3578  1.9794 -0.4065
18369TIP3    H276523   0.976   1.158   2.132 -0.9421  0.9419 -0.1507
18370TIP3   OH276524   0.555   0.150   0.265 -0.7000 -0.0614  0.8904
18370TIP3    H176525   0.471   0.112   0.240 -0.9195  1.3542 -0.5927
18370TIP3    H276526   0.584   0.098   0.341 -1.2768 -2.7405 -0.6767
18371TIP3   OH276527   5.882   4.411   5.383  0.0349 -1.1138 -0.0247
18371TIP3    H176528   5.864   4.363   5.303  1.4577 -0.7696 -0.5751
18371TIP3    H276529   5.970   4.382   5.409  0.5164  0.4644  0.1556
18372TIP3   OH276530   6.450   3.913  15.755  0.1707 -0.0470 -0.2432
18372TIP3    H176531   6.486   3.891  15.841  0.0479  0.4966 -0.0481
18372TIP3    H276532   6.521   3.958  15.710 -1.3343  4.5211  1.5382
18373TIP3   OH276533   3.358   6.570   0.058  0.4267  0.7839 -0.1522
18373TIP3    H176534   3.407   6.489   0.041  0.7750  0.3158  2.8004
18373TIP3    H276535   3.280   6.542   0.105 -0.5289  1.9732 -1.0020
18374TIP3   OH276536   5.655   0.280   4.324  0.4559 -0.4676 -0.1901
18374TIP3    H176537   5.701   0.278   4.240 -0.6550 -0.6925 -0.8042
18374TIP3    H276538   5.565   0.304   4.301  0.4783  0.9624  1.0966
18375TIP3   OH276539   5.457   5.466  14.098 -0.9416  0.6106 -0.5341
18375TIP3    H176540   5.482   5.408  14.026  0.8330 -1.0089  1.3218
18375TIP3    H276541   5.385   5.420  14.141  1.1304 -0.7815  1.5492
18376TIP3   OH276542   4.516   6.739   1.123  0.3212 -0.0216  0.0378
18376TIP3    H176543   4.536   6.830   1.104  0.8203  0.5578  3.1199
18376TIP3    H276544   4.567   6.689   1.059  1.0459  1.7901 -0.8268
18377TIP3   OH276545   4.872   1.558   6.209  0.2678  0.4121 -0.8028
18377TIP3    H176546   4.957   1.600   6.205  1.2856 -1.5015  0.0075
18377TIP3    H276547   4.838   1.580   6.295  1.0014 -0.7580 -0.1995
18378TIP3   OH276548   3.846   6.400   1.349 -0.0349  0.7470 -0.9969
18378TIP3    H176549   3.831   6.482   1.301 -0.0331 -0.3768 -2.9844
18378TIP3    H276550   3.828   6.331   1.285 -1.5652 -0.8639  1.0872
18379TIP3   OH276551   4.771   5.085   3.437  0.3298 -0.2327 -0.0876
18379TIP3    H176552   4.794   5.014   3.497  0.5423  2.2103  2.8508
18379TIP3    H276553   4.854   5.111   3.398  1.0378  1.4369  2.3886
18380TIP3   OH276554   4.718   4.920  16.913 -0.3494 -0.5939 -0.3451
18380TIP3    H176555   4.686   5.008  16.936 -0.8573 -1.5769  2.8494
18380TIP3    H276556   4.765   4.934  16.830 -1.5004  2.4525 -0.5781
18381TIP3   OH276557   3.198   3.060  12.938 -0.6066 -0.7340 -0.8330
18381TIP3    H176558   3.129   3.044  13.002  0.0609 -0.6790 -0.1010
18381TIP3    H276559   3.195   2.983  12.880 -1.3868 -0.6507 -0.9023
18382TIP3   OH276560   2.566   4.238   2.234 -0.2951 -0.6401  0.0278
18382TIP3    H176561   2.558   4.158   2.182 -0.6249 -0.3957 -0.2923
18382TIP3    H276562   2.480   4.278   2.231 -0.7258 -1.3522  1.9508
18383TIP3   OH276563   1.742   1.815  11.550 -0.5745  0.4089 -0.2111
18383TIP3    H176564   1.744   1.790  11.458 -0.6763  1.7488 -0.5853
18383TIP3    H276565   1.807   1.885  11.558  0.1224 -0.3562  0.9366
18384TIP3   OH276566   4.661   2.509   5.373 -0.9074 -0.3228 -0.0923
18384TIP3    H176567   4.668   2.549   5.286 -1.4056  1.8514  0.8219
18384TIP3    H276568   4.746   2.523   5.414 -2.0493  2.7294  1.3938
18385TIP3   OH276569   3.288   2.482  13.725 -0.2261 -0.1343  0.1178
18385TIP3    H176570   3.254   2.394  13.743  0.3513 -0.1096  1.4143
18385TIP3    H276571   3.231   2.541  13.774 -1.1593  0.3064 -1.4604
18386TIP3   OH276572   0.984   4.586  15.253 -0.2134 -0.0682 -0.0013
18386TIP3    H176573   0.939   4.606  15.170 -2.1821 -2.4777  0.4564
18386TIP3    H276574   0.946   4.503  15.282  2.6608 -0.8225  1.7774
18387TIP3   OH276575   1.248   3.810   5.187 -0.4235 -0.3550  0.2785
18387TIP3    H176576   1.323   3.761   5.220  0.0470 -0.5716 -1.0647
18387TIP3    H276577   1.187   3.815   5.261 -0.2402 -2.4853  0.5924
18388TIP3   OH276578   6.213   5.171   2.609  0.0733 -0.5123 -0.4119
18388TIP3    H176579   6.138   5.202   2.558 -0.2870  1.0068  1.0064
18388TIP3    H276580   6.287   5.221   2.576  0.6463 -2.5057 -2.2964
18389TIP3   OH276581   1.544   3.578  16.533  0.4789 -0.3248  0.1620
18389TIP3    H176582   1.557   3.635  16.608 -1.9274  0.2567  0.1703
18389TIP3    H276583   1.494   3.504  16.568 -1.1264  0.2092 -0.9429
18390TIP3   OH276584   4.437   5.669   2.608 -0.5078 -0.0534 -0.9248
18390TIP3    H176585   4.390   5.741   2.650 -1.6104 -0.7926 -0.8784
18390TIP3    H276586   4.468   5.615   2.681 -0.3629 -0.0472 -0.9822
18391TIP3   OH276587   5.919   3.252  13.278 -0.1104  0.0548  0.1594
18391TIP3    H176588   6.007   3.277  13.248  0.4371 -2.5139 -0.5638
18391TIP3    H276589   5.870   3.333  13.281  2.2531  1.5268  0.3940
18392TIP3   OH276590   2.118   5.035  12.121  0.2789 -0.1999 -0.1034
18392TIP3    H176591   2.035   5.077  12.143 -0.4880 -1.5125 -0.3838
18392TIP3    H276592   2.132   5.058  12.029  0.2513  0.0828 -0.0364
18393TIP3   OH276593   2.158   4.558  10.657 -0.0348  0.3477 -0.6712
18393TIP3    H176594   2.204   4.609  10.724 -0.5474 -0.1491  0.0710
18393TIP3    H276595   2.227   4.530  10.597  0.7212 -0.6848  0.6247
18394TIP3   OH276596   4.765   6.351  13.165 -0.0385 -0.9660  0.6441
18394TIP3    H176597   4.841   6.348  13.107  0.3685  2.3477  0.8537
18394TIP3    H276598   4.704   6.410  13.121 -0.9496 -0.7364  2.1745
18395TIP3   OH276599   2.331   5.350   0.723  0.1164 -0.0079  0.1864
18395TIP3    H176600   2.397   5.401   0.675 -0.5345  0.2781 -0.3991
18395TIP3    H276601   2.372   5.334   0.808  1.4877 -0.9385 -0.6115
18396TIP3   OH276602   0.053   5.795  16.828  0.1242 -0.4160 -0.3464
18396TIP3    H176603   0.005   5.776  16.747 -1.1569 -1.5991  0.6652
18396TIP3    H276604   0.145   5.784  16.804 -0.2965 -1.9710 -1.3670
18397TIP3   OH276605   1.246   0.617   0.214 -0.0932  0.2327 -0.0047
18397TIP3    H176606   1.201   0.640   0.295 -1.5269 -1.1340 -0.4033
18397TIP3    H276607   1.181   0.631   0.145  1.0415  1.1660 -0.9310
18398TIP3   OH276608   1.834   2.770   3.117  0.4060 -0.3759 -0.5936
18398TIP3    H176609   1.911   2.824   3.135  0.1856  0.2904 -1.6797
18398TIP3    H276610   1.772   2.828   3.075 -0.5104 -1.0416 -0.1820
18399TIP3   OH276611   6.066   0.343   0.259  0.1006  0.5354 -0.6184
18399TIP3    H176612   6.102   0.318   0.174 -1.0194  0.1209 -0.9925
18399TIP3    H276613   6.021   0.264   0.290 -0.0616  0.8857  0.0481
18400TIP3   OH276614   0.927   0.691  14.914  0.3626  0.2322  0.0393
18400TIP3    H176615   0.933   0.691  14.818 -0.8441  2.1932 -0.0548
18400TIP3    H276616   0.834   0.705  14.932  0.1696 -2.6320  1.5103
18401TIP3   OH276617   0.217   1.052   5.330  0.1323 -0.1037 -0.0542
18401TIP3    H176618   0.162   1.114   5.378  1.6673  0.8749  0.4986
18401TIP3    H276619   0.157   1.005   5.273 -1.1973  1.2847  0.1736
18402TIP3   OH276620   0.496   5.509  14.459  0.3670  0.2817 -0.5680
18402TIP3    H176621   0.473   5.546  14.544  2.8000  0.7227 -0.0536
18402TIP3    H276622   0.429   5.443  14.442 -0.3514  0.4473  1.5222
18403TIP3   OH276623   0.886   2.112  12.519  0.2678  0.2160  0.1884
18403TIP3    H176624   0.810   2.170  12.524 -0.9694 -1.1606 -1.9994
18403TIP3    H276625   0.956   2.160  12.563 -2.2171  0.8930  3.5899
18404TIP3   OH276626   4.321   3.131  16.039  1.0208  0.1638  0.0848
18404TIP3    H176627   4.353   3.190  15.971 -0.1524 -0.0880 -0.7147
18404TIP3    H276628   4.296   3.052  15.991 -0.8121  0.3716  0.6509
18405TIP3   OH276629   0.025   2.319   5.963 -0.1337 -0.1878 -0.0735
18405TIP3    H176630   0.070   2.311   6.047 -0.4134 -0.0001  0.0959
18405TIP3    H276631  -0.030   2.241   5.958  0.5938 -0.6754 -0.5145
18406TIP3   OH276632   3.594   1.787   4.557 -0.1172  0.2063 -0.5720
18406TIP3    H176633   3.643   1.754   4.633  0.4104  0.9871 -0.5705
18406TIP3    H276634   3.582   1.710   4.501 -0.7434 -0.4381  0.4221
18407TIP3   OH276635   3.597   0.157  16.224  0.2066 -0.5298 -0.0892
18407TIP3    H176636   3.548   0.108  16.158  0.7932 -0.3999 -0.6188
18407TIP3    H276637   3.663   0.096  16.256  0.1072 -0.5001  0.1743
18408TIP3   OH276638   6.330   4.663  14.071 -0.0547  0.0461  0.3530
18408TIP3    H176639   6.391   4.682  13.999  1.4102  0.1206  1.5983
18408TIP3    H276640   6.376   4.599  14.125 -2.0440 -1.6658  0.0744
18409TIP3   OH276641   0.792   1.278  14.873  0.1837  0.4391  0.6318
18409TIP3    H176642   0.888   1.284  14.875  0.1066  1.7096  0.6817
18409TIP3    H276643   0.767   1.267  14.965  0.4567 -3.2168  0.3556
18410TIP3   OH276644   4.227   0.748   5.061  1.3054  0.4460 -0.3888
18410TIP3    H176645   4.139   0.729   5.028  0.0130  2.7590  1.5709
18410TIP3    H276646   4.266   0.806   4.994 -0.1876  2.6753  0.6184
18411TIP3   OH276647   4.452   4.015  11.423 -0.4459  0.1272 -0.6860
18411TIP3    H176648   4.411   3.937  11.384  0.3619  0.1214 -1.5384
18411TIP3    H276649   4.513   3.980  11.488 -0.3531  0.0624 -0.8078
18412TIP3   OH276650   1.738   4.782  14.277  0.7454 -0.6164 -0.0260
18412TIP3    H176651   1.692   4.749  14.355  0.3495  1.1526  0.5169
18412TIP3    H276652   1.818   4.821  14.312 -0.3238  1.8826 -0.2474
18413TIP3   OH276653   2.772   5.408   5.407  0.0668 -0.5710 -0.0053
18413TIP3    H176654   2.800   5.390   5.497 -0.5724  1.0111  0.5260
18413TIP3    H276655   2.849   5.387   5.353  0.3763 -1.7324  0.8918
18414TIP3   OH276656   0.913   2.077  16.238  0.2048  0.1637 -0.2650
18414TIP3    H176657   0.979   2.128  16.284 -0.5422  1.9815 -1.1341
18414TIP3    H276658   0.963   2.021  16.179  1.0291  0.3452  0.2558
18415TIP3   OH276659   6.002   6.578  11.871  0.3894 -0.0622  0.4872
18415TIP3    H176660   6.056   6.654  11.849 -0.8637  0.6753 -0.1079
18415TIP3    H276661   6.059   6.503  11.855  0.8404  0.6332 -1.3420
18416TIP3   OH276662   2.171   5.611  16.019 -0.2283  0.1701  0.0016
18416TIP3    H176663   2.193   5.622  16.111  0.3792 -0.3802 -0.0675
18416TIP3    H276664   2.160   5.517  16.008 -0.5871  0.2604 -0.4261
18417TIP3   OH276665   5.839   0.067   6.069 -0.0623 -0.3617  0.3603
18417TIP3    H176666   5.779   0.018   6.126 -0.1757 -0.4011  0.2063
18417TIP3    H276667   5.816   0.159   6.084  0.5857 -0.3197  1.1382
18418TIP3   OH276668   3.564   6.773  11.619 -0.8538 -0.1630 -0.6949
18418TIP3    H176669   3.555   6.779  11.524  2.1819  0.7141 -0.9920
18418TIP3    H276670   3.584   6.863  11.647 -1.0297 -0.5370  0.6788
18419TIP3   OH276671   2.952   2.946  13.339  0.0213 -0.0905 -0.7861
18419TIP3    H176672   2.909   3.013  13.393 -1.6849 -0.6560 -1.4116
18419TIP3    H276673   2.974   2.991  13.258 -2.7072 -0.6915 -1.8992
18420TIP3   OH276674   3.700   5.821  11.570  0.5074 -0.1380  0.3239
18420TIP3    H176675   3.706   5.746  11.511  0.2997 -0.5747  0.8571
18420TIP3    H276676   3.791   5.840  11.593  0.4071 -1.9809  2.3768
18421TIP3   OH276677   3.111   2.413   6.428 -0.3298  0.2123 -0.0198
18421TIP3    H176678   3.021   2.408   6.462 -0.0821 -0.5304  0.5366
18421TIP3    H276679   3.103   2.389   6.335 -0.4213 -1.9045  0.5199
18422TIP3   OH276680   0.453   5.416   3.774  0.1761  0.1498  0.5104
18422TIP3    H176681   0.358   5.421   3.786  0.0856  1.1126 -0.5502
18422TIP3    H276682   0.471   5.468   3.696  1.3311 -1.9463 -0.6500
18423TIP3   OH276683   2.820   5.382  12.030  0.0254  0.5346 -0.0401
18423TIP3    H176684   2.819   5.459  11.973 -0.9206  0.4950 -0.0805
18423TIP3    H276685   2.791   5.415  12.115 -0.8939  0.1326 -0.1900
18424TIP3   OH276686   1.164   4.961  16.261 -0.8764  0.5904 -0.1849
18424TIP3    H176687   1.233   5.023  16.236 -0.3354  0.1118  0.1083
18424TIP3    H276688   1.082   5.004  16.235 -0.6163  2.1174  1.4464
18425TIP3   OH276689   5.947   0.695   2.781  0.0442 -0.4101 -0.4997
18425TIP3    H176690   6.003   0.755   2.730  1.9394 -1.2941  0.5128
18425TIP3    H276691   5.859   0.731   2.770  1.0015  1.9621 -0.7855
18426TIP3   OH276692   5.703   2.788   3.631  0.1161 -0.3856 -0.1370
18426TIP3    H176693   5.704   2.774   3.725  0.1931 -0.0483 -0.0869
18426TIP3    H276694   5.676   2.879   3.620  1.0739 -0.1174 -0.4002
18427TIP3   OH276695   3.072   0.861  12.150  0.2756  0.2764  0.0891
18427TIP3    H176696   3.027   0.799  12.093  1.6870  0.2201 -0.9856
18427TIP3    H276697   3.062   0.945  12.106 -3.7880  1.3333  2.7789
18428TIP3   OH276698   3.760   4.992  12.016  0.0382  0.2613 -0.3669
18428TIP3    H176699   3.743   4.966  11.925 -3.5615  0.2751  0.2357
18428TIP3    H276700   3.777   5.086  12.011 -1.4177  0.5139 -0.9057
18429TIP3   OH276701   2.541   2.937   3.648 -0.1082  0.0525 -0.2013
18429TIP3    H176702   2.570   2.846   3.639  1.4002  0.5114 -0.2671
18429TIP3    H276703   2.511   2.944   3.738 -1.8957 -0.9452 -0.6884
18430TIP3   OH276704   1.248   1.407   5.529  0.2669 -0.1693  0.1943
18430TIP3    H176705   1.228   1.500   5.518  1.7641  0.2379  0.7423
18430TIP3    H276706   1.297   1.403   5.612  1.5246 -1.2348 -0.5804
18431TIP3   OH276707   5.207   5.053   2.766  0.5188 -0.5134 -0.0640
18431TIP3    H176708   5.173   5.126   2.817  1.7034 -0.5669  0.8107
18431TIP3    H276709   5.208   5.085   2.676  3.0565  1.3419  0.5766
18432TIP3   OH276710   3.099   5.930   1.929  0.2761  0.1803  0.5598
18432TIP3    H176711   3.095   5.911   1.835  0.7568  1.9421  0.1781
18432TIP3    H276712   3.024   5.987   1.945  0.2380 -0.0563  1.2487
18433TIP3   OH276713   6.757   0.662  11.634  0.3005 -0.1230  0.1095
18433TIP3    H176714   6.829   0.619  11.681  1.2158  0.7358 -0.4935
18433TIP3    H276715   6.800   0.726  11.577 -0.9420  0.3710 -0.2894
18434TIP3   OH276716   6.746   6.729  14.564  0.1862  0.3695 -0.0160
18434TIP3    H176717   6.713   6.650  14.521  1.8228 -0.0993 -0.4519
18434TIP3    H276718   6.690   6.800  14.531 -0.3225 -0.3877 -0.7943
18435TIP3   OH276719   0.716   0.996   4.939 -0.2301  0.2050  0.4359
18435TIP3    H176720   0.622   1.016   4.945 -0.4263 -0.7882  0.7339
18435TIP3    H276721   0.747   1.001   5.029  0.4934  2.8033  0.0839
18436TIP3   OH276722   1.989   4.134  11.891 -0.5031  0.3147 -0.1094
18436TIP3    H176723   1.938   4.075  11.946  0.8364  0.6469  1.5620
18436TIP3    H276724   2.044   4.182  11.953 -0.4595  2.2193 -1.5744
18437TIP3   OH276725   0.796   2.295  12.759 -0.1630 -0.0388  0.1136
18437TIP3    H176726   0.798   2.323  12.667  0.5449 -0.5786 -0.0388
18437TIP3    H276727   0.769   2.374  12.806 -4.0742 -0.6848 -0.8726
18438TIP3   OH276728   4.121   2.683  14.864 -0.0710 -0.1149  0.1634
18438TIP3    H176729   4.103   2.722  14.779  1.5401  1.2973  0.4384
18438TIP3    H276730   4.053   2.617  14.875 -1.1942  0.7161 -1.5469
18439TIP3   OH276731   3.590   5.460   2.462  0.3426 -0.2586  0.4085
18439TIP3    H176732   3.619   5.406   2.388 -3.4976 -1.1779 -0.5493
18439TIP3    H276733   3.604   5.550   2.433  0.8008 -0.6465 -0.5959
18440TIP3   OH276734   2.390   1.943   0.593 -0.4729 -0.4239  0.0722
18440TIP3    H176735   2.416   2.004   0.661 -0.3377 -0.7603  0.3223
18440TIP3    H276736   2.443   1.864   0.609 -1.8382 -1.2129  0.7449
18441TIP3   OH276737   0.279   6.548   3.776  0.9083 -0.2061 -0.3571
18441TIP3    H176738   0.301   6.590   3.860  0.4414 -0.6129 -0.0244
18441TIP3    H276739   0.309   6.610   3.710 -2.1032  1.9071  0.1255
18442TIP3   OH276740   5.606   1.900  15.598 -0.2326  0.2009 -0.4528
18442TIP3    H176741   5.699   1.879  15.590  0.1753  1.8013 -0.0117
18442TIP3    H276742   5.593   1.915  15.692 -0.2286  3.1380 -0.8924
18443TIP3   OH276743   4.617   1.172  15.955  0.4913  0.9461 -0.3234
18443TIP3    H176744   4.669   1.093  15.937 -1.0587 -0.1910  0.1084
18443TIP3    H276745   4.648   1.236  15.891  1.8953  0.0471 -0.5660
18444TIP3   OH276746   0.957   0.772  15.172  0.1069  0.6219 -0.4659
18444TIP3    H176747   1.021   0.720  15.222 -2.7948 -2.6511  0.1097
18444TIP3    H276748   0.948   0.726  15.089 -0.3791  1.8940 -1.1262
18445TIP3   OH276749   5.854   4.594   3.744 -0.0076  0.1534  0.0893
18445TIP3    H176750   5.819   4.680   3.767  0.9671  0.4602  0.4517
18445TIP3    H276751   5.829   4.582   3.653 -2.5540 -0.3892  0.8236
18446TIP3   OH276752   0.119   3.807   4.953 -0.3734 -0.1889 -0.5018
18446TIP3    H176753   0.147   3.872   4.889  1.3252 -0.0794  0.3121
18446TIP3    H276754   0.096   3.857   5.031 -0.7338 -0.4371 -0.4467
18447TIP3   OH276755   3.703   3.642  16.401  0.1048 -0.2749 -0.9083
18447TIP3    H176756   3.663   3.600  16.477  2.7304 -0.7512  0.2315
18447TIP3    H276757   3.694   3.578  16.331 -1.6691 -0.1150 -0.8712
18448TIP3   OH276758   2.160   5.583   2.733 -0.0161  0.4017  0.2701
18448TIP3    H176759   2.120   5.648   2.791  1.4513  1.3176  0.3073
18448TIP3    H276760   2.123   5.500   2.760 -1.7010  1.1910  0.4454
18449TIP3   OH276761   4.204   5.633   5.024 -0.0454 -0.9651  0.2016
18449TIP3    H176762   4.109   5.642   5.018  0.0978  0.4045 -0.2210
18449TIP3    H276763   4.227   5.572   4.954 -0.6018 -1.2212  0.2397
18450TIP3   OH276764   4.858   4.945   2.496  0.0340  0.2750 -0.4183
18450TIP3    H176765   4.839   4.867   2.446  1.2555  0.5182 -1.2837
18450TIP3    H276766   4.907   4.914   2.573  2.3588  0.3631 -1.8087
18451TIP3   OH276767   4.648   4.925   1.787  0.4207 -0.1087 -0.1960
18451TIP3    H176768   4.736   4.961   1.782  0.5252 -0.1692  1.0561
18451TIP3    H276769   4.660   4.831   1.773  0.7592 -0.3385  1.4993
18452TIP3   OH276770   3.655   5.871   5.649  0.2395  0.8342  0.2701
18452TIP3    H176771   3.686   5.790   5.609 -0.8707 -0.0217  1.1186
18452TIP3    H276772   3.706   5.879   5.730  0.1802  0.8666  0.3046
18453TIP3   OH276773   4.661   2.366   0.959  0.2720 -0.0587 -0.2375
18453TIP3    H176774   4.682   2.427   0.889  1.5473  0.7098  0.7862
18453TIP3    H276775   4.565   2.361   0.959  0.1565  1.7474 -0.5156
18454TIP3   OH276776   4.533   3.906  11.090 -0.2956 -0.1113 -0.1962
18454TIP3    H176777   4.595   3.868  11.152 -0.1626  0.2069 -0.1315
18454TIP3    H276778   4.521   3.838  11.024 -1.0250 -0.7461  0.5753
18455TIP3   OH276779   5.239   6.503   0.098 -0.0378  0.3299  0.4101
18455TIP3    H176780   5.254   6.424   0.149  0.0815  0.2223  0.2077
18455TIP3    H276781   5.311   6.561   0.122  0.7268 -0.1913 -0.5702
18456TIP3   OH276782   6.257   3.728  14.469  0.0448  0.2800 -0.2556
18456TIP3    H176783   6.207   3.725  14.551 -1.2752  0.9656 -0.9954
18456TIP3    H276784   6.244   3.642  14.429  0.9626 -0.1701  0.3961
18457TIP3   OH276785   1.701   3.789   0.988 -0.7465 -0.0576  0.2076
18457TIP3    H176786   1.684   3.792   1.083 -1.1070 -0.2695  0.1514
18457TIP3    H276787   1.730   3.699   0.973 -0.9219 -0.0937  0.0812
18458TIP3   OH276788   4.917   0.990   4.800 -0.0554  0.0736  0.5443
18458TIP3    H176789   4.958   1.061   4.849  0.8340 -1.3083  1.8502
18458TIP3    H276790   4.941   0.910   4.848 -3.4033 -0.8840  0.7779
18459TIP3   OH276791   4.194   2.268   5.556 -0.3355  0.2587  0.1145
18459TIP3    H176792   4.153   2.231   5.634  0.6420  0.3261  0.6636
18459TIP3    H276793   4.183   2.363   5.567  0.6088  0.3105  0.6177
18460TIP3   OH276794   6.740   3.915  11.394 -0.2614 -0.8024  0.0406
18460TIP3    H176795   6.670   3.861  11.358  0.0325 -1.1252 -0.0471
18460TIP3    H276796   6.710   3.938  11.482 -0.5288 -0.8446 -0.0399
18461TIP3   OH276797   3.340   0.124  16.646  0.0172 -0.3970  0.0922
18461TIP3    H176798   3.354   0.117  16.741  1.0476  1.6543  0.1320
18461TIP3    H276799   3.274   0.058  16.626  0.2811 -1.3158  2.1333
18462TIP3   OH276800   1.211   0.440   3.404 -0.0775 -0.2453 -0.2876
18462TIP3    H176801   1.202   0.345   3.407  1.9880 -0.4214  0.6443
18462TIP3    H276802   1.215   0.461   3.310 -2.8309 -0.8113 -0.5804
18463TIP3   OH276803   0.156   0.229   0.471 -0.0515  0.1783 -0.6733
18463TIP3    H176804   0.172   0.173   0.547  2.0108  2.3630  0.5699
18463TIP3    H276805   0.086   0.288   0.499 -1.8437 -1.3559 -1.7941
18464TIP3   OH276806   0.589   6.563  11.168 -0.8823  0.0403 -0.1237
18464TIP3    H176807   0.574   6.478  11.210  0.4906  0.2884  0.9072
18464TIP3    H276808   0.546   6.626  11.227  0.8124  0.3611  0.8159
18465TIP3   OH276809   4.906   0.460  13.653 -0.0537  0.2714  0.1208
18465TIP3    H176810   4.910   0.374  13.695 -0.3517  0.7085  1.0570
18465TIP3    H276811   4.882   0.441  13.562  0.5184 -0.6757  0.1622
18466TIP3   OH276812   6.621   3.150  12.886  0.7009 -0.2055 -0.2864
18466TIP3    H176813   6.629   3.242  12.913 -1.8370  0.4909 -1.7255
18466TIP3    H276814   6.666   3.146  12.801  1.3476 -0.4440  0.0644
18467TIP3   OH276815   1.352   0.571  11.643 -0.1059  0.4883 -0.1096
18467TIP3    H176816   1.375   0.617  11.562 -2.0200  2.0890  0.2062
18467TIP3    H276817   1.328   0.641  11.704 -0.7576 -0.8037  1.1409
18468TIP3   OH276818   3.116   3.833   0.405  0.5127  0.4685 -0.1507
18468TIP3    H176819   3.142   3.756   0.354  1.6296  0.9341 -0.2803
18468TIP3    H276820   3.074   3.796   0.483  2.2298 -0.2884  0.4247
18469TIP3   OH276821   5.064   0.186   1.164 -0.4378 -0.0087  0.0321
18469TIP3    H176822   5.111   0.103   1.163  0.1779  0.3221 -1.7478
18469TIP3    H276823   5.039   0.200   1.072 -2.1563  0.8598  0.6128
18470TIP3   OH276824   2.702   4.243   3.890 -0.3040 -0.5161  0.4666
18470TIP3    H176825   2.655   4.257   3.973 -2.9884  1.0218 -1.2494
18470TIP3    H276826   2.732   4.331   3.865 -0.3866 -0.8054 -0.6705
18471TIP3   OH276827   6.495   3.065  12.246 -0.1562  0.4834  0.4605
18471TIP3    H176828   6.433   3.005  12.204 -0.9727  1.3644  0.3872
18471TIP3    H276829   6.581   3.029  12.223 -0.6239 -1.3748  1.4654
18472TIP3   OH276830   2.613   5.309   4.579 -0.1154 -0.4850  0.0563
18472TIP3    H176831   2.595   5.225   4.536  1.0975 -1.4579  1.4121
18472TIP3    H276832   2.527   5.351   4.585 -0.7027 -1.5164 -0.8722
18473TIP3   OH276833   3.069   2.440  12.038  0.2725 -0.7079  0.2943
18473TIP3    H176834   3.078   2.525  12.083  0.6938 -1.9861  2.7035
18473TIP3    H276835   2.975   2.424  12.035  0.2169 -0.3834  0.2765
18474TIP3   OH276836   4.914   5.955  14.666 -0.4903  0.1907  0.2207
18474TIP3    H176837   5.006   5.927  14.674  0.0983  2.1490  0.6166
18474TIP3    H276838   4.919   6.047  14.640 -2.3516  0.2318 -0.0394
18475TIP3   OH276839   6.781   3.116  15.588 -0.0872  0.4563  0.2167
18475TIP3    H176840   6.749   3.160  15.666 -1.6917 -0.3256  0.0148
18475TIP3    H276841   6.766   3.023  15.605  0.2598  0.2205 -0.7115
18476TIP3   OH276842   0.316   5.607   5.580  0.0421  0.4972  0.2159
18476TIP3    H176843   0.269   5.565   5.651  0.7661 -0.2991  0.2289
18476TIP3    H276844   0.336   5.695   5.613 -1.2626  0.7798  0.2730
18477TIP3   OH276845   1.834   1.110  12.602 -0.4131 -0.1060  0.2880
18477TIP3    H176846   1.855   1.085  12.512 -1.5511 -1.0750  0.2731
18477TIP3    H276847   1.878   1.194  12.615  1.7051 -1.0898 -0.3793
18478TIP3   OH276848   6.729   5.725  10.617  0.2508 -0.2452  0.0529
18478TIP3    H176849   6.778   5.715  10.535 -0.7104 -0.9183 -0.4483
18478TIP3    H276850   6.759   5.809  10.652  0.5117  0.1547 -1.0931
18479TIP3   OH276851   3.157   3.406  14.046 -0.5992  0.6061 -0.6600
18479TIP3    H176852   3.164   3.397  14.141  0.9159  0.8601 -0.7422
18479TIP3    H276853   3.074   3.364  14.025 -0.3629 -0.5441  0.6207
18480TIP3   OH276854   2.770   5.595   6.390 -0.4049 -0.4447 -0.0672
18480TIP3    H176855   2.730   5.625   6.308  2.4073 -0.3326 -1.4540
18480TIP3    H276856   2.801   5.675   6.433 -0.7227 -0.6190  0.4974
18481TIP3   OH276857   1.213   5.391   4.988 -0.4374 -0.5144  0.0501
18481TIP3    H176858   1.291   5.424   4.944 -1.6134  3.0149  0.4690
18481TIP3    H276859   1.196   5.307   4.947  3.0806 -0.9767 -0.6344
18482TIP3   OH276860   2.709   2.545   3.224 -0.0132 -0.1401  0.0702
18482TIP3    H176861   2.747   2.576   3.142  1.5001  0.9234  1.1432
18482TIP3    H276862   2.615   2.540   3.207  0.2317  0.5546 -1.5599
18483TIP3   OH276863   0.353   4.291   0.423  0.0538 -0.1869 -0.0348
18483TIP3    H176864   0.335   4.281   0.329 -1.3080  0.9422  0.0892
18483TIP3    H276865   0.313   4.375   0.446  2.0824  0.4854  1.1488
18484TIP3   OH276866   3.268   4.817  14.705 -0.0860 -0.0316  0.2589
18484TIP3    H176867   3.338   4.834  14.768 -0.5570  0.0655  0.7623
18484TIP3    H276868   3.209   4.758  14.750 -0.1020 -0.4701 -0.3267
18485TIP3   OH276869   0.085   4.683  11.594 -0.1555  0.5762  0.0737
18485TIP3    H176870  -0.001   4.644  11.579  1.1080 -2.1827 -0.3211
18485TIP3    H276871   0.094   4.685  11.689  0.8198 -2.6851  0.1162
18486TIP3   OH276872   3.574   4.927   3.986  0.2633 -0.2023  0.1983
18486TIP3    H176873   3.604   4.853   3.933 -0.5500 -0.1348 -0.3769
18486TIP3    H276874   3.595   4.904   4.076  3.0201  0.3224 -0.2755
18487TIP3   OH276875   4.523   2.949   3.731  0.0623  0.4102  0.7104
18487TIP3    H176876   4.554   2.861   3.708 -0.8591  0.2370  0.0992
18487TIP3    H276877   4.598   3.006   3.713 -0.0881  0.0509 -1.1860
18488TIP3   OH276878   1.667   4.271  15.203  0.1679  0.0713  0.0808
18488TIP3    H176879   1.662   4.306  15.114  0.4888  2.3666  0.9294
18488TIP3    H276880   1.581   4.289  15.241 -0.1429 -1.3722  0.0781
18489TIP3   OH276881   0.146   3.382  16.061 -0.1401 -0.2114 -0.1982
18489TIP3    H176882   0.123   3.321  16.131 -1.1831 -1.5100 -1.6291
18489TIP3    H276883   0.190   3.327  15.996 -0.8997  0.5952 -1.4128
18490TIP3   OH276884   1.377   4.433  11.709  0.3315 -0.3274  0.2108
18490TIP3    H176885   1.371   4.338  11.701  0.8526 -0.5248  1.9859
18490TIP3    H276886   1.344   4.452  11.797 -0.8453  1.2536 -0.5469
18491TIP3   OH276887   5.984   4.676  15.323  0.1424 -0.1701 -0.2762
18491TIP3    H176888   5.915   4.635  15.270  1.2868  0.1487 -2.0473
18491TIP3    H276889   5.937   4.720  15.394 -1.5559  0.8756 -2.0193
18492TIP3   OH276890   5.858   1.334   0.407 -0.6938  0.1219 -0.6305
18492TIP3    H176891   5.935   1.286   0.375 -1.2510 -0.5152 -1.0551
18492TIP3    H276892   5.864   1.420   0.366  0.4267  0.4871  0.2957
18493TIP3   OH276893   5.397   5.312   0.477  0.1207  0.3963  0.2985
18493TIP3    H176894   5.409   5.288   0.569  0.0641 -1.3864 -0.1430
18493TIP3    H276895   5.358   5.234   0.437 -0.1369  1.2671 -1.1789
18494TIP3   OH276896   1.090   0.805   4.962 -0.5927 -0.6322  0.1502
18494TIP3    H176897   1.183   0.781   4.957 -0.1270  1.5055 -2.5201
18494TIP3    H276898   1.090   0.899   4.978 -2.3085 -0.5633 -0.1333
18495TIP3   OH276899   3.197   4.129  12.387  0.2866 -0.1300 -0.2969
18495TIP3    H176900   3.149   4.110  12.468  2.9586 -2.8292  0.7874
18495TIP3    H276901   3.214   4.223  12.390 -1.6979  0.1989  1.1121
18496TIP3   OH276902   4.529   2.752  12.279  0.3593  0.4092  0.0683
18496TIP3    H176903   4.589   2.693  12.234  0.4144 -0.2687  1.0114
18496TIP3    H276904   4.574   2.774  12.361 -0.6184 -0.0319  0.7427
18497TIP3   OH276905   1.949   5.826   3.539  0.0821 -0.2945  0.3100
18497TIP3    H176906   1.911   5.914   3.537 -0.2586 -0.4552 -0.5844
18497TIP3    H276907   1.987   5.818   3.626 -1.9077 -0.1068  1.2377
18498TIP3   OH276908   0.598   4.990   6.594  0.5220  0.1437 -0.0906
18498TIP3    H176909   0.618   5.074   6.635  1.9189 -0.7948  1.2196
18498TIP3    H276910   0.560   5.013   6.509  1.4140  2.0908  0.0045
18499TIP3   OH276911   1.503   5.087   0.767  0.2365 -0.2654  0.1301
18499TIP3    H176912   1.423   5.036   0.757  1.0963 -1.5008 -0.4857
18499TIP3    H276913   1.571   5.035   0.725  1.3396  0.8598  0.4789
18500TIP3   OH276914   3.449   6.008   3.224 -0.2331 -0.1577 -0.0314
18500TIP3    H176915   3.405   6.026   3.141  0.7234  2.0558 -0.0970
18500TIP3    H276916   3.542   6.014   3.203  0.0067  0.7972  1.2592
18501TIP3   OH276917   1.946   3.098   0.434  0.0071  0.2233  0.2132
18501TIP3    H176918   1.915   3.060   0.516 -1.6869 -0.6056 -0.7765
18501TIP3    H276919   1.925   3.191   0.441  0.8145  0.3435  1.1379
18502TIP3   OH276920   6.338   4.413   6.139  0.4199  0.5042  0.8157
18502TIP3    H176921   6.246   4.439   6.141  0.5121  1.0128 -0.5452
18502TIP3    H276922   6.348   4.352   6.212 -0.6006  1.7092  1.9842
18503TIP3   OH276923   0.555   3.299  12.411  0.2272  0.2413  0.0135
18503TIP3    H176924   0.541   3.329  12.321  0.9176  4.2163  1.1396
18503TIP3    H276925   0.476   3.326  12.458 -0.1304 -1.8158  0.6220
18504TIP3   OH276926   4.968   1.306  15.420 -0.0414 -0.7622  0.4744
18504TIP3    H176927   4.938   1.297  15.330  0.5912 -2.9445  0.4552
18504TIP3    H276928   4.889   1.328  15.470 -0.3139  0.9057 -0.6579
18505TIP3   OH276929   4.666   0.732   3.214  0.5357 -0.0215  0.2572
18505TIP3    H176930   4.644   0.639   3.207  2.3221 -0.4483  0.1069
18505TIP3    H276931   4.584   0.773   3.241 -0.5464 -1.4929 -0.6716
18506TIP3   OH276932   1.718   3.492  14.276  0.3747 -0.2048 -0.8401
18506TIP3    H176933   1.624   3.475  14.284  0.5323 -0.5804  0.2486
18506TIP3    H276934   1.728   3.583  14.305  0.4790 -0.4884  0.0340
18507TIP3   OH276935   6.462   6.219  11.107 -0.1092 -0.0992  0.4415
18507TIP3    H176936   6.543   6.265  11.086  0.2248 -0.2884  1.2830
18507TIP3    H276937   6.407   6.285  11.150  1.0608 -0.8750  3.2975
18508TIP3   OH276938   6.031   4.953  12.287  0.2953  0.4076  0.6465
18508TIP3    H176939   6.105   5.010  12.310  0.8956 -0.1504  0.1110
18508TIP3    H276940   5.987   4.936  12.370 -0.3596  2.2894  0.7205
18509TIP3   OH276941   5.484   5.091  12.081  0.1526 -0.6038  0.0200
18509TIP3    H176942   5.507   5.007  12.123  0.6887  0.0607  1.0846
18509TIP3    H276943   5.389   5.087  12.072 -0.0660 -0.4978  1.9556
18510TIP3   OH276944   0.815   5.078   4.947  0.6592 -0.6704 -0.0147
18510TIP3    H176945   0.851   5.154   4.902 -3.1259  1.4751  0.3769
18510TIP3    H276946   0.755   5.038   4.883 -1.2206 -0.2959  1.4576
18511TIP3   OH276947   3.482   2.904  14.091 -0.4611 -0.4539 -0.1335
18511TIP3    H176948   3.422   2.869  14.157 -1.1819  0.0706 -0.5022
18511TIP3    H276949   3.539   2.964  14.139  0.8569 -2.1941  0.5293
18512TIP3   OH276950   0.349   2.067   2.207  0.2931  0.4084  0.2450
18512TIP3    H176951   0.402   2.100   2.280  0.1027  1.8462 -0.2446
18512TIP3    H276952   0.410   2.068   2.132 -0.5458  2.5798 -0.4402
18513TIP3   OH276953   1.931   0.452   3.088 -0.1513  0.7425  0.0675
18513TIP3    H176954   1.904   0.488   3.004 -1.3520  0.5221  0.3465
18513TIP3    H276955   1.923   0.525   3.150  0.8347  0.9341 -0.0291
18514TIP3   OH276956   4.217   0.995   1.604  0.6068 -0.5262 -0.1184
18514TIP3    H176957   4.188   1.020   1.691  0.8972 -1.1540  0.1642
18514TIP3    H276958   4.210   0.900   1.603  2.9181 -0.7361  0.0664
18515TIP3   OH276959   2.830   2.750   3.388  0.1159  0.6424  0.2643
18515TIP3    H176960   2.788   2.678   3.341  0.1093 -0.2274  1.5798
18515TIP3    H276961   2.922   2.724   3.395 -0.2517 -0.1937  2.4538
18516TIP3   OH276962   1.157   6.224  16.431 -0.0939 -0.1399 -0.3034
18516TIP3    H176963   1.169   6.263  16.345 -0.8893 -0.1104 -0.4089
18516TIP3    H276964   1.077   6.264  16.465 -0.6389 -1.2844 -0.2034
18517TIP3   OH276965   2.022   6.583   2.170  0.1412 -0.3202  0.3802
18517TIP3    H176966   2.053   6.529   2.243  0.9380 -1.1611 -0.5714
18517TIP3    H276967   2.091   6.649   2.158  0.8194 -1.2052 -0.6854
18518TIP3   OH276968   5.195   4.736  14.294  0.0551  0.0078  0.3680
18518TIP3    H176969   5.172   4.675  14.365  0.2253  0.8153  1.1223
18518TIP3    H276970   5.264   4.691  14.245 -1.1560 -1.2331 -0.2462
18519TIP3   OH276971   4.343   5.928   1.507  0.5570 -0.3694 -0.0069
18519TIP3    H176972   4.430   5.970   1.509  0.8399 -0.9471 -0.2814
18519TIP3    H276973   4.310   5.946   1.419  0.5683 -0.4954 -0.0365
18520TIP3   OH276974   1.667   0.716  16.519 -0.2218  0.2998  0.1857
18520TIP3    H176975   1.598   0.764  16.566 -0.6251  0.4501 -0.5575
18520TIP3    H276976   1.719   0.676  16.589  1.6113  3.8160  0.9757
18521TIP3   OH276977   2.683   5.051   4.161 -0.3766 -0.4598 -0.5229
18521TIP3    H176978   2.681   5.059   4.256  2.0689 -2.4842 -0.2271
18521TIP3    H276979   2.607   4.997   4.140 -1.0066  0.1115  0.2687
18522TIP3   OH276980   3.876   0.058   3.424 -0.1322 -0.1263 -0.2026
18522TIP3    H176981   3.846   0.061   3.333 -1.7483 -2.5132  0.1815
18522TIP3    H276982   3.835   0.134   3.466 -0.0818  0.4948 -1.2681
18523TIP3   OH276983   4.735   2.083  11.916 -0.7376  0.7026  0.0882
18523TIP3    H176984   4.792   2.091  11.992  0.2436 -1.0237 -0.4229
18523TIP3    H276985   4.709   2.172  11.895 -0.3045  1.2757  1.9003
18524TIP3   OH276986   1.230   1.015   5.644  0.0791 -0.1256  0.1471
18524TIP3    H176987   1.186   1.074   5.705 -1.8091 -0.8361 -0.4931
18524TIP3    H276988   1.222   0.928   5.684  1.1232 -0.2272  0.1418
18525TIP3   OH276989   0.014   6.414  14.736  0.5600 -0.3127  0.6006
18525TIP3    H176990   0.095   6.460  14.711 -0.2743  0.2693 -1.0979
18525TIP3    H276991  -0.052   6.448  14.676 -0.4590 -2.4789  0.4603
18526TIP3   OH276992   3.600   3.593  16.657  0.0795 -0.1322 -0.5007
18526TIP3    H176993   3.550   3.532  16.712 -1.0741 -0.0952 -1.4830
18526TIP3    H276994   3.536   3.661  16.634  1.6713  2.2515  1.7235
18527TIP3   OH276995   4.652   5.293  15.709  0.2824 -0.6454  0.4160
18527TIP3    H176996   4.636   5.290  15.614 -2.0264  2.2950  0.6366
18527TIP3    H276997   4.656   5.201  15.735  1.6299 -1.5343 -2.6057
18528TIP3   OH276998   4.957   0.619  14.147 -0.1386  0.1326 -0.9478
18528TIP3    H176999   4.916   0.674  14.214 -0.2603  1.4877 -2.1124
18528TIP3    H277000   4.887   0.598  14.086  0.2496 -0.0233 -1.3428
18529TIP3   OH277001   5.109   5.379   0.463  0.2014  0.4051 -0.3222
18529TIP3    H177002   5.065   5.298   0.486 -2.1268  0.9731 -2.4649
18529TIP3    H277003   5.196   5.352   0.433  0.0669 -1.0949  0.5861
18530TIP3   OH277004   5.848   3.983  10.359 -0.4535  0.2780  0.3051
18530TIP3    H177005   5.942   3.963  10.364  0.0772  2.5525 -0.2868
18530TIP3    H277006   5.830   4.032  10.438 -0.7481  1.3904 -0.4451
18531TIP3   OH277007   6.517   5.678  14.441 -0.1502 -0.2403 -0.1137
18531TIP3    H177008   6.573   5.650  14.513 -0.5539 -1.7836 -0.3768
18531TIP3    H277009   6.433   5.635  14.458 -1.9260  3.5018  1.3178
18532TIP3   OH277010   0.359   4.985  16.462  0.0787  0.6533  0.9418
18532TIP3    H177011   0.355   4.977  16.367 -1.7491 -1.6735  1.1961
18532TIP3    H277012   0.389   5.075  16.477  0.9408  0.8647 -1.8112
18533TIP3   OH277013   2.554   6.387   4.853 -0.1786 -0.1769 -0.5348
18533TIP3    H177014   2.641   6.389   4.813 -0.2807 -0.8407 -0.7969
18533TIP3    H277015   2.539   6.295   4.873 -1.7400 -0.4086 -2.5638
18534TIP3   OH277016   5.576   4.217  16.971  0.2632  0.1653 -0.7478
18534TIP3    H177017   5.567   4.178  16.884 -3.1230  1.8048 -1.2487
18534TIP3    H277018   5.526   4.299  16.965  0.4654  0.6033  2.5750
18535TIP3   OH277019   3.139   0.505   3.245  0.6459  0.4141 -0.5046
18535TIP3    H177020   3.190   0.432   3.209 -0.0272  0.7111 -2.1139
18535TIP3    H277021   3.198   0.546   3.309  2.1941  0.3070 -1.7993
18536TIP3   OH277022   2.038   0.730  12.837  0.0710 -0.1201 -0.1433
18536TIP3    H177023   2.114   0.679  12.864  0.9672  0.8451 -0.8527
18536TIP3    H277024   1.993   0.752  12.919  0.7744 -0.3359  0.2970
18537TIP3   OH277025   5.893   6.052   5.504  0.5871 -0.1124  0.2588
18537TIP3    H177026   5.851   6.059   5.419  3.4293  1.8052 -1.0621
18537TIP3    H277027   5.862   6.129   5.553  0.9208  0.1493  0.0555
18538TIP3   OH277028   4.487   5.604  14.380  0.2975 -0.3892 -0.3597
18538TIP3    H177029   4.520   5.516  14.398  0.6094 -0.1621  0.1757
18538TIP3    H277030   4.565   5.656  14.360  0.1392 -0.1665 -0.4107
18539TIP3   OH277031   0.125   1.081  13.548 -0.5210  0.2804  0.0907
18539TIP3    H177032   0.197   1.097  13.486  0.1050  0.9094  0.9560
18539TIP3    H277033   0.046   1.103  13.499 -0.1641 -0.8484 -1.0201
18540TIP3   OH277034   1.029   3.431  10.965  0.1185  1.1036  0.8113
18540TIP3    H177035   1.108   3.481  10.941  0.3206  1.7496  2.7198
18540TIP3    H277036   1.031   3.355  10.908  2.2638  0.9919  0.9736
18541TIP3   OH277037   4.226   6.568   4.875 -0.5137  0.2257 -0.1895
18541TIP3    H177038   4.245   6.650   4.921  1.2987 -0.4983  0.4026
18541TIP3    H277039   4.130   6.563   4.873 -0.6301  1.2918  1.7009
18542TIP3   OH277040   0.632   1.012   1.499 -0.7098  0.1974 -0.1896
18542TIP3    H177041   0.590   0.930   1.473 -0.1183 -0.3473  0.5296
18542TIP3    H277042   0.624   1.068   1.422 -2.1855 -0.1069 -0.2720
18543TIP3   OH277043   3.292   3.887   4.496  0.6122  0.9184 -0.3553
18543TIP3    H177044   3.225   3.941   4.455  0.5799  1.1790  0.0344
18543TIP3    H277045   3.357   3.872   4.427  1.2425  2.4997 -0.1212
18544TIP3   OH277046   3.280   2.430  14.363  0.7984  0.1575  0.4033
18544TIP3    H177047   3.361   2.447  14.315  1.6062  0.6511  1.9233
18544TIP3    H277048   3.238   2.359  14.314  0.8657  1.6607 -1.8944
18545TIP3   OH277049   6.400   6.715  11.585  0.2396 -0.6101 -0.3225
18545TIP3    H177050   6.413   6.781  11.653  0.5027 -0.5601 -0.4207
18545TIP3    H277051   6.435   6.755  11.506 -2.3827  0.3912 -1.0540
18546TIP3   OH277052   2.046   4.236  15.000  0.5228 -0.5988 -0.2775
18546TIP3    H177053   2.096   4.271  15.074 -0.8052 -0.0415  0.3706
18546TIP3    H277054   2.037   4.311  14.940  0.4195 -0.6817 -0.3657
18547TIP3   OH277055   2.506   4.822   4.249  0.4996 -0.1574 -0.1234
18547TIP3    H177056   2.482   4.850   4.338 -0.0902 -2.1156  0.3588
18547TIP3    H277057   2.465   4.736   4.239  3.6117 -1.6175 -0.9395
18548TIP3   OH277058   6.448   4.261  14.646 -0.0702  0.9855 -0.6091
18548TIP3    H177059   6.359   4.295  14.656  0.2401  1.4755  0.6544
18548TIP3    H277060   6.437   4.177  14.601 -1.2765  0.4620  0.6331
18549TIP3   OH277061   3.102   4.359   0.801  0.3324  0.2473 -0.6575
18549TIP3    H177062   3.164   4.431   0.790  0.1942  0.5698  0.6369
18549TIP3    H277063   3.056   4.354   0.717 -0.2279  2.2093 -0.4885
18550TIP3   OH277064   1.872   6.654  12.375 -0.2584 -0.0141  0.0527
18550TIP3    H177065   1.788   6.698  12.358 -0.0616  0.2823 -0.1618
18550TIP3    H277066   1.868   6.631  12.468 -1.4421 -1.8657 -0.4333
18551TIP3   OH277067   0.766   0.128   3.959 -0.5515  0.8860 -0.1215
18551TIP3    H177068   0.805   0.137   3.872 -0.3567  0.7279 -0.0503
18551TIP3    H277069   0.819   0.184   4.015 -0.7450  1.0727 -0.1271
18552TIP3   OH277070   5.418   1.086   5.235  0.1439  0.4546 -0.4380
18552TIP3    H177071   5.342   1.028   5.225  0.0259  0.7317 -1.1971
18552TIP3    H277072   5.445   1.075   5.326  0.1916 -0.8776 -0.6023
18553TIP3   OH277073   5.462   2.542   3.631  0.6801 -0.1358  0.5317
18553TIP3    H177074   5.527   2.596   3.677  1.0864 -1.4920  1.5800
18553TIP3    H277075   5.457   2.461   3.682 -0.2001 -0.9496 -0.7970
18554TIP3   OH277076   6.113   2.534   1.810 -0.1809  0.1274  0.0485
18554TIP3    H177077   6.018   2.532   1.795 -0.2797  0.4178  0.6044
18554TIP3    H277078   6.128   2.462   1.872 -0.1965  0.7477  0.7902
18555TIP3   OH277079   2.494   0.878  13.838  0.2241  0.4645 -0.4765
18555TIP3    H177080   2.509   0.972  13.852  1.0712  0.2522  0.1014
18555TIP3    H277081   2.402   0.872  13.813 -0.1854  1.3248  0.7755
18556TIP3   OH277082   0.698   4.694  14.229 -0.3744 -0.7202  0.0838
18556TIP3    H177083   0.659   4.695  14.317  0.1983 -0.5348  0.3442
18556TIP3    H277084   0.736   4.607  14.220  0.6792 -0.3182  0.5306
18557TIP3   OH277085   4.519   1.555   3.329 -0.3510  0.0499 -0.2099
18557TIP3    H177086   4.595   1.595   3.370  0.4294 -1.3341 -0.2773
18557TIP3    H277087   4.478   1.503   3.398 -0.2183 -0.6148 -0.6184
18558TIP3   OH277088   4.876   5.301   4.256  1.1239  0.4824  0.3144
18558TIP3    H177089   4.882   5.219   4.304  2.0619  0.4693  0.1838
18558TIP3    H277090   4.814   5.355   4.306 -0.7065 -0.8711 -0.4306
18559TIP3   OH277091   2.107   2.021  14.935  0.8432 -0.2758 -0.0558
18559TIP3    H177092   2.134   2.109  14.908  0.9380 -0.3164 -0.0970
18559TIP3    H277093   2.177   1.991  14.993 -0.2353  0.4956  1.6639
18560TIP3   OH277094   4.864   2.832  15.787  0.5778 -0.0096 -0.0376
18560TIP3    H177095   4.865   2.779  15.708  0.5919 -0.2642  0.1334
18560TIP3    H277096   4.813   2.910  15.763  0.9520  0.1158 -0.4232
18561TIP3   OH277097   4.103   2.067  16.398  0.3148  1.0600 -1.0577
18561TIP3    H177098   4.037   2.027  16.455  0.8326  0.5747 -0.7918
18561TIP3    H277099   4.155   1.993  16.366  1.1437  1.5002 -0.7430
18562TIP3   OH277100   6.151   4.007   0.965  0.2075 -0.4195 -0.7210
18562TIP3    H177101   6.193   3.976   1.045  0.0948  0.6136 -0.2552
18562TIP3    H277102   6.201   3.967   0.894 -0.7337 -2.7122 -0.1297
18563TIP3   OH277103   3.234   6.064  16.492  0.0526 -0.0556 -0.1311
18563TIP3    H177104   3.312   6.055  16.547 -0.2804 -0.1838  0.3232
18563TIP3    H277105   3.206   5.974  16.474 -0.1461 -0.0079 -0.0672
18564TIP3   OH277106   1.107   5.414   3.706 -0.5742  0.1855  0.2345
18564TIP3    H177107   1.103   5.318   3.707 -0.3046  0.1756  0.4086
18564TIP3    H277108   1.089   5.437   3.615 -1.0664 -0.0092  0.2827
18565TIP3   OH277109   5.215   5.671   3.019 -0.7865 -0.5156  0.0855
18565TIP3    H177110   5.184   5.592   2.974 -0.5368 -0.9906  0.7259
18565TIP3    H277111   5.310   5.663   3.017 -0.7631 -0.2435  0.1736
18566TIP3   OH277112   6.730   5.879  11.088 -0.6778 -0.1784  0.2668
18566TIP3    H177113   6.754   5.968  11.063  0.0718 -0.3265  0.4203
18566TIP3    H277114   6.656   5.890  11.147  0.4052  0.4617  1.5540
18567TIP3   OH277115   5.580   5.622   5.858 -0.0947 -0.7299 -0.0776
18567TIP3    H177116   5.515   5.632   5.928 -1.2064 -2.9068 -0.7560
18567TIP3    H277117   5.532   5.642   5.778 -0.0520 -2.6918 -0.6167
18568TIP3   OH277118   2.603   1.172   2.083  0.1782  0.2663  0.2339
18568TIP3    H177119   2.531   1.161   2.145 -0.1136  2.1563  0.2691
18568TIP3    H277120   2.662   1.098   2.101 -1.3771 -0.8877  0.7007
18569TIP3   OH277121   3.153   5.776  10.877  0.2926 -0.4684  0.5811
18569TIP3    H177122   3.133   5.774  10.971  1.9291 -0.1867  0.9463
18569TIP3    H277123   3.096   5.844  10.842  0.2803  0.0259  1.5345
18570TIP3   OH277124   1.573   6.728  13.289 -0.2563 -0.0335  0.2081
18570TIP3    H177125   1.570   6.661  13.357  1.0619 -0.0797  0.2193
18570TIP3    H277126   1.648   6.705  13.235 -1.6274 -0.3231 -1.6193
18571TIP3   OH277127   1.010   1.563   4.360  0.5156  0.3805 -0.0122
18571TIP3    H177128   1.030   1.486   4.414  0.7934  0.0142 -0.6207
18571TIP3    H277129   1.094   1.608   4.352 -0.1264  2.0723  2.3425
18572TIP3   OH277130   3.414   6.301   4.860 -0.5883  0.0215  0.4242
18572TIP3    H177131   3.489   6.355   4.835 -1.1912  2.0078  2.6811
18572TIP3    H277132   3.345   6.326   4.799 -0.2112  0.2186  0.0748
18573TIP3   OH277133   0.243   0.875  13.300  0.1692 -0.4883  0.0632
18573TIP3    H177134   0.244   0.971  13.307  3.5314 -0.4202 -0.4204
18573TIP3    H277135   0.305   0.846  13.367  0.3898 -2.2317 -0.8749
18574TIP3   OH277136   5.563   2.102  10.861  0.1903 -0.3815 -0.4808
18574TIP3    H177137   5.568   2.011  10.832  0.7617 -0.8616  1.1029
18574TIP3    H277138   5.473   2.128  10.842  0.2864 -0.9681 -1.8208
18575TIP3   OH277139   3.173   4.730   2.967 -0.2091 -0.0275 -0.2576
18575TIP3    H177140   3.186   4.818   2.932 -3.0682  0.7079  0.4092
18575TIP3    H277141   3.248   4.716   3.025  1.2734  1.1940 -1.8143
18576TIP3   OH277142   0.833   1.376   4.767  0.0838 -0.6877  0.6962
18576TIP3    H177143   0.917   1.422   4.754 -0.1683 -0.0776  1.2066
18576TIP3    H277144   0.818   1.381   4.861 -1.9589  1.7696  0.2946
18577TIP3   OH277145   1.213   3.888  17.141  0.0001 -0.1681  0.2250
18577TIP3    H177146   1.226   3.799  17.173 -0.3264 -0.1356  0.4633
18577TIP3    H277147   1.243   3.887  17.050 -1.4863 -0.9338 -0.2753
18578TIP3   OH277148   2.241   5.031  12.926 -0.2415 -0.2074  0.2884
18578TIP3    H177149   2.208   5.073  12.847  0.1218 -1.2570 -0.4347
18578TIP3    H277150   2.259   5.104  12.986  1.0911  0.7259 -1.2045
18579TIP3   OH277151   0.628   3.847  11.311 -0.9285  0.4160  0.0848
18579TIP3    H177152   0.598   3.901  11.383 -0.8414 -0.2214  0.6025
18579TIP3    H277153   0.586   3.762  11.325  0.2556 -0.1579  0.2118
18580TIP3   OH277154   5.780   0.603   4.819  0.1218 -0.0230  0.4644
18580TIP3    H177155   5.715   0.547   4.861  0.8318  0.6076  2.4447
18580TIP3    H277156   5.849   0.543   4.792 -0.3485 -0.4377  0.1610
18581TIP3   OH277157   4.046   2.436  16.637  0.6226 -0.3705 -0.3583
18581TIP3    H177158   4.018   2.462  16.550 -0.6314 -0.8304 -0.1009
18581TIP3    H277159   3.991   2.488  16.697  2.0455  0.5591  0.1630
18582TIP3   OH277160   5.069   4.179  16.272  0.1427  0.4088 -0.1477
18582TIP3    H177161   5.149   4.176  16.219  0.9503  0.3116  1.0608
18582TIP3    H277162   5.096   4.221  16.353 -1.2798  1.3238 -0.1214
18583TIP3   OH277163   6.118   0.496  14.552  0.1037  0.5754 -0.7229
18583TIP3    H177164   6.028   0.521  14.528  0.1553  1.0545 -0.4400
18583TIP3    H277165   6.130   0.533  14.639 -0.4846 -2.1442  0.5628
18584TIP3   OH277166   0.409   0.609   0.546  0.2483  0.2455 -0.1966
18584TIP3    H177167   0.327   0.564   0.568 -0.4286  0.8519 -1.4248
18584TIP3    H277168   0.386   0.664   0.471  1.0587  2.6206  1.2715
18585TIP3   OH277169   5.180   0.849   1.551  0.4887 -0.4056 -0.0552
18585TIP3    H177170   5.266   0.873   1.587  0.2342  0.2265  0.1428
18585TIP3    H277171   5.127   0.928   1.562  0.0653 -0.5937 -0.7581
18586TIP3   OH277172   4.930   0.632   0.290 -0.3181  0.4121 -0.0190
18586TIP3    H177173   5.022   0.606   0.295 -0.8665 -1.2788  1.6472
18586TIP3    H277174   4.932   0.719   0.249  1.8544 -0.4688 -1.9210
18587TIP3   OH277175   4.345   0.076  16.128 -0.4320  0.5909  0.2940
18587TIP3    H177176   4.309   0.151  16.080  1.6958  0.9221 -0.8675
18587TIP3    H277177   4.433   0.105  16.155 -0.6387 -0.5021  2.2631
18588TIP3   OH277178   1.975   3.632  12.206  0.1681  0.1923  0.0951
18588TIP3    H177179   2.067   3.611  12.222 -0.2174 -1.6733 -0.0750
18588TIP3    H277180   1.956   3.597  12.119 -0.3704  1.7337 -0.4331
18589TIP3   OH277181   3.606   1.614  11.438 -0.2860 -0.0434  0.1766
18589TIP3    H177182   3.514   1.593  11.422 -0.2047 -0.6734  0.5157
18589TIP3    H277183   3.640   1.638  11.352 -0.7722  0.2176  0.0540
18590TIP3   OH277184   5.590   3.867   3.506 -0.4417  0.0362  0.4470
18590TIP3    H177185   5.652   3.885   3.577 -0.5234  0.4868  0.4058
18590TIP3    H277186   5.645   3.848   3.431 -0.3242 -3.1765  1.2692
18591TIP3   OH277187   2.762   5.525  12.896  0.2490 -0.6558  0.0903
18591TIP3    H177188   2.797   5.441  12.868  0.9040 -0.1384 -0.6633
18591TIP3    H277189   2.830   5.589  12.871  0.2749 -0.0423  1.7020
18592TIP3   OH277190   3.519   6.446   1.501  0.0412  0.1859  0.4984
18592TIP3    H177191   3.560   6.482   1.422  0.6264  0.5343  0.9592
18592TIP3    H277192   3.480   6.364   1.472  1.3004 -0.2850  0.1061
18593TIP3   OH277193   6.422   1.491  13.682  0.3824  0.2621 -0.4656
18593TIP3    H177194   6.363   1.565  13.692 -0.0530 -0.2330  0.6875
18593TIP3    H277195   6.446   1.492  13.589 -2.5085 -0.3198 -1.2745
18594TIP3   OH277196   4.384   4.227   4.116 -0.0708 -0.0920 -0.0902
18594TIP3    H177197   4.438   4.236   4.194 -1.2782 -0.1185  0.7612
18594TIP3    H277198   4.342   4.312   4.106  1.1350  0.3535 -1.5170
18595TIP3   OH277199   5.212   1.927  16.385 -0.3508  0.3208  0.1255
18595TIP3    H177200   5.140   1.870  16.411 -1.8418  2.2326  0.2923
18595TIP3    H277201   5.190   2.012  16.423  0.3955  1.7300 -2.4628
18596TIP3   OH277202   5.355   2.748   5.098  0.3837  0.3113  0.4529
18596TIP3    H177203   5.422   2.707   5.152 -0.4978 -1.1809  0.4496
18596TIP3    H277204   5.364   2.842   5.114  1.9920  0.0662  0.9929
18597TIP3   OH277205   3.254   5.577   5.581  0.6248 -0.1294  0.6559
18597TIP3    H177206   3.186   5.641   5.559  1.7628  1.2731  1.0989
18597TIP3    H277207   3.208   5.493   5.585 -0.7572  0.5344 -0.7456
18598TIP3   OH277208   2.536   3.681  10.315  0.3022 -0.0557  0.1865
18598TIP3    H177209   2.522   3.611  10.379  1.6342 -1.9037 -1.4514
18598TIP3    H277210   2.631   3.695  10.316  0.0677  1.5694  0.3190
18599TIP3   OH277211   0.948   3.679   2.652  0.3309 -0.3727  0.4898
18599TIP3    H177212   1.030   3.681   2.701  2.4504  1.2292 -2.9565
18599TIP3    H277213   0.915   3.768   2.658 -1.3501 -1.0724  2.0805
18600TIP3   OH277214   3.653   6.428  15.487 -0.3209 -0.1055 -0.3533
18600TIP3    H177215   3.639   6.470  15.571 -0.0654 -0.7455  0.0197
18600TIP3    H277216   3.748   6.435  15.473 -0.5319  1.1110 -1.1880
18601TIP3   OH277217   0.614   1.858  15.432  0.2039 -0.2363 -0.7889
18601TIP3    H177218   0.601   1.944  15.472 -0.1399 -0.1092 -1.1704
18601TIP3    H277219   0.611   1.797  15.505  2.7444  0.2615 -0.2001
18602TIP3   OH277220   5.022   0.422  14.356  0.2765 -0.2119 -0.2402
18602TIP3    H177221   5.088   0.431  14.425 -0.8144  1.1711  0.6394
18602TIP3    H277222   5.033   0.500  14.302 -1.1672  0.4345  0.3793
18603TIP3   OH277223   5.906   1.560  15.849  0.6419  0.1920 -0.7034
18603TIP3    H177224   5.948   1.603  15.923  2.2022  2.3673 -2.7817
18603TIP3    H277225   5.959   1.481  15.833  1.5665  0.8287 -0.8095
18604TIP3   OH277226   2.249   0.557  12.925 -0.2268 -0.2809  0.0360
18604TIP3    H177227   2.236   0.507  12.844  1.9000 -2.2744  0.8595
18604TIP3    H277228   2.214   0.501  12.994  0.1863  0.3468  0.7624
18605TIP3   OH277229   5.126   4.324  17.019  0.1330  0.7931 -0.5501
18605TIP3    H177230   5.085   4.246  16.982  1.6654 -0.4738  0.3799
18605TIP3    H277231   5.060   4.393  17.009 -1.4965 -0.7683 -0.7275
18606TIP3   OH277232   5.735   0.608  16.533  0.1352  0.3786 -0.3116
18606TIP3    H177233   5.639   0.617  16.537  0.3746  2.9229  1.3765
18606TIP3    H277234   5.761   0.660  16.457  0.0640 -1.7759 -1.8405
18607TIP3   OH277235   5.289   3.890   2.466  0.5696 -0.7100  0.2599
18607TIP3    H177236   5.238   3.970   2.451 -0.6428 -1.1639  1.7698
18607TIP3    H277237   5.379   3.920   2.473  0.2849  0.3612 -0.4813
18608TIP3   OH277238   0.196   2.383  13.245 -0.2959  0.1157  0.4132
18608TIP3    H177239   0.150   2.298  13.244 -1.1865  0.5989  0.0447
18608TIP3    H277240   0.136   2.441  13.292  0.0257  0.7076  0.0887
18609TIP3   OH277241   1.760   4.654  12.529 -0.2063 -0.0156 -0.3385
18609TIP3    H177242   1.828   4.670  12.594  0.9459 -0.4416 -1.4056
18609TIP3    H277243   1.733   4.741  12.500  1.6122  0.1484 -1.6376
18610TIP3   OH277244   0.471   3.262   4.338  0.0808  0.1571  0.0961
18610TIP3    H177245   0.377   3.254   4.356  0.0388  1.5934  0.5239
18610TIP3    H277246   0.507   3.303   4.416  0.6825  1.8452 -1.0549
18611TIP3   OH277247   1.563   6.602   0.965 -0.5194  1.0298  0.0294
18611TIP3    H177248   1.495   6.600   1.033  0.8036 -0.0399  1.3475
18611TIP3    H277249   1.640   6.636   1.010  0.1394  1.0904 -1.1484
18612TIP3   OH277250   6.717   4.979  16.624 -0.3881  0.4062 -0.5010
18612TIP3    H177251   6.653   4.992  16.694  1.4182 -0.7072  1.4499
18612TIP3    H277252   6.670   4.930  16.557 -2.5902  2.7633 -0.7396
18613TIP3   OH277253   0.565   3.651  16.979 -0.0534 -0.5264  0.1374
18613TIP3    H177254   0.547   3.731  16.929 -0.0303 -0.6606 -0.0888
18613TIP3    H277255   0.576   3.681  17.069  1.0616 -0.1345 -0.1182
18614TIP3   OH277256   4.606   3.292  15.725  0.2914 -0.0002  0.3363
18614TIP3    H177257   4.614   3.344  15.645 -1.3458 -1.5199 -0.8498
18614TIP3    H277258   4.696   3.263  15.744  0.5658 -0.5027 -1.5726
18615TIP3   OH277259   5.233   1.921  11.950  0.0942 -0.2876  0.4017
18615TIP3    H177260   5.304   1.969  11.992  2.6492 -3.1983 -0.4160
18615TIP3    H277261   5.275   1.874  11.878 -2.8172 -1.5173 -0.5763
18616TIP3   OH277262   3.253   0.990  15.845 -0.7284 -0.1385 -0.1618
18616TIP3    H177263   3.200   0.924  15.890  1.3483  0.1514  2.9263
18616TIP3    H277264   3.268   1.057  15.912 -1.2842  2.6074 -2.7042
18617TIP3   OH277265   5.537   3.641  11.536 -0.4476 -0.3909  0.5409
18617TIP3    H177266   5.505   3.713  11.480  2.2166  0.8926  0.5674
18617TIP3    H277267   5.504   3.662  11.623  0.4305  0.9156  0.5773
18618TIP3   OH277268   1.712   2.477  11.140  0.5399 -0.1538  0.6184
18618TIP3    H177269   1.634   2.516  11.099  0.6652 -0.7095 -0.1725
18618TIP3    H277270   1.692   2.476  11.233 -0.9811 -1.5546  0.2993
18619TIP3   OH277271   6.434   2.621   2.188 -0.0679 -0.1588  0.8065
18619TIP3    H177272   6.465   2.668   2.111 -1.1516  0.0223  0.4742
18619TIP3    H277273   6.512   2.609   2.242  0.3908  1.1723  0.4540
18620TIP3   OH277274   2.114   6.445  11.627  0.2189 -0.6613  0.3747
18620TIP3    H177275   2.177   6.412  11.564 -0.0373  1.9954 -1.3768
18620TIP3    H277276   2.029   6.421  11.592  0.0742  0.8296 -0.3525
18621TIP3   OH277277   4.233   6.434  16.501  0.0864  0.1914 -0.0540
18621TIP3    H177278   4.326   6.448  16.519  0.0714 -0.7102  0.7614
18621TIP3    H277279   4.190   6.513  16.534  0.6790  1.2611 -1.7177
18622TIP3   OH277280   2.839   6.050   0.398 -0.0522  0.2106  0.1417
18622TIP3    H177281   2.760   6.079   0.353 -0.2106 -1.3578 -0.6325
18622TIP3    H277282   2.908   6.060   0.333  0.1386  0.2001  0.3440
18623TIP3   OH277283   1.897   4.253  14.763 -0.0994 -0.2542 -0.0392
18623TIP3    H177284   1.822   4.255  14.821 -0.0476 -1.4221  0.0796
18623TIP3    H277285   1.902   4.341  14.727 -1.5176 -0.1709 -0.0481
18624TIP3   OH277286   3.713   1.896   3.045  0.3676  0.0454 -0.4043
18624TIP3    H177287   3.644   1.927   3.104  0.9129  0.9476 -0.2350
18624TIP3    H277288   3.785   1.871   3.103  0.3153 -0.5958 -0.6032
18625TIP3   OH277289   0.282   0.761  12.757  0.2152 -0.8505  0.3834
18625TIP3    H177290   0.360   0.712  12.734  1.1108  0.9484 -0.5559
18625TIP3    H277291   0.295   0.785  12.849  1.2598  0.2940 -0.0506
18626TIP3   OH277292   5.711   6.751  13.525 -0.2274 -0.0393  0.7045
18626TIP3    H177293   5.690   6.702  13.604 -1.1122  1.5865  1.5203
18626TIP3    H277294   5.733   6.685  13.460  0.2962 -1.4090  2.2526
18627TIP3   OH277295   6.034   4.123   0.464  0.2311  0.3996 -0.6415
18627TIP3    H177296   6.016   4.033   0.489 -2.5347  0.8737 -0.7921
18627TIP3    H277297   6.053   4.168   0.546 -0.3872  0.1071 -0.3380
18628TIP3   OH277298   0.303   4.523  17.131  0.4664 -0.6960 -0.2735
18628TIP3    H177299   0.348   4.478  17.202  1.4432  0.6173 -0.0397
18628TIP3    H277300   0.361   4.515  17.056  0.4628 -0.1690 -0.3361
18629TIP3   OH277301   2.743   2.901   4.054 -0.5448  0.4499 -0.4035
18629TIP3    H177302   2.814   2.889   4.117 -0.7679 -0.4329 -0.3208
18629TIP3    H277303   2.773   2.973   3.998 -0.7441  1.8643  1.2556
18630TIP3   OH277304   2.282   4.229   0.711  0.0409 -0.3884 -0.7812
18630TIP3    H177305   2.365   4.187   0.690  1.0823  0.4099  1.6100
18630TIP3    H277306   2.234   4.162   0.760  0.3711  0.0748  0.1771
18631TIP3   OH277307   0.856   1.249   5.039  0.5809 -0.0081  0.4155
18631TIP3    H177308   0.768   1.259   5.076  0.6703  1.2463  0.2960
18631TIP3    H277309   0.915   1.270   5.111  0.7602  1.5932 -0.1883
18632TIP3   OH277310   5.121   4.814  13.279  0.4198 -0.3608  0.0674
18632TIP3    H177311   5.187   4.756  13.242 -0.6916  0.2598 -3.0959
18632TIP3    H277312   5.162   4.901  13.276 -0.3220 -0.0441 -1.4687
18633TIP3   OH277313   1.077   2.360   2.511 -0.2757  0.1805 -0.6613
18633TIP3    H177314   0.996   2.409   2.504 -0.6283 -0.4128 -0.7383
18633TIP3    H277315   1.113   2.386   2.596 -0.1514  1.0371 -0.9771
18634TIP3   OH277316   1.456   2.700  14.871 -0.0847 -0.1768  0.3195
18634TIP3    H177317   1.417   2.744  14.947 -0.2977 -1.8198  1.1677
18634TIP3    H277318   1.383   2.654  14.830  0.4321 -1.0036  0.3237
18635TIP3   OH277319   5.813   1.474  11.562  0.6415 -0.1817  0.2324
18635TIP3    H177320   5.751   1.401  11.553  2.2692 -1.4942 -0.6063
18635TIP3    H277321   5.845   1.467  11.652  0.7048 -0.4429  0.1914
18636TIP3   OH277322   0.444   4.417  12.804  0.1683 -0.1916  0.0533
18636TIP3    H177323   0.418   4.476  12.875 -0.4908  0.5592 -0.8034
18636TIP3    H277324   0.516   4.463  12.760  1.2923 -1.1308  0.8647
18637TIP3   OH277325   2.976   2.742  10.663 -0.4635 -0.4178  0.3100
18637TIP3    H177326   2.940   2.729  10.576 -2.2462  0.1367  0.9430
18637TIP3    H277327   2.995   2.654  10.695 -0.0734 -0.6346 -0.5230
18638TIP3   OH277328   4.533   5.475  17.220 -0.1730 -0.3458 -0.5421
18638TIP3    H177329   4.530   5.563  17.257 -0.0498 -0.1981 -0.8807
18638TIP3    H277330   4.621   5.467  17.184  0.5801 -1.4245  1.4650
18639TIP3   OH277331   1.859   1.923  16.609 -0.8845  0.0591  0.3457
18639TIP3    H177332   1.837   1.837  16.645 -0.7586 -0.2731 -0.3592
18639TIP3    H277333   1.881   1.906  16.517 -0.8567  0.8441  0.2007
18640TIP3   OH277334   4.906   6.390   5.512  0.2177 -0.2755  0.0935
18640TIP3    H177335   4.995   6.360   5.491 -0.1196 -0.9313 -0.4156
18640TIP3    H277336   4.866   6.407   5.427  0.6085  2.2887  0.3820
18641TIP3   OH277337   2.709   3.213   4.701 -0.9340 -0.1544  0.7746
18641TIP3    H177338   2.685   3.231   4.610  1.6909 -1.6426 -0.2651
18641TIP3    H277339   2.785   3.268   4.717  1.3984 -3.1845  0.5546
18642TIP3   OH277340   2.614   0.928   0.933 -0.2678 -0.1614  0.3474
18642TIP3    H177341   2.519   0.934   0.923 -0.4787  1.3094  2.7206
18642TIP3    H277342   2.628   0.843   0.973 -0.5765 -0.4455 -0.1467
18643TIP3   OH277343   4.432   6.470   0.255  0.6515 -0.0015  0.0880
18643TIP3    H177344   4.465   6.471   0.165 -0.5143 -1.4752 -0.3850
18643TIP3    H277345   4.462   6.386   0.291  0.2355  0.1124  0.7184
18644TIP3   OH277346   0.763   5.420  10.617 -0.3725  0.1909 -0.0863
18644TIP3    H177347   0.800   5.422  10.705  0.7735 -0.6871 -0.5337
18644TIP3    H277348   0.838   5.401  10.560 -1.2575 -0.1368 -1.1612
18645TIP3   OH277349   0.415   0.386   5.912 -1.3130  0.0877 -0.0590
18645TIP3    H177350   0.343   0.400   5.973 -0.4376  1.0221  0.7902
18645TIP3    H277351   0.427   0.471   5.869 -1.0290 -0.1917 -0.5398
18646TIP3   OH277352   0.181   5.793  14.513  0.0485 -0.2002  0.8655
18646TIP3    H177353   0.101   5.839  14.539 -0.5468 -0.3224 -0.6708
18646TIP3    H277354   0.178   5.792  14.417  1.5431 -0.8323  0.8038
18647TIP3   OH277355   0.213   6.389  16.099  0.0988 -0.3263  0.1757
18647TIP3    H177356   0.211   6.474  16.143 -0.6744 -0.2202 -0.0604
18647TIP3    H277357   0.176   6.328  16.163 -1.3236 -0.1168 -0.4262
18648TIP3   OH277358   0.472   0.762  13.019  0.3382 -0.3611  0.2571
18648TIP3    H177359   0.536   0.795  12.956 -1.3109 -0.4130 -1.4861
18648TIP3    H277360   0.506   0.789  13.105  1.0914  2.3157 -0.8553
18649TIP3   OH277361   6.599   2.707   6.606  0.4818  0.4016  0.0087
18649TIP3    H177362   6.571   2.641   6.669 -0.4566  0.0672 -0.7354
18649TIP3    H277363   6.542   2.693   6.530  1.1576  1.2126 -0.6609
18650TIP3   OH277364   0.463   1.261  13.580  0.3488  0.3213  0.2086
18650TIP3    H177365   0.478   1.227  13.668 -0.5996  1.5864  0.8821
18650TIP3    H277366   0.472   1.356  13.590 -1.7043  0.6223 -0.6552
18651TIP3   OH277367   0.948   0.809  16.104 -0.0385  0.5963 -0.4615
18651TIP3    H177368   0.963   0.777  16.015  0.9490 -0.0808 -0.0528
18651TIP3    H277369   0.996   0.891  16.108  0.9865 -0.0047 -0.1595
18652TIP3   OH277370   2.247   3.314  13.516  0.0131 -0.2220 -0.6721
18652TIP3    H177371   2.197   3.393  13.539 -0.5196 -1.0412  1.1338
18652TIP3    H277372   2.327   3.321  13.569  0.0497 -0.8000 -0.6552
18653TIP3   OH277373   4.172   6.754  13.014 -0.0861 -0.4434 -0.0764
18653TIP3    H177374   4.110   6.809  12.967  0.8274  2.8610  2.3870
18653TIP3    H277375   4.118   6.689  13.058 -1.4216 -0.1053 -1.1774
18654TIP3   OH277376   3.699   3.644   5.039  0.5573  0.0314  0.1251
18654TIP3    H177377   3.729   3.589   5.112  1.7519 -1.3185 -1.3569
18654TIP3    H277378   3.656   3.718   5.082  0.5147 -1.1422  2.1919
18655TIP3   OH277379   2.677   2.288   3.012  0.1688 -0.1923  0.1528
18655TIP3    H177380   2.589   2.324   3.000  0.3285  0.2437  0.3032
18655TIP3    H277381   2.725   2.316   2.934  0.6758  1.0603  0.9069
18656TIP3   OH277382   2.203   3.512  14.573 -0.1556  0.0506  0.4950
18656TIP3    H177383   2.238   3.571  14.506  1.2959 -2.5379 -1.1197
18656TIP3    H277384   2.280   3.486  14.624 -0.6549 -1.0366  0.7005
18657TIP3   OH277385   6.742   0.578  15.239 -0.2036  0.4695 -0.3593
18657TIP3    H177386   6.755   0.593  15.145 -0.3717 -1.2608 -0.6765
18657TIP3    H277387   6.790   0.498  15.257 -1.8471 -0.3346  0.5997
18658TIP3   OH277388   1.157   3.719  15.251 -0.0382  0.2652 -0.3099
18658TIP3    H177389   1.083   3.686  15.200 -1.4344  1.1174  1.1103
18658TIP3    H277390   1.229   3.723  15.189 -0.1019 -4.2545 -0.8830
18659TIP3   OH277391   4.649   0.726  13.531  0.6659  0.3872  0.3797
18659TIP3    H177392   4.627   0.789  13.600 -1.3220 -1.5678  1.5607
18659TIP3    H277393   4.635   0.640  13.571  0.9661 -0.7900 -1.9869
18660TIP3   OH277394   5.449   0.677  14.540  0.8886  0.0876  0.4450
18660TIP3    H177395   5.375   0.737  14.535 -0.2888 -1.3515  0.0218
18660TIP3    H277396   5.480   0.684  14.630 -0.9283 -0.6196  1.1535
18661TIP3   OH277397   2.724   4.565   1.423 -0.5365  0.6496 -0.1326
18661TIP3    H177398   2.803   4.612   1.451  0.4612 -0.6004 -0.7717
18661TIP3    H277399   2.755   4.505   1.356 -2.2429  0.9211 -1.1967
18662TIP3   OH277400   0.949   0.125  15.864 -0.0185  0.0928 -0.5877
18662TIP3    H177401   0.888   0.123  15.937  2.3202  0.4736  1.4235
18662TIP3    H277402   0.909   0.187  15.802 -2.7589 -1.3662 -0.3930
18663TIP3   OH277403   4.208   6.132  14.999 -0.3901  0.2039  0.1804
18663TIP3    H177404   4.167   6.062  15.050  0.3853  1.1240  2.0951
18663TIP3    H277405   4.158   6.211  15.022 -1.7694  0.2114 -2.5514
18664TIP3   OH277406   2.248   2.234  17.140 -0.4286 -0.2051  0.0408
18664TIP3    H177407   2.167   2.234  17.089 -0.4712  0.4340  0.1029
18664TIP3    H277408   2.236   2.304  17.204 -0.3643 -0.9807  0.9163
18665TIP3   OH277409   3.936   0.326   0.253 -0.1503  0.7406 -0.0432
18665TIP3    H177410   3.910   0.241   0.219 -0.1356  0.7320 -0.0326
18665TIP3    H277411   3.854   0.370   0.275 -0.2419  1.2206 -1.2482
18666TIP3   OH277412   4.306   4.820  13.092 -0.0168 -0.0852  0.4619
18666TIP3    H177413   4.290   4.772  13.010 -0.6845 -2.0816  1.7115
18666TIP3    H277414   4.252   4.774  13.157 -0.9466  2.6012  1.6743
18667TIP3   OH277415   4.102   0.918  16.514 -0.2447  0.1420 -0.6971
18667TIP3    H177416   4.015   0.885  16.496 -0.1645  0.4109 -1.6138
18667TIP3    H277417   4.118   0.983  16.445 -0.0554  1.4424  0.5445
18668TIP3   OH277418   2.563   2.659   6.210 -0.5987 -0.0133 -0.6040
18668TIP3    H177419   2.559   2.720   6.137 -0.3769  2.0930  1.0889
18668TIP3    H277420   2.653   2.665   6.242 -0.9659 -0.1117  0.4843
18669TIP3   OH277421   1.286   6.365   4.264  0.4628 -0.3863 -0.3603
18669TIP3    H177422   1.238   6.424   4.322  2.6819  0.2743  0.8624
18669TIP3    H277423   1.223   6.297   4.241 -1.7334  1.6939 -0.6680
18670TIP3   OH277424   6.064   3.524   4.044 -0.0560  0.4700  0.6530
18670TIP3    H177425   5.982   3.572   4.052  0.1606  1.0830 -0.6596
18670TIP3    H277426   6.048   3.441   4.088 -1.2651  0.7213  0.6989
18671TIP3   OH277427   0.597   5.689  13.399 -0.4635  0.5540 -0.1738
18671TIP3    H177428   0.638   5.620  13.451  1.3463  1.6000 -0.2098
18671TIP3    H277429   0.536   5.642  13.342 -0.2098 -0.8896  0.7182
18672TIP3   OH277430   1.993   3.009   1.811 -0.1686  0.0069  0.2241
18672TIP3    H177431   1.972   2.918   1.829  1.3629 -0.1450  1.3191
18672TIP3    H277432   2.051   3.036   1.883 -0.4699  1.7845 -0.1652
18673TIP3   OH277433   5.734   6.251   1.120  0.0609  0.3900  0.0003
18673TIP3    H177434   5.699   6.220   1.037 -0.4499 -0.5938  0.5745
18673TIP3    H277435   5.791   6.181   1.151  1.0158  1.1578  0.0243
18674TIP3   OH277436   1.648   1.382   1.955  0.3051 -0.0615 -0.1179
18674TIP3    H177437   1.718   1.359   2.016 -0.2351 -0.6986  0.2799
18674TIP3    H277438   1.610   1.462   1.991  0.9995  0.4239 -0.4764
18675TIP3   OH277439   1.264   2.405  10.911 -0.2519  0.5678 -0.1236
18675TIP3    H177440   1.221   2.362  10.837  1.5507 -1.9379  0.2324
18675TIP3    H277441   1.205   2.393  10.985  0.0979 -1.0312 -0.1011
18676TIP3   OH277442   6.037   2.842   4.941  0.2900 -0.1850 -0.4304
18676TIP3    H177443   6.048   2.752   4.971 -0.4721 -0.7337 -1.7178
18676TIP3    H277444   6.113   2.889   4.974  1.5698 -1.6997 -1.1674
18677TIP3   OH277445   6.525   4.709  12.163  0.5269  0.5750  0.6013
18677TIP3    H177446   6.454   4.742  12.219 -0.4117  0.2593 -0.3695
18677TIP3    H277447   6.523   4.767  12.086  0.7775  0.0472  0.1954
18678TIP3   OH277448   5.809   6.094   5.220 -0.3087  0.1360 -0.5806
18678TIP3    H177449   5.861   6.131   5.149 -0.8434  0.3672 -0.8523
18678TIP3    H277450   5.731   6.058   5.177 -0.2304 -0.4809 -0.2150
18679TIP3   OH277451   2.525   2.347   4.610 -0.2724  0.1895 -0.3827
18679TIP3    H177452   2.525   2.412   4.681 -1.4360 -1.1467  0.8728
18679TIP3    H277453   2.447   2.368   4.559 -0.7161 -0.2880  0.0942
18680TIP3   OH277454   4.320   3.586   2.529  0.0131 -0.0174 -0.2053
18680TIP3    H177455   4.415   3.596   2.529 -0.2924  3.6380  0.8639
18680TIP3    H277456   4.291   3.631   2.449 -0.9215  0.3743  0.3468
18681TIP3   OH277457   0.680   6.132  15.598 -0.7545  0.4601  0.1256
18681TIP3    H177458   0.740   6.122  15.523  0.7673 -1.7023  1.5650
18681TIP3    H277459   0.732   6.178  15.664 -0.1104 -2.7145  1.9206
18682TIP3   OH277460   6.740   5.519  12.879  0.6906 -0.7087  0.2831
18682TIP3    H177461   6.742   5.509  12.974 -0.2040  0.9309  0.4848
18682TIP3    H277462   6.647   5.520  12.856  0.8937 -3.5865 -0.9112
18683TIP3   OH277463   4.733   1.250   4.015  0.7535  0.1407 -0.0496
18683TIP3    H177464   4.812   1.291   4.051 -0.3381  2.3306 -0.1144
18683TIP3    H277465   4.691   1.210   4.091  1.2094  0.1370  0.2061
18684TIP3   OH277466   1.242   3.319   3.159 -0.2277  0.2953 -0.2460
18684TIP3    H177467   1.252   3.224   3.162  1.1124  0.4682  1.1934
18684TIP3    H277468   1.200   3.336   3.074  1.3916 -1.4083 -1.4377
18685TIP3   OH277469   1.467   3.078   3.690 -0.2293  0.4057 -0.0212
18685TIP3    H177470   1.560   3.073   3.714 -0.4387  0.1278  0.7507
18685TIP3    H277471   1.424   3.016   3.749 -1.0771  1.4489  0.4746
18686TIP3   OH277472   3.589   6.555   5.330  0.2064  0.5304  0.4984
18686TIP3    H177473   3.540   6.636   5.340 -0.2330  0.2457  0.6538
18686TIP3    H277474   3.564   6.501   5.405 -0.1297 -0.0687 -0.0328
18687TIP3   OH277475   2.806   0.454   4.922  0.0740  0.4265 -0.2401
18687TIP3    H177476   2.737   0.436   4.986 -0.8038  0.4501 -1.1601
18687TIP3    H277477   2.861   0.520   4.964 -1.7731  2.1136 -0.3770
18688TIP3   OH277478   3.123   3.890   4.020 -0.2747 -0.2410  0.5744
18688TIP3    H177479   3.130   3.874   3.926  0.1620  0.5932  0.4614
18688TIP3    H277480   3.058   3.960   4.028 -1.2566 -1.1915  0.9802
18689TIP3   OH277481   2.829   3.975  13.376  0.7479 -0.5957 -0.4893
18689TIP3    H177482   2.798   4.041  13.315 -0.9433 -1.4290 -0.5611
18689TIP3    H277483   2.812   4.012  13.462 -1.5049 -1.4974 -0.5199
18690TIP3   OH277484   1.364   4.651   3.396 -0.1654 -0.0479 -0.8846
18690TIP3    H177485   1.351   4.678   3.487 -1.1885 -1.7473 -0.4962
18690TIP3    H277486   1.377   4.732   3.348  0.5912  0.8670  0.8134
18691TIP3   OH277487   3.269   0.530  13.039  0.1440  0.0298  0.1168
18691TIP3    H177488   3.355   0.558  13.010 -0.2088 -0.2860 -1.2965
18691TIP3    H277489   3.252   0.449  12.990 -0.3182 -0.7441  1.5065
18692TIP3   OH277490   6.425   3.006  17.112  0.8235 -0.0019 -0.3134
18692TIP3    H177491   6.342   2.988  17.068  0.1269  1.4825  0.3523
18692TIP3    H277492   6.487   3.023  17.040  0.8667 -2.2691 -0.8511
18693TIP3   OH277493   1.556   1.346  17.228 -0.1589 -0.4708  0.3115
18693TIP3    H177494   1.557   1.418  17.291  1.3988 -0.9577  0.8724
18693TIP3    H277495   1.505   1.277  17.272 -0.7253 -0.1072  0.2246
18694TIP3   OH277496   6.408   1.913   3.508  0.1098 -0.1457 -0.2305
18694TIP3    H177497   6.385   1.959   3.426  0.7447 -0.0713 -0.3671
18694TIP3    H277498   6.404   1.981   3.575  0.9471  0.0965 -0.4167
18695TIP3   OH277499   5.837   5.806  11.229  0.0528  0.0970 -0.2946
18695TIP3    H177500   5.824   5.840  11.317 -0.4079  0.6455 -0.5730
18695TIP3    H277501   5.896   5.869  11.187  0.3698 -0.2269 -0.3483
18696TIP3   OH277502   6.201   6.178  14.744  0.0067  0.2258 -0.1362
18696TIP3    H177503   6.145   6.101  14.738  0.7822 -0.2294 -1.6354
18696TIP3    H277504   6.285   6.151  14.707  0.5772  1.5151  0.1781
18697TIP3   OH277505   1.880   6.688   1.355 -0.3632  0.0615 -0.2453
18697TIP3    H177506   1.946   6.665   1.420 -1.5369 -0.0866  0.9085
18697TIP3    H277507   1.913   6.769   1.316  1.0179 -0.5749 -0.4364
18698TIP3   OH277508   2.667   2.282  14.716 -0.4458  0.8202 -0.0873
18698TIP3    H177509   2.613   2.298  14.638 -0.8595  0.2507  0.0768
18698TIP3    H277510   2.605   2.286  14.789 -0.6352 -1.8456 -0.0678
18699TIP3   OH277511   5.732   5.195  11.456 -0.7305  0.0094  0.7623
18699TIP3    H177512   5.692   5.140  11.389  0.4808  0.0239  0.0282
18699TIP3    H277513   5.814   5.224  11.418 -0.0602  0.0680  2.2242
18700TIP3   OH277514   2.357   4.838  13.968 -0.8127 -0.0422  0.0335
18700TIP3    H177515   2.284   4.900  13.958 -1.1267 -0.5840 -1.0518
18700TIP3    H277516   2.395   4.831  13.881  0.0749 -0.3479  0.4378
18701TIP3   OH277517   6.692   2.661   4.202  0.5614 -0.3681 -0.2091
18701TIP3    H177518   6.785   2.681   4.197  0.7639 -0.8208  1.5963
18701TIP3    H277519   6.679   2.623   4.288 -1.4016  0.2498 -0.1871
18702TIP3   OH277520   1.337   0.877   1.313 -0.4430  0.3774  0.0607
18702TIP3    H177521   1.400   0.885   1.241  0.0937  2.7373  0.7237
18702TIP3    H277522   1.375   0.812   1.372  0.6083  0.6350 -0.3226
18703TIP3   OH277523   5.512   4.213   5.120  0.9079  0.0354  0.0406
18703TIP3    H177524   5.474   4.281   5.176  2.2124 -0.4473  1.5554
18703TIP3    H277525   5.550   4.150   5.181 -1.0850 -2.5824 -1.2854
18704TIP3   OH277526   5.241   0.311  11.084  0.3912 -0.1360 -0.3523
18704TIP3    H177527   5.150   0.292  11.061  0.1000 -0.1123  0.7837
18704TIP3    H277528   5.275   0.360  11.009 -1.0621  1.4769  0.0107
18705TIP3   OH277529   0.491   6.660   5.366 -0.1906 -0.2984 -0.6046
18705TIP3    H177530   0.439   6.724   5.317 -0.4481 -0.3183 -0.3564
18705TIP3    H277531   0.452   6.659   5.453 -0.9759 -1.6875 -0.9505
18706TIP3   OH277532   0.892   1.406   6.218 -0.2289  0.3648 -0.0127
18706TIP3    H177533   0.975   1.418   6.174  2.0639  2.1965  4.4544
18706TIP3    H277534   0.833   1.470   6.178  0.7027 -0.4221 -2.6920
18707TIP3   OH277535   3.688   0.986   0.715  0.4771 -0.1838  0.0363
18707TIP3    H177536   3.686   0.900   0.673  0.3005  0.0245 -0.3892
18707TIP3    H277537   3.737   0.972   0.796 -0.1849 -0.8470  0.3355
18708TIP3   OH277538   6.161   2.159   3.680  0.9659 -0.5565  0.4757
18708TIP3    H177539   6.154   2.213   3.758  2.5182 -0.9445  0.8975
18708TIP3    H277540   6.235   2.196   3.631  0.3256 -0.6204 -0.5618
18709TIP3   OH277541   3.943   3.122  13.648 -0.2841  0.3890 -0.0306
18709TIP3    H177542   3.868   3.180  13.643 -0.6059 -0.0558 -0.3579
18709TIP3    H277543   4.016   3.174  13.616 -0.7826  0.2539 -1.4032
18710TIP3   OH277544   3.637   2.095  12.059 -0.2368 -0.0057  0.1971
18710TIP3    H177545   3.724   2.111  12.023 -0.4679 -0.3896 -0.5549
18710TIP3    H277546   3.637   2.138  12.144  0.4438  0.6190 -0.1178
18711TIP3   OH277547   6.364   5.677  11.819  0.4222  0.5806  0.3426
18711TIP3    H177548   6.395   5.651  11.906 -0.7436 -0.9154  0.3302
18711TIP3    H277549   6.310   5.604  11.790 -1.4196  2.2145 -0.4986
18712TIP3   OH277550   3.706   6.585  14.947  0.2930 -0.1361 -0.2112
18712TIP3    H177551   3.659   6.653  14.899  0.1507  0.0183  0.1482
18712TIP3    H277552   3.660   6.578  15.030  1.4056  0.5994  0.4742
18713TIP3   OH277553   0.165   5.918   2.376 -0.2252 -0.5545  0.2950
18713TIP3    H177554   0.094   5.880   2.428 -1.0905  0.4819 -0.1153
18713TIP3    H277555   0.229   5.947   2.441 -0.8671 -0.1287  0.7433
18714TIP3   OH277556   0.193   0.135  15.706  0.1520 -0.7596 -1.0853
18714TIP3    H177557   0.158   0.060  15.753 -0.7789  0.9295  1.0258
18714TIP3    H277558   0.128   0.154  15.638  0.6151 -2.1072 -1.9186
18715TIP3   OH277559   5.880   4.914  15.539 -0.0841 -0.1794  0.0748
18715TIP3    H177560   5.790   4.946  15.543  0.2490  0.8938 -0.6770
18715TIP3    H277561   5.931   4.981  15.585  0.1513 -1.5230  1.8173
18716TIP3   OH277562   2.598   0.639  14.880  0.4304  0.5043  0.0932
18716TIP3    H177563   2.681   0.686  14.889  1.3171 -1.3998  2.2576
18716TIP3    H277564   2.533   0.697  14.919  1.2107  0.7029  1.1083
18717TIP3   OH277565   3.773   1.712   2.627  0.1021 -0.0928  0.2234
18717TIP3    H177566   3.787   1.792   2.678 -1.7686  0.0541  0.5625
18717TIP3    H277567   3.800   1.735   2.538  0.2323  0.7077  0.4676
18718TIP3   OH277568   5.120   4.444   1.662 -0.4273  0.3562 -0.3818
18718TIP3    H177569   5.034   4.459   1.624 -0.9030  1.8011  1.2169
18718TIP3    H277570   5.147   4.359   1.628 -1.7219  0.6795 -2.2804
18719TIP3   OH277571   2.140   4.028  14.424 -0.5065 -0.3095  0.2256
18719TIP3    H177572   2.126   4.018  14.518 -1.0655 -1.0037  0.0724
18719TIP3    H277573   2.164   3.940  14.394 -3.6581 -0.8870 -0.8337
18720TIP3   OH277574   3.310   2.998   0.288  0.2272 -0.3086 -0.2730
18720TIP3    H177575   3.301   2.903   0.280  1.7692 -0.3792 -1.4485
18720TIP3    H277576   3.347   3.012   0.375 -0.6371 -0.7360  0.1653
18721TIP3   OH277577   4.028   0.853   5.788 -0.0240 -0.1708  0.4363
18721TIP3    H177578   4.032   0.843   5.883  0.3340 -0.8445  0.3544
18721TIP3    H277579   4.073   0.776   5.754  1.9243  1.2495 -0.2543
18722TIP3   OH277580   2.858   1.945  15.391  0.1560 -0.2331  0.7255
18722TIP3    H177581   2.852   1.850  15.389 -0.8027 -0.1483 -3.3115
18722TIP3    H277582   2.950   1.963  15.411  0.6939 -2.0009 -0.1335
18723TIP3   OH277583   1.386   6.167  16.116 -0.1399  0.4231 -0.1007
18723TIP3    H177584   1.358   6.189  16.027 -1.1595 -0.9652 -0.1492
18723TIP3    H277585   1.398   6.251  16.159 -0.2761  1.1004 -1.3595
18724TIP3   OH277586   2.914   4.482  14.101 -0.2459  0.1605  0.3826
18724TIP3    H177587   2.886   4.395  14.127 -0.9743  0.6986  1.4413
18724TIP3    H277588   2.833   4.533  14.096  0.3455  1.2445  1.5861
18725TIP3   OH277589   4.498   5.161   3.518  0.6638  0.2557  0.4288
18725TIP3    H177590   4.439   5.176   3.444 -0.2192 -1.4584  0.7621
18725TIP3    H277591   4.586   5.172   3.482  0.1773  2.5487 -0.1458
18726TIP3   OH277592   2.414   1.146   2.815  0.6638  0.1699 -0.0197
18726TIP3    H177593   2.325   1.118   2.836 -0.2957  2.1260 -1.4137
18726TIP3    H277594   2.428   1.115   2.725  0.9754  0.8502 -0.2059
18727TIP3   OH277595   1.452   0.234   5.119 -0.1872 -0.0677 -0.2610
18727TIP3    H177596   1.481   0.324   5.102 -0.4055  0.0756  0.1234
18727TIP3    H277597   1.527   0.192   5.161 -0.1896  0.0212 -0.1674
18728TIP3   OH277598   3.990   6.361  14.170 -0.0501 -0.0245 -0.2188
18728TIP3    H177599   3.900   6.344  14.141 -0.3050 -0.1707  0.6379
18728TIP3    H277600   4.007   6.451  14.142  0.3045 -0.6985 -2.2808
18729TIP3   OH277601   1.683   5.559   1.111 -0.4735 -0.3640  0.6417
18729TIP3    H177602   1.727   5.559   1.026  1.5644 -1.6726  1.6752
18729TIP3    H277603   1.715   5.638   1.155  0.6837 -1.1672  1.2805
18730TIP3   OH277604   5.646   6.784   3.402  0.5126  0.4600  0.5144
18730TIP3    H177605   5.717   6.786   3.339 -0.3941  1.3883 -0.4954
18730TIP3    H277606   5.625   6.876   3.418 -2.0404  0.2139 -1.0364
18731TIP3   OH277607   4.685   3.126   3.520 -0.3304 -0.5685 -0.0999
18731TIP3    H177608   4.697   3.191   3.589  0.9502 -0.8404 -0.0435
18731TIP3    H277609   4.727   3.165   3.443 -0.0870 -1.0684 -0.2256
18732TIP3   OH277610   4.648   4.750  13.640 -0.4098 -0.1448  0.3271
18732TIP3    H177611   4.669   4.656  13.639 -0.0042 -0.0409 -0.9692
18732TIP3    H277612   4.694   4.783  13.717  1.0353 -0.6580 -0.2815
18733TIP3   OH277613   2.821   0.373   4.354 -0.1588  0.0723  0.7194
18733TIP3    H177614   2.889   0.387   4.420  0.3634  2.0495 -0.2043
18733TIP3    H277615   2.785   0.460   4.337  1.5107  0.0667 -3.4852
18734TIP3   OH277616   2.608   1.539   0.215 -0.2775  0.5678  0.4305
18734TIP3    H177617   2.517   1.560   0.235  0.0149  3.1947 -0.7730
18734TIP3    H277618   2.650   1.530   0.300 -1.3893  0.6196  0.9913
18735TIP3   OH277619   5.387   0.790   5.238 -0.4931  0.4146 -1.1466
18735TIP3    H177620   5.401   0.829   5.324 -0.2158 -0.8281 -0.6113
18735TIP3    H277621   5.474   0.763   5.209 -0.8541 -1.1575 -0.8236
18736TIP3   OH277622   0.644   2.456   0.738  0.2386 -0.5431  0.0999
18736TIP3    H177623   0.603   2.509   0.806 -0.5446  0.7038 -1.3005
18736TIP3    H277624   0.609   2.492   0.656 -0.6249 -3.5015 -0.8786
18737TIP3   OH277625   5.559   3.498  15.254  0.1256 -0.0299  0.0231
18737TIP3    H177626   5.466   3.523  15.255  0.2658  0.5472  1.9732
18737TIP3    H277627   5.568   3.440  15.330  1.0990 -1.1132 -0.9040
18738TIP3   OH277628   0.724   5.923   3.958  0.5360 -0.0956  0.1316
18738TIP3    H177629   0.818   5.906   3.965  0.5113 -0.5727 -0.6792
18738TIP3    H277630   0.717   5.992   3.892  0.3281  0.0855  0.3415
18739TIP3   OH277631   1.365   4.159   4.667  0.2876 -0.9739 -0.4190
18739TIP3    H177632   1.362   4.108   4.748 -0.3115 -1.3974 -0.7099
18739TIP3    H277633   1.353   4.250   4.695 -2.7056 -1.3780 -0.3112
18740TIP3   OH277634   2.149   5.049  14.198  0.1081 -0.1870 -0.0111
18740TIP3    H177635   2.085   5.084  14.136  0.0438 -0.4979 -0.1192
18740TIP3    H277636   2.128   4.956  14.206  1.0056 -0.4559 -0.6185
18741TIP3   OH277637   5.694   4.774   0.232 -0.2859 -0.4497 -0.2835
18741TIP3    H177638   5.718   4.713   0.303 -2.0054  2.2877  2.7800
18741TIP3    H277639   5.603   4.753   0.212 -0.3558 -0.0039 -0.4249
18742TIP3   OH277640   0.965   3.692  13.288 -0.2288 -0.5994 -0.3752
18742TIP3    H177641   0.887   3.731  13.249 -1.1629 -1.6758  0.3791
18742TIP3    H277642   1.038   3.723  13.234 -0.9105  2.3875  0.3850
18743TIP3   OH277643   6.508   2.699   3.344  0.0634  0.3551  0.1285
18743TIP3    H177644   6.452   2.641   3.293 -1.3729  2.0720 -0.2902
18743TIP3    H277645   6.447   2.754   3.393  1.4100  1.1672  0.9209
18744TIP3   OH277646   0.207   0.060   2.543 -0.1677 -0.0835 -0.1325
18744TIP3    H177647   0.289   0.060   2.592 -1.5954  0.0413  2.3349
18744TIP3    H277648   0.186  -0.033   2.533 -0.8022 -0.0973  1.1618
18745TIP3   OH277649   2.955   4.343   1.615 -0.6935 -0.4226 -0.0027
18745TIP3    H177650   3.012   4.330   1.690 -2.5544  2.0191  1.9237
18745TIP3    H277651   2.948   4.438   1.606 -0.4761 -0.6611 -3.3310
18746TIP3   OH277652   1.686   6.352  14.007 -0.0467  0.1304  0.0498
18746TIP3    H177653   1.735   6.418  13.958  0.4265 -0.6309 -0.5104
18746TIP3    H277654   1.645   6.297  13.940  0.9646 -1.1858  0.4850
18747TIP3   OH277655   6.562   4.576   6.110  0.0934 -0.5476  0.6110
18747TIP3    H177656   6.481   4.530   6.132  0.0557 -0.5271  0.5156
18747TIP3    H277657   6.585   4.545   6.023  0.2489 -0.6367  0.6839
18748TIP3   OH277658   5.330   0.142  10.758  0.0052  0.4241 -0.2337
18748TIP3    H177659   5.312   0.231  10.789 -3.0775 -0.4111  0.5915
18748TIP3    H277660   5.321   0.147  10.662 -3.2649  0.4041  0.0356
18749TIP3   OH277661   3.322   5.167  12.266  0.1466 -0.5339 -0.5282
18749TIP3    H177662   3.414   5.171  12.290  0.1710 -1.3944 -0.4463
18749TIP3    H277663   3.319   5.192  12.174  0.2355  1.3075 -0.0567
18750TIP3   OH277664   2.682   1.435   2.099  0.4285 -1.0135  0.2751
18750TIP3    H177665   2.759   1.436   2.157 -0.1902  0.1380  1.0935
18750TIP3    H277666   2.646   1.347   2.108  0.5163 -0.9378  1.4149
18751TIP3   OH277667   6.466   0.969  16.725 -0.2397  0.1822  0.6951
18751TIP3    H177668   6.386   0.922  16.701 -0.2933  0.7147 -0.1913
18751TIP3    H277669   6.446   1.008  16.810 -1.4591  1.5329 -0.1835
18752TIP3   OH277670   6.588   1.571  16.295  0.4535 -0.0029 -0.0460
18752TIP3    H177671   6.616   1.492  16.342 -2.0535  0.3275  2.1205
18752TIP3    H277672   6.669   1.619  16.279  1.6601 -1.4730  1.4665
18753TIP3   OH277673   1.262   1.551  11.711  0.7668 -0.1546  0.3802
18753TIP3    H177674   1.261   1.623  11.648  1.4369  0.2815  0.8718
18753TIP3    H277675   1.237   1.591  11.794  2.9215 -0.1299  1.0358
18754TIP3   OH277676   5.660   1.367  11.986  0.1603  0.6507  0.0716
18754TIP3    H177677   5.711   1.304  11.935  0.5670  0.1489  1.1014
18754TIP3    H277678   5.679   1.347  12.077  0.5409  2.4808  0.4199
18755TIP3   OH277679   1.962   2.373   3.519  0.3959 -0.0069 -0.0550
18755TIP3    H177680   1.986   2.353   3.609 -0.0027 -0.0336  0.0452
18755TIP3    H277681   1.950   2.288   3.477 -0.6717  0.0116  0.2040
18756TIP3   OH277682   4.946   5.881  12.653 -0.1180  0.0998 -0.0036
18756TIP3    H177683   5.020   5.822  12.636  1.2440  0.7631  3.2210
18756TIP3    H277684   4.984   5.953  12.703 -2.0827  2.9334 -2.4357
18757TIP3   OH277685   2.197   1.913  11.686 -0.1331 -0.2743  0.1418
18757TIP3    H177686   2.214   2.006  11.698  0.8871 -0.3595 -0.5843
18757TIP3    H277687   2.179   1.880  11.774 -0.4921  0.5956  0.4013
18758TIP3   OH277688   0.995   3.274  15.579 -0.0953  0.0631  0.0389
18758TIP3    H177689   1.057   3.344  15.556  0.6363 -0.2703  0.9805
18758TIP3    H277690   1.050   3.202  15.610 -1.0275  0.3580  2.4740
18759TIP3   OH277691   1.220   2.930   2.322  0.0759  0.0718 -0.2004
18759TIP3    H177692   1.212   2.988   2.246  1.3619  1.5217  0.7301
18759TIP3    H277693   1.175   2.849   2.296  0.7904  0.4163 -2.6099
18760TIP3   OH277694   0.868   5.836  13.723  0.6155  0.1502 -0.2151
18760TIP3    H177695   0.908   5.751  13.740 -0.8019 -1.1681 -3.0898
18760TIP3    H277696   0.775   5.824  13.744  0.5592  1.2269  0.1709
18761TIP3   OH277697   3.414   3.154   3.486  0.1404  0.7870 -0.7878
18761TIP3    H177698   3.445   3.064   3.490  0.3445  0.8316 -1.3086
18761TIP3    H277699   3.319   3.147   3.479  0.1515  0.6155 -0.7512
18762TIP3   OH277700   1.883   1.839  17.169  0.1944  0.6919 -0.6061
18762TIP3    H177701   1.822   1.849  17.096 -0.1376  0.1606 -0.3983
18762TIP3    H277702   1.868   1.751  17.201  0.4302  0.8838  0.0340
18763TIP3   OH277703   1.377   3.629  16.761  0.1199 -0.0576 -0.1165
18763TIP3    H177704   1.346   3.553  16.711 -0.3610  0.4008 -0.5250
18763TIP3    H277705   1.298   3.683  16.773  0.5199  0.5251 -0.0987
18764TIP3   OH277706   1.076   0.984  15.413 -0.0260  0.2295  0.0988
18764TIP3    H177707   1.096   0.991  15.320  2.2169 -1.2592  0.4384
18764TIP3    H277708   1.101   1.068  15.449  1.1093  0.0661 -0.2975
18765TIP3   OH277709   6.252   0.980  13.277  0.5272 -0.0095 -0.1254
18765TIP3    H177710   6.292   0.905  13.232  0.4180 -0.0535 -0.1494
18765TIP3    H277711   6.298   0.985  13.361 -0.4706 -0.9931  0.4760
18766TIP3   OH277712   2.717   4.741  13.705 -0.0995  0.1423  0.3931
18766TIP3    H177713   2.783   4.674  13.686 -1.4412 -0.6574 -1.5865
18766TIP3    H277714   2.753   4.821  13.667  0.8248  0.2285  1.4418
18767TIP3   OH277715   3.819   6.133  11.954  0.0411 -0.2030  0.5767
18767TIP3    H177716   3.893   6.082  11.987 -0.4127  0.3851  2.5754
18767TIP3    H277717   3.816   6.210  12.011 -0.5500  1.0506 -1.1064
18768TIP3   OH277718   3.184   4.337  12.785 -0.6934 -0.0952 -0.2658
18768TIP3    H177719   3.238   4.262  12.811  0.5304  0.1638 -2.0303
18768TIP3    H277720   3.244   4.395  12.739 -1.7116  1.8281  0.7814
18769TIP3   OH277721   3.756   4.725   0.625  0.2026  0.5319 -0.2614
18769TIP3    H177722   3.761   4.773   0.543  1.7993  1.6472  0.4513
18769TIP3    H277723   3.800   4.642   0.608 -1.7883 -0.3424 -1.2517
18770TIP3   OH277724   5.522   1.973   4.058 -0.2515  0.4113  0.5612
18770TIP3    H177725   5.564   2.056   4.082  0.5537  0.4298 -0.8337
18770TIP3    H277726   5.584   1.932   3.996 -1.0151 -0.8505  0.6117
18771TIP3   OH277727   5.857   2.137  14.842  0.2173  0.3543  0.2818
18771TIP3    H177728   5.886   2.148  14.751  0.9928 -0.6553  0.3978
18771TIP3    H277729   5.899   2.209  14.889  0.9345  0.0780  0.0794
18772TIP3   OH277730   6.497   1.224   6.305 -0.1744  0.0935 -0.1334
18772TIP3    H177731   6.447   1.277   6.366 -0.7831  0.0769 -0.6215
18772TIP3    H277732   6.565   1.184   6.360  0.8387  2.0475  0.0756
18773TIP3   OH277733   4.045   3.629   6.365  0.3741  0.1004 -0.2663
18773TIP3    H177734   4.135   3.598   6.379  0.8560  1.4852 -0.2922
18773TIP3    H277735   3.993   3.579   6.428  1.3374  0.1349  0.5631
18774TIP3   OH277736   5.946   4.211  11.930 -0.1311  0.5048  0.6045
18774TIP3    H177737   5.993   4.170  12.002  0.4649  0.0831 -0.0199
18774TIP3    H277738   6.010   4.271  11.891  0.1404 -0.6278 -0.7171
18775TIP3   OH277739   5.939   4.054  11.456  0.4546 -0.4603 -0.3038
18775TIP3    H177740   5.963   4.145  11.438 -0.9425 -0.0910 -0.3261
18775TIP3    H277741   6.013   4.019  11.504  0.4108  1.0896  0.9368
18776TIP3   OH277742   0.066   0.738  14.507  0.2869 -0.2414  0.4933
18776TIP3    H177743   0.071   0.828  14.539 -1.5953  0.2649 -0.5422
18776TIP3    H277744   0.156   0.715  14.486  0.8296  1.3056  1.0405
18777TIP3   OH277745   2.463   4.859  12.156  0.1111  0.3398  0.1831
18777TIP3    H177746   2.549   4.854  12.198 -0.1582 -0.5796  0.6322
18777TIP3    H277747   2.481   4.843  12.063  0.4220  0.1409  0.2780
18778TIP3   OH277748   0.725   6.365  12.421  0.3430  0.4151 -0.2508
18778TIP3    H177749   0.691   6.294  12.367  1.8007 -0.8463  0.4636
18778TIP3    H277750   0.673   6.442  12.396  0.6544 -0.2521 -3.0896
18779TIP3   OH277751   5.695   3.880   2.388 -0.5537  0.3571 -0.5347
18779TIP3    H177752   5.740   3.845   2.465  1.4725  1.3572 -1.2429
18779TIP3    H277753   5.615   3.921   2.423  0.2340  0.6057  0.9965
18780TIP3   OH277754   3.519   3.363  13.482 -0.2175 -0.1008  0.4172
18780TIP3    H177755   3.575   3.301  13.529  0.8027  0.3707 -0.1660
18780TIP3    H277756   3.512   3.438  13.541 -0.5317 -0.2970  0.6361
18781TIP3   OH277757   3.116   1.657  15.570  0.1013  0.0818 -0.4589
18781TIP3    H177758   3.165   1.592  15.518  0.8455  0.3234 -0.0684
18781TIP3    H277759   3.037   1.673  15.519 -0.9323 -2.4402  0.2920
18782TIP3   OH277760   5.554   2.981  14.455  0.5227  0.2490  0.3433
18782TIP3    H177761   5.536   2.960  14.547  1.0369  3.0582  1.1367
18782TIP3    H277762   5.634   2.933  14.434  0.4246 -0.3791  1.3530
18783TIP3   OH277763   3.078   5.260   6.180 -0.3887 -0.7766  0.6520
18783TIP3    H177764   3.043   5.342   6.215 -0.5752 -1.0339  1.0695
18783TIP3    H277765   3.171   5.278   6.167 -0.2542 -0.7838  1.5924
18784TIP3   OH277766   1.693   2.998   2.642  0.2060 -0.1357  0.0241
18784TIP3    H177767   1.765   3.026   2.699  0.3098 -1.3178  0.4850
18784TIP3    H277768   1.632   2.954   2.700 -0.1312 -0.5406 -0.6272
18785TIP3   OH277769   0.379   1.232  14.019  0.0320 -0.1982  0.0771
18785TIP3    H177770   0.308   1.229  13.956 -1.9905 -1.5639  2.3272
18785TIP3    H277771   0.401   1.140  14.034  1.0745  0.1470  0.7036
18786TIP3   OH277772   5.415   6.556   0.542  0.0723  0.1557  0.8601
18786TIP3    H177773   5.436   6.478   0.594  0.4606  1.4373  2.6553
18786TIP3    H277774   5.426   6.629   0.603 -0.3120  1.6186 -0.8020
18787TIP3   OH277775   4.062   2.068   5.173 -0.6181 -0.2337  0.2923
18787TIP3    H177776   3.980   2.070   5.223 -0.2049  0.8133  0.9509
18787TIP3    H277777   4.097   1.980   5.187 -0.3106  0.1616  2.2081
18788TIP3   OH277778   2.373   6.107  11.290  0.1356  0.5353 -0.6704
18788TIP3    H177779   2.437   6.149  11.232 -1.6262  3.8384 -0.3208
18788TIP3    H277780   2.291   6.109  11.240 -0.2729 -1.3415 -0.1066
18789TIP3   OH277781   0.719   3.393  15.636 -0.3300 -0.0088 -0.3696
18789TIP3    H177782   0.778   3.318  15.631 -1.8337 -1.3581  1.4749
18789TIP3    H277783   0.760   3.452  15.698 -0.2797 -0.3734 -0.0510
18790TIP3   OH277784   5.199   2.646  12.323  0.5139 -0.2270  0.3102
18790TIP3    H177785   5.207   2.552  12.340 -0.9195 -0.5455 -0.6766
18790TIP3    H277786   5.104   2.661  12.316  0.6926  1.4304  1.2172
18791TIP3   OH277787   3.297   4.371  13.200 -0.1387  0.0274 -0.5771
18791TIP3    H177788   3.213   4.361  13.155 -0.4053 -1.5709  0.2542
18791TIP3    H277789   3.273   4.381  13.293  0.5621  0.1623 -0.4107
18792TIP3   OH277790   4.960   2.234  11.238  0.0934  0.5632 -0.3132
18792TIP3    H177791   5.015   2.307  11.210 -0.1164  1.5647  1.7597
18792TIP3    H277792   4.971   2.232  11.333 -1.9552 -0.4371 -0.0783
18793TIP3   OH277793   4.230   2.175   0.755  0.6686  0.4747  0.0347
18793TIP3    H177794   4.320   2.193   0.727  0.5945  0.1255 -0.4214
18793TIP3    H277795   4.177   2.183   0.676  0.7940 -2.9602 -0.4509
18794TIP3   OH277796   0.951   4.956   5.727  0.0689  0.2015  0.5002
18794TIP3    H177797   0.982   4.867   5.711 -1.5649 -0.2357 -0.3449
18794TIP3    H277798   1.031   5.010   5.729  1.1802 -1.4325  2.2266
18795TIP3   OH277799   4.177   0.950  15.945 -0.3866 -0.6014 -0.1783
18795TIP3    H177800   4.097   0.998  15.923 -0.0950  0.1765  0.4491
18795TIP3    H277801   4.218   1.002  16.014  0.2458 -1.4333  0.0783
18796TIP3   OH277802   5.074   4.409   4.532  0.3399  0.2174 -0.2593
18796TIP3    H177803   5.117   4.357   4.599 -1.8643 -0.3359  0.7703
18796TIP3    H277804   5.127   4.396   4.454  1.0317 -1.8344  0.5224
18797TIP3   OH277805   1.699   1.632   5.949 -0.0351  0.1541  0.1094
18797TIP3    H177806   1.676   1.647   6.041  0.3480 -2.5223  0.6965
18797TIP3    H277807   1.793   1.644   5.946 -0.3395  2.6305 -0.4789
18798TIP3   OH277808   0.186   6.171  17.112  0.4800  0.2756 -0.0982
18798TIP3    H177809   0.195   6.090  17.160  1.9327  0.9963  0.8846
18798TIP3    H277810   0.157   6.144  17.024 -0.9186 -1.1231  0.7668
18799TIP3   OH277811   1.323   3.134   4.092  0.3042  0.0880 -0.2755
18799TIP3    H177812   1.264   3.063   4.067 -0.6466 -0.0031  2.1270
18799TIP3    H277813   1.410   3.102   4.068 -0.1235 -1.8499  0.6260
18800TIP3   OH277814   0.788   6.242  17.058  0.3568  0.5271  0.2415
18800TIP3    H177815   0.812   6.335  17.052  2.1292  0.0979  0.2236
18800TIP3    H277816   0.790   6.211  16.968  1.7339  0.0287  0.4273
18801TIP3   OH277817   2.119   6.133  11.200  0.5708 -0.2860 -0.2110
18801TIP3    H177818   2.092   6.214  11.157  0.7195 -0.8634 -1.4304
18801TIP3    H277819   2.043   6.107  11.253  0.8765  1.1420  0.9326
18802TIP3   OH277820   1.262   0.489   5.197  0.6159  0.1463 -0.4413
18802TIP3    H177821   1.288   0.561   5.254  2.2516 -1.4226  0.8553
18802TIP3    H277822   1.285   0.519   5.109  2.4679  0.7155  0.2062
18803TIP3   OH277823   0.810   6.045  13.344 -0.2556 -0.1155 -0.2234
18803TIP3    H177824   0.864   6.121  13.366 -0.9788  0.7446 -1.3537
18803TIP3    H277825   0.760   6.027  13.424 -2.6104  2.7588 -0.9588
18804TIP3   OH277826   6.727   0.728  13.866 -0.2315 -0.7383 -0.1648
18804TIP3    H177827   6.735   0.778  13.784  2.5848 -1.8555 -0.5897
18804TIP3    H277828   6.711   0.638  13.838  0.4736 -1.0782  0.5083
18805TIP3   OH277829   2.488   3.838  12.912 -0.5131 -0.2329  0.2324
18805TIP3    H177830   2.435   3.848  12.991  0.0187 -2.5754  0.9236
18805TIP3    H277831   2.569   3.798  12.942  0.7536  1.2548 -1.1506
18806TIP3   OH277832   6.586   0.691   0.086  0.3429  0.0554  0.1853
18806TIP3    H177833   6.539   0.748   0.026  0.6804  1.2674  1.0483
18806TIP3    H277834   6.670   0.674   0.043  1.5274  2.7826  1.2609
18807TIP3   OH277835   1.415   5.297   0.213  0.3111  0.0250 -0.4620
18807TIP3    H177836   1.509   5.301   0.231 -0.1381  1.0190  1.8616
18807TIP3    H277837   1.397   5.204   0.198  1.6363 -0.1893 -0.7684
18808TIP3   OH277838   4.973   1.800  15.511  0.1588  0.3066  0.0959
18808TIP3    H177839   4.929   1.731  15.461 -3.3601  1.7863  1.0073
18808TIP3    H277840   4.905   1.866  15.526  1.9611  1.4161  3.9777
18809TIP3   OH277841   1.917   0.138  16.661  0.3000 -0.1651  0.6279
18809TIP3    H177842   1.831   0.118  16.624 -0.2443  1.5848  0.9055
18809TIP3    H277843   1.916   0.099  16.748  0.6763 -2.1770 -0.2450
18810TIP3   OH277844   6.649   0.795   4.410  0.9727 -0.0576  0.3503
18810TIP3    H177845   6.633   0.889   4.418  1.0411 -0.0060 -0.0683
18810TIP3    H277846   6.593   0.755   4.476  1.1209  0.2937  0.6857
18811TIP3   OH277847   5.644   2.160  15.759  0.1017  0.0797 -0.4462
18811TIP3    H177848   5.673   2.084  15.811 -1.6047  0.3958  0.9934
18811TIP3    H277849   5.725   2.196  15.724  1.1007 -1.4186  0.2318
18812TIP3   OH277850   2.431   1.693   2.229  0.1446  0.6965 -0.0196
18812TIP3    H177851   2.472   1.701   2.143  1.2349 -0.8518  0.3555
18812TIP3    H277852   2.410   1.600   2.237  0.0183  0.8411  1.3805
18813TIP3   OH277853   0.545   0.689   3.433  0.2964 -0.3817  0.5232
18813TIP3    H177854   0.617   0.730   3.479 -0.6727  0.5741  1.2129
18813TIP3    H277855   0.467   0.737   3.461 -0.3689  0.0009 -1.8308
18814TIP3   OH277856   0.535   4.220   5.571 -0.1007  0.4387  0.5266
18814TIP3    H177857   0.587   4.144   5.600  0.3728  0.0025 -1.4062
18814TIP3    H277858   0.457   4.181   5.531 -0.2036  1.0064  0.1833
18815TIP3   OH277859   2.642   3.555  12.942  0.4848 -0.8431  0.0328
18815TIP3    H177860   2.708   3.621  12.963 -1.2297  0.7855  0.4203
18815TIP3    H277861   2.666   3.524  12.854  1.3820  0.2033 -0.1031
18816TIP3   OH277862   2.574   4.879  14.163 -0.3873  0.0421 -0.3891
18816TIP3    H177863   2.500   4.878  14.103 -0.7803  1.9961  0.0345
18816TIP3    H277864   2.534   4.883  14.250  0.1988 -1.3974 -0.0358
18817TIP3   OH277865   0.825   5.979  12.640 -0.3460  0.2974 -0.1904
18817TIP3    H177866   0.790   5.972  12.728  0.7172  1.3220  0.3311
18817TIP3    H277867   0.770   6.045  12.597 -0.0625  0.7477  0.1262
18818TIP3   OH277868   4.769   4.674  15.787 -0.1915  0.0124 -0.0822
18818TIP3    H177869   4.766   4.721  15.704  0.2057 -1.1040 -0.7323
18818TIP3    H277870   4.855   4.631  15.788 -0.8837 -1.4120  0.0984
18819TIP3   OH277871   6.335   6.516   3.350 -0.4906 -0.7071 -0.3887
18819TIP3    H177872   6.353   6.590   3.408  0.9448  0.2500 -1.9896
18819TIP3    H277873   6.356   6.439   3.402 -1.3717  0.0401  1.0865
18820TIP3   OH277874   2.940   6.731   3.653  0.3723 -0.0755  0.3891
18820TIP3    H177875   2.878   6.762   3.587  0.7469  1.2992  0.6745
18820TIP3    H277876   2.892   6.736   3.735  0.1739 -1.0162  0.3339
18821TIP3   OH277877   4.778   5.026  16.361  0.2872 -0.4820 -0.4521
18821TIP3    H177878   4.696   5.070  16.342  2.0197  2.0064 -2.5183
18821TIP3    H277879   4.760   4.933  16.345 -1.2002  0.3945 -4.3830
18822TIP3   OH277880   1.942   0.905  13.720  0.4582  0.5705 -0.4029
18822TIP3    H177881   1.872   0.856  13.678  0.0544 -0.2500  1.1920
18822TIP3    H277882   1.901   0.986  13.749 -0.2595 -0.5518  1.8861
18823TIP3   OH277883   6.676   0.994  11.454  0.2111 -0.0106 -0.2681
18823TIP3    H177884   6.665   0.900  11.439  0.0272  0.3771 -2.8190
18823TIP3    H277885   6.611   1.035  11.396  0.0767  1.6875  1.0477
18824TIP3   OH277886   2.623   4.151  12.700  0.3365  0.8175  0.0270
18824TIP3    H177887   2.570   4.167  12.621  1.2364  0.6753 -0.6138
18824TIP3    H277888   2.698   4.209  12.690  0.7023  0.4290  0.5404
18825TIP3   OH277889   4.785   3.744   0.542 -1.1366 -0.3363  0.1225
18825TIP3    H177890   4.753   3.755   0.632 -2.5498  4.4287 -0.8585
18825TIP3    H277891   4.714   3.696   0.499 -1.1219 -1.3067  1.1304
18826TIP3   OH277892   5.714   6.581  16.664 -0.4092  0.3646 -0.6381
18826TIP3    H177893   5.810   6.579  16.658 -0.2374  0.8377  1.4770
18826TIP3    H277894   5.688   6.656  16.611  0.5265  1.0810 -0.1082
18827TIP3   OH277895   2.419   4.904   4.509  0.4096 -0.5443 -0.0437
18827TIP3    H177896   2.353   4.972   4.496  2.0299  1.1639  0.4724
18827TIP3    H277897   2.416   4.884   4.602 -0.8149 -2.0274 -0.3595
18828TIP3   OH277898   2.984   1.697  17.129  0.2327 -0.3598 -0.1783
18828TIP3    H177899   2.920   1.692  17.200 -0.0729 -1.3461 -0.5062
18828TIP3    H277900   2.933   1.724  17.053  0.5668  0.7272 -0.0233
18829TIP3   OH277901   5.944   5.905   4.274  0.0608 -0.0841  0.1194
18829TIP3    H177902   6.018   5.946   4.228 -0.8345  0.3866 -0.9277
18829TIP3    H277903   5.870   5.964   4.258 -0.9739 -1.5092 -0.4195
18830TIP3   OH277904   3.386   2.234  17.051 -0.3593 -0.4025 -0.4199
18830TIP3    H177905   3.455   2.196  17.106 -1.2660  0.5982  1.4594
18830TIP3    H277906   3.411   2.211  16.962  2.8534  0.5953  0.1370
18831TIP3   OH277907   5.372   4.664  13.827 -0.0407  0.1957 -0.2082
18831TIP3    H177908   5.450   4.706  13.863 -0.1762  3.1652 -3.2144
18831TIP3    H277909   5.405   4.601  13.764 -0.0278  0.2064 -0.2131
18832TIP3   OH277910   0.964   3.720  16.398 -0.3769 -0.4956  0.2908
18832TIP3    H177911   0.913   3.795  16.366 -2.2049 -2.6643 -2.1250
18832TIP3    H277912   0.994   3.677  16.318 -0.0471 -2.7805  1.6292
18833TIP3   OH277913   4.045   2.893   2.646  0.3458 -0.3748  0.4487
18833TIP3    H177914   4.046   2.988   2.630  0.7029 -0.5298 -0.4756
18833TIP3    H277915   4.121   2.878   2.703 -2.8717  0.6590  5.2813
18834TIP3   OH277916   2.094   5.152   4.947 -0.5622  0.6014 -0.2661
18834TIP3    H177917   2.168   5.210   4.962 -1.0393  1.5385 -1.4713
18834TIP3    H277918   2.133   5.074   4.907  0.0719  0.0676  1.3304
18835TIP3   OH277919   1.202   1.868   2.575  0.1196  0.0543 -0.3266
18835TIP3    H177920   1.168   1.843   2.489  2.5209 -0.1761 -1.2269
18835TIP3    H277921   1.143   1.824   2.637 -0.1866 -1.7534 -1.8595
18836TIP3   OH277922   3.554   1.339  13.637  0.2446 -0.2237 -0.1425
18836TIP3    H177923   3.501   1.351  13.716 -0.3162  0.9823 -0.6768
18836TIP3    H277924   3.604   1.259  13.652 -2.0954 -1.6614  0.1912
18837TIP3   OH277925   2.482   3.282  13.669 -0.1387 -0.3801 -0.5284
18837TIP3    H177926   2.551   3.331  13.625  1.2444 -1.7107  0.1327
18837TIP3    H277927   2.509   3.279  13.760 -2.2912  1.1509  0.2175
18838TIP3   OH277928   0.591   1.043  12.622  0.9721 -0.7282 -0.0395
18838TIP3    H177929   0.574   1.135  12.641  2.7707 -0.1915 -0.9728
18838TIP3    H277930   0.655   1.044  12.551  0.9689 -2.7002 -0.0938
18839TIP3   OH277931   0.530   4.513  13.874 -0.9343 -0.2340 -0.3011
18839TIP3    H177932   0.541   4.606  13.853  2.5540 -0.5188  0.0008
18839TIP3    H277933   0.477   4.512  13.954 -0.6641  1.4972 -0.0868
18840TIP3   OH277934   1.018   4.487  14.899  0.2011 -0.4805 -0.1168
18840TIP3    H177935   0.976   4.548  14.960 -0.7080 -0.1830 -1.0199
18840TIP3    H277936   0.995   4.521  14.813  0.3931 -1.6287 -0.6275
18841TIP3   OH277937   6.379   4.361   1.381  0.2426 -0.3080  0.1689
18841TIP3    H177938   6.462   4.377   1.335 -1.6710  2.8406 -2.4169
18841TIP3    H277939   6.374   4.431   1.446 -1.2163  0.5771 -0.8963
18842TIP3   OH277940   2.398   3.118  12.020  0.2694  0.2020  0.6214
18842TIP3    H177941   2.450   3.065  12.081 -0.2060 -0.2633  0.6267
18842TIP3    H277942   2.419   3.083  11.933 -0.4027 -0.3174  0.6610
18843TIP3   OH277943   2.034   4.718  15.462 -0.0598  0.1928 -0.0776
18843TIP3    H177944   2.041   4.774  15.384  1.8903 -0.7659 -0.6330
18843TIP3    H277945   2.013   4.631  15.427 -1.9466  0.3280  0.6899
18844TIP3   OH277946   0.297   3.438   0.443 -0.0954  0.1598 -0.1664
18844TIP3    H177947   0.264   3.487   0.368 -1.0628  0.0033  0.1620
18844TIP3    H277948   0.329   3.506   0.503  0.1984  0.3053 -0.4770
18845TIP3   OH277949   5.354   5.208   3.738 -0.6723  0.0806  0.1893
18845TIP3    H177950   5.303   5.272   3.788 -1.5733  1.5895 -2.5195
18845TIP3    H277951   5.288   5.155   3.693  0.1043 -1.2184  0.5840
18846TIP3   OH277952   6.433   2.799  11.190  0.0320  0.0679  0.1916
18846TIP3    H177953   6.427   2.823  11.283 -1.6534 -0.4894  0.2410
18846TIP3    H277954   6.441   2.703  11.191 -1.2394 -0.0502 -0.2759
18847TIP3   OH277955   4.654   6.214   0.774  0.2047  0.4745 -0.2704
18847TIP3    H177956   4.749   6.210   0.775  0.2391  0.8563 -1.0039
18847TIP3    H277957   4.626   6.155   0.843  0.9743  0.3321 -0.0780
18848TIP3   OH277958   2.256   4.242   1.697 -0.8206 -0.3655 -0.4036
18848TIP3    H177959   2.164   4.221   1.684 -0.7915 -0.8694  0.1527
18848TIP3    H277960   2.256   4.306   1.768 -0.6540 -1.5458  0.6918
18849TIP3   OH277961   3.267   3.783  12.072  0.0751 -0.1350  0.4123
18849TIP3    H177962   3.182   3.757  12.107 -0.2780 -0.2144 -0.4931
18849TIP3    H277963   3.330   3.725  12.116 -0.5037 -1.1612 -0.1027
18850TIP3   OH277964   2.570   2.732   5.948 -0.2494  0.2445  0.0482
18850TIP3    H177965   2.493   2.713   5.893 -1.2213  0.0795  1.4331
18850TIP3    H277966   2.643   2.690   5.903 -0.8979  0.7869 -1.5364
18851TIP3   OH277967   5.324   4.157   2.965 -0.0260  0.1124  0.1783
18851TIP3    H177968   5.288   4.072   2.988  1.4798 -0.6606 -0.2749
18851TIP3    H277969   5.402   4.165   3.020 -0.0444  1.1227  0.0705
18852TIP3   OH277970   2.650   1.153   1.094 -0.1539 -0.1717 -0.1314
18852TIP3    H177971   2.607   1.101   1.026  1.8450 -1.4796 -0.4425
18852TIP3    H277972   2.657   1.094   1.169  1.6101 -0.1874 -0.2886
18853TIP3   OH277973   0.575   5.445  12.044  0.1779  0.4760 -0.1473
18853TIP3    H177974   0.504   5.432  11.981 -0.7815  0.3258  0.9366
18853TIP3    H277975   0.646   5.389  12.012  0.1188  1.2658 -1.7019
18854TIP3   OH277976   2.049   0.762   3.001  0.0451 -0.2529  0.4629
18854TIP3    H177977   1.969   0.813   3.012 -0.9044 -1.5838 -0.1425
18854TIP3    H277978   2.108   0.793   3.070 -0.6352  1.3967  0.3207
18855TIP3   OH277979   1.052   3.563  16.195  0.2915  0.1653  0.0185
18855TIP3    H177980   0.972   3.512  16.179  0.4652 -1.0512  2.7076
18855TIP3    H277981   1.073   3.602  16.110 -2.5626 -0.3530 -0.9880
18856TIP3   OH277982   3.877   0.099  10.504  0.1825  0.4097 -0.3255
18856TIP3    H177983   3.955   0.082  10.556  0.0125 -0.8877 -0.4951
18856TIP3    H277984   3.906   0.162  10.437  0.5121  1.6935  0.9999
18857TIP3   OH277985   2.352   3.320  12.774  0.5894  0.0123  0.2336
18857TIP3    H177986   2.375   3.406  12.808  2.1180 -0.2119 -0.1962
18857TIP3    H277987   2.436   3.278  12.755  0.0055 -2.8245  3.4813
18858TIP3   OH277988   2.434   0.301   4.836 -0.3812 -0.0318 -0.0631
18858TIP3    H177989   2.339   0.299   4.823 -0.5702  1.2948  0.9421
18858TIP3    H277990   2.460   0.209   4.841 -1.7611 -0.4044  0.6282
18859TIP3   OH277991   6.438   5.413  11.425 -0.2592  0.0754 -0.0180
18859TIP3    H177992   6.363   5.375  11.471  0.1832  0.4749  1.0284
18859TIP3    H277993   6.410   5.501  11.401 -1.0999 -0.6892 -2.0051
18860TIP3   OH277994   5.992   3.833   3.178 -0.0390  0.2053 -0.1515
18860TIP3    H177995   6.032   3.747   3.167  1.5251  0.8386  0.5152
18860TIP3    H277996   6.059   3.895   3.149 -0.3850  1.3022  1.3429
18861TIP3   OH277997   0.037   5.876   3.175 -0.3334 -0.1455 -0.0732
18861TIP3    H177998   0.121   5.879   3.129  0.0813  0.7689  0.7140
18861TIP3    H277999   0.055   5.916   3.260 -1.4489 -0.4177  0.3038
18862TIP3   OH278000   2.835   1.777   1.947  0.5339 -0.5702  0.3684
18862TIP3    H178001   2.805   1.846   1.888  0.1068 -1.2761 -0.2488
18862TIP3    H278002   2.811   1.695   1.903  1.3147 -1.1165  0.9442
18863TIP3   OH278003   4.472   0.805   1.857 -0.1338  0.7455 -0.2647
18863TIP3    H178004   4.397   0.810   1.797 -0.7149  1.2291  0.4866
18863TIP3    H278005   4.543   0.771   1.803 -1.1863 -0.7729 -0.7208
18864TIP3   OH278006   5.684   6.456  16.320 -0.5988 -0.2182 -0.3990
18864TIP3    H178007   5.686   6.387  16.255 -0.2687 -1.6011  1.0561
18864TIP3    H278008   5.610   6.433  16.377 -1.1916  1.2365 -0.5533
18865TIP3   OH278009   6.635   0.995   3.087  0.0465  0.3786 -0.4169
18865TIP3    H178010   6.636   1.061   3.156  0.5894  1.0470 -1.0564
18865TIP3    H278011   6.650   0.912   3.133  1.8526  0.9748  0.1202
18866TIP3   OH278012   3.342   3.132   3.820 -0.0690 -0.1687 -0.4272
18866TIP3    H178013   3.417   3.101   3.769 -0.7023  1.2981 -2.3023
18866TIP3    H278014   3.380   3.196   3.880  0.0697  1.3540 -2.0968
18867TIP3   OH278015   5.693   5.575  13.289 -0.0811 -0.3065  1.2549
18867TIP3    H178016   5.769   5.522  13.265  0.0158 -0.2585  1.4595
18867TIP3    H278017   5.723   5.629  13.362  0.0740  0.6394  0.5065
18868TIP3   OH278018   3.269   3.906  11.181 -0.1395  0.0125  0.3842
18868TIP3    H178019   3.189   3.856  11.193  0.6284 -1.2096  0.5330
18868TIP3    H278020   3.290   3.897  11.087  0.9731 -1.4739  0.7626
18869TIP3   OH278021   5.006   5.820   0.735  1.0213 -0.5012  0.1658
18869TIP3    H178022   5.040   5.880   0.802  0.4292 -1.9546  1.7944
18869TIP3    H278023   4.972   5.878   0.667  2.5381  0.9936  0.6423
18870TIP3   OH278024   5.499   5.056  13.774  0.3862 -0.0350  0.4317
18870TIP3    H178025   5.481   4.963  13.792  0.8331  0.2883  2.6983
18870TIP3    H278026   5.437   5.079  13.705 -0.8108 -1.6234  0.9409
18871TIP3   OH278027   2.367   4.324  16.275 -0.2832  0.0736 -0.2477
18871TIP3    H178028   2.372   4.235  16.242  0.1869 -0.1564  0.4220
18871TIP3    H278029   2.313   4.317  16.354 -1.5907  0.6490 -1.0605
18872TIP3   OH278030   5.915   0.169  11.292 -0.6490 -0.2765  0.3269
18872TIP3    H178031   5.856   0.159  11.218 -0.9993  1.2829  0.3843
18872TIP3    H278032   5.864   0.214  11.359  0.4192  0.5497  0.6015
18873TIP3   OH278033   3.728   6.755  12.158  0.3107  0.9434  0.0812
18873TIP3    H178034   3.749   6.734  12.249  1.2388 -0.6787 -0.4951
18873TIP3    H278035   3.749   6.848  12.150 -0.5143  1.2892  1.7171
18874TIP3   OH278036   1.142   3.383  16.834  0.1515  0.3351  0.4432
18874TIP3    H178037   1.068   3.384  16.773  0.3833  1.4038  0.1741
18874TIP3    H278038   1.133   3.463  16.885 -0.1965 -0.6831  2.0324
18875TIP3   OH278039   0.036   2.939   2.192  0.7580 -0.4099  0.4602
18875TIP3    H178040   0.100   3.010   2.204 -0.4657  0.6351  0.8968
18875TIP3    H278041  -0.030   2.955   2.259 -0.6437 -0.7111 -0.8302
18876TIP3   OH278042   3.809   1.239   1.056 -0.9026 -0.1696 -0.5482
18876TIP3    H178043   3.887   1.284   1.088  1.0445 -2.1143 -2.3688
18876TIP3    H278044   3.757   1.222   1.134  1.0344  0.1646  0.8469
18877TIP3   OH278045   2.610   2.666  17.059 -0.2184  0.0483 -0.0052
18877TIP3    H178046   2.556   2.606  17.009  1.1492 -0.7361 -0.5566
18877TIP3    H278047   2.696   2.623  17.065 -0.6051 -0.3857  3.8981
18878TIP3   OH278048   6.279   0.001  12.345 -0.5644  0.2021  0.5291
18878TIP3    H178049   6.259  -0.060  12.275 -0.0977 -1.1728  1.5557
18878TIP3    H278050   6.371   0.023  12.332 -1.2385  2.2549 -0.9909
18879TIP3   OH278051   1.131   4.530   4.064 -0.4080 -0.1730  0.3068
18879TIP3    H178052   1.058   4.587   4.086 -1.4474 -0.3783 -2.4117
18879TIP3    H278053   1.103   4.442   4.090 -0.8489 -0.1475 -0.0853
18880TIP3   OH278054   0.353   6.077  12.136  0.0591  0.1990 -0.5010
18880TIP3    H178055   0.357   6.120  12.050  1.1490  4.3982  1.4943
18880TIP3    H278056   0.265   6.099  12.169 -0.9632 -2.7594 -1.1430
18881TIP3   OH278057   2.282   5.707   3.722 -0.2522 -0.1856 -0.4186
18881TIP3    H178058   2.356   5.739   3.670  0.0641  1.3350  0.9257
18881TIP3    H278059   2.270   5.774   3.790 -1.2105 -1.7028  0.9368
18882TIP3   OH278060   5.691   2.555   0.430 -0.2806  0.0162 -0.0243
18882TIP3    H178061   5.651   2.561   0.517 -1.6124  0.3056 -0.6537
18882TIP3    H278062   5.639   2.490   0.384 -1.4043  1.9636 -1.5762
18883TIP3   OH278063   1.731   5.818   1.238 -0.2509 -0.6451  0.2329
18883TIP3    H178064   1.801   5.752   1.244  0.6371  0.3084  0.5425
18883TIP3    H278065   1.775   5.901   1.255 -1.4254  0.0007  0.1715
18884TIP3   OH278066   4.543   3.121   4.801  0.8805  0.2258  0.4251
18884TIP3    H178067   4.514   3.211   4.816 -0.0222 -0.0534  0.3648
18884TIP3    H278068   4.476   3.084   4.744  0.9627 -0.6578  0.9083
18885TIP3   OH278069   2.076   2.964  13.295  0.3520 -0.5266  0.4193
18885TIP3    H178070   2.137   3.031  13.324 -0.6583 -0.1982  1.8798
18885TIP3    H278071   2.049   2.992  13.208 -0.2090  1.0841  1.0892
18886TIP3   OH278072   6.713   5.708  15.901  0.1822 -0.2546 -0.0403
18886TIP3    H178073   6.788   5.698  15.960  0.1339 -0.8628 -0.0807
18886TIP3    H278074   6.744   5.671  15.818 -0.7846 -2.2164  0.4468
18887TIP3   OH278075   2.121   3.835  15.449  0.3293 -0.1899 -0.0806
18887TIP3    H178076   2.127   3.919  15.493 -0.0081 -0.4608  0.4955
18887TIP3    H278077   2.035   3.836  15.407  0.1634 -0.3908  0.2445
18888TIP3   OH278078   1.219   4.574  15.406 -0.3865 -0.0201 -0.4028
18888TIP3    H178079   1.197   4.623  15.484 -0.3402 -2.4745  1.2123
18888TIP3    H278080   1.141   4.577  15.351 -0.7358  0.9291  0.1594
18889TIP3   OH278081   2.132   4.444   0.048  0.0192 -0.1337 -0.2171
18889TIP3    H178082   2.121   4.417   0.139 -1.4714  1.7056  0.1714
18889TIP3    H278083   2.057   4.407   0.002 -0.8621  1.4912 -0.1018
18890TIP3   OH278084   6.682   6.081   0.358 -0.2401 -0.3947  0.0148
18890TIP3    H178085   6.695   6.148   0.425  1.8041 -0.0142 -0.7442
18890TIP3    H278086   6.700   6.125   0.275  1.8882 -2.0349 -0.4423
18891TIP3   OH278087   3.263   4.565  12.943  0.0795 -0.4081 -0.1866
18891TIP3    H178088   3.348   4.533  12.971 -0.0640 -0.3078  0.3750
18891TIP3    H278089   3.216   4.487  12.914  0.9659 -0.2441 -2.1227
18892TIP3   OH278090   5.724   3.488  12.706 -0.0989  0.4681 -0.9117
18892TIP3    H178091   5.724   3.482  12.611  2.1207  1.5561 -0.9964
18892TIP3    H278092   5.733   3.397  12.736  0.4864  0.2487 -1.7526
18893TIP3   OH278093   2.487   3.559  16.557 -0.2806 -0.8073 -0.1735
18893TIP3    H178094   2.560   3.502  16.580 -0.4492  0.1827  3.0023
18893TIP3    H278095   2.410   3.502  16.559  0.4069 -2.0859 -4.5290
18894TIP3   OH278096   4.383   2.464   1.192 -0.0696 -0.1940  0.0300
18894TIP3    H178097   4.290   2.467   1.214 -0.2769 -1.8088 -0.6209
18894TIP3    H278098   4.389   2.403   1.119  1.8804 -2.5231  2.0448
18895TIP3   OH278099   2.957   5.954   4.220  0.7215  0.0597  0.2065
18895TIP3    H178100   3.031   5.970   4.278  0.6833 -0.2565  0.3453
18895TIP3    H278101   2.922   6.041   4.200  0.9481  0.1884  0.3779
18896TIP3   OH278102   3.854   0.531   5.253 -0.5739  0.3796 -0.5053
18896TIP3    H178103   3.774   0.546   5.201 -0.9357 -0.8118 -0.2921
18896TIP3    H278104   3.829   0.464   5.316  0.0710  1.3247  0.7683
18897TIP3   OH278105   3.884   6.447  15.305  0.6083 -0.3691  0.1326
18897TIP3    H178106   3.972   6.449  15.342  0.5775 -1.1351  0.2635
18897TIP3    H278107   3.863   6.538  15.286  0.9151 -0.0551  1.3026
18898TIP3   OH278108   5.498   0.100  11.404 -0.1162 -0.1178  0.4035
18898TIP3    H178109   5.423   0.086  11.346  0.9155  2.3320 -1.6249
18898TIP3    H278110   5.525   0.012  11.430 -3.1041 -1.0802  0.4549
18899TIP3   OH278111   3.535   2.538   2.327 -0.1171 -0.3372  0.6149
18899TIP3    H178112   3.510   2.606   2.390  0.2593  0.7056 -0.3597
18899TIP3    H278113   3.587   2.583   2.261 -0.5200 -1.4311 -0.4695
18900TIP3   OH278114   2.119   1.909   4.332  0.9156 -0.0663 -0.5147
18900TIP3    H178115   2.060   1.850   4.285  0.7420  0.8967 -1.5049
18900TIP3    H278116   2.155   1.854   4.402 -0.8238 -0.7698 -0.1417
18901TIP3   OH278117   5.233   1.624   4.186 -0.2632 -0.4022 -0.5163
18901TIP3    H178118   5.230   1.603   4.280  0.7328 -1.3509 -0.6864
18901TIP3    H278119   5.144   1.652   4.165 -0.8016 -1.3396  0.4637
18902TIP3   OH278120   3.196   5.690  14.649 -0.1246  0.2292  0.4494
18902TIP3    H178121   3.189   5.636  14.571 -0.9260 -2.0152  2.0206
18902TIP3    H278122   3.108   5.725  14.662 -0.2912 -0.3893  1.0181
18903TIP3   OH278123   6.259   0.952   0.190  0.1681  0.2849  0.3848
18903TIP3    H178124   6.240   0.931   0.282 -0.8559  0.4025  0.2037
18903TIP3    H278125   6.288   0.870   0.152 -0.8616 -0.1009  0.4391
18904TIP3   OH278126   2.573   0.073  13.269  0.2764 -0.0223  0.3965
18904TIP3    H178127   2.588   0.095  13.361  1.1309 -1.8602  0.7079
18904TIP3    H278128   2.498   0.127  13.244 -0.0245  0.4251  2.1899
18905TIP3   OH278129   3.182   5.695  16.021  0.2641  0.0857  0.3407
18905TIP3    H178130   3.169   5.725  15.931  0.5445  0.4075  0.4095
18905TIP3    H278131   3.095   5.663  16.048  0.1295  0.1844  0.0314
18906TIP3   OH278132   2.861   3.595  15.450  0.0616 -0.1828  0.9910
18906TIP3    H178133   2.904   3.511  15.465  0.5587 -0.6913 -2.6908
18906TIP3    H278134   2.777   3.572  15.409  1.1682  1.0906 -2.1673
18907TIP3   OH278135   4.295   1.315   1.822 -0.1472  0.2790 -0.9198
18907TIP3    H178136   4.296   1.409   1.837 -0.8704  0.2273 -0.5407
18907TIP3    H278137   4.315   1.276   1.907 -1.1324  0.0647 -0.7740
18908TIP3   OH278138   3.921   6.356   0.273  0.3251 -0.3330  0.5827
18908TIP3    H178139   3.967   6.428   0.230 -1.1872 -0.0281 -0.5955
18908TIP3    H278140   3.974   6.279   0.255  1.8773  0.4588  1.7155
18909TIP3   OH278141   4.396   5.265  16.968 -0.6700  0.6737 -0.5496
18909TIP3    H178142   4.371   5.173  16.970 -1.2522  0.8382 -0.0540
18909TIP3    H278143   4.347   5.305  17.040  0.8666  1.0513  0.2957
18910TIP3   OH278144   4.705   0.271  11.639  0.1269  0.3901 -0.3703
18910TIP3    H178145   4.727   0.324  11.562  0.2063  0.2900 -0.4168
18910TIP3    H278146   4.751   0.313  11.711 -0.3547  0.7842 -0.2867
18911TIP3   OH278147   5.956   6.755   5.605 -0.2547  0.4302 -0.0105
18911TIP3    H178148   5.921   6.772   5.518 -0.1936 -1.0099 -0.3153
18911TIP3    H278149   5.919   6.671   5.631  0.5592  0.3478  0.9193
18912TIP3   OH278150   5.410   5.553   1.903 -0.2506  0.4205 -0.2972
18912TIP3    H178151   5.439   5.613   1.972  0.9928 -1.2855  0.6970
18912TIP3    H278152   5.378   5.610   1.833  0.6764  2.2259  0.7325
18913TIP3   OH278153   5.562   3.333   5.926  0.7249 -0.0758  0.4592
18913TIP3    H178154   5.630   3.281   5.882 -0.4739 -1.5560  0.3168
18913TIP3    H278155   5.552   3.410   5.870 -0.3796 -1.6601 -1.6080
18914TIP3   OH278156   1.336   0.813  11.766  0.5663  0.1974  0.2297
18914TIP3    H178157   1.390   0.819  11.844 -1.6134 -3.0029  2.0817
18914TIP3    H278158   1.249   0.841  11.795  0.2868  1.4634 -1.7251
18915TIP3   OH278159   2.861   4.770  13.080  0.6880  0.0828  0.0911
18915TIP3    H178160   2.949   4.746  13.107  0.8705  0.6742  0.0284
18915TIP3    H278161   2.869   4.859  13.045  0.3997 -0.5909 -1.7084
18916TIP3   OH278162   2.544   5.747   2.577  0.6140  0.3359 -0.6342
18916TIP3    H178163   2.595   5.809   2.629 -0.0374  0.7416 -0.4721
18916TIP3    H278164   2.609   5.686   2.542  1.1566  0.5748 -0.0562
18917TIP3   OH278165   1.368   1.205  12.598  0.5214 -0.3470  0.0242
18917TIP3    H178166   1.341   1.258  12.673  0.5830  0.8707 -0.8101
18917TIP3    H278167   1.461   1.224  12.586  0.2315  0.4101 -1.1188
18918TIP3   OH278168   0.354   6.578   1.992 -0.0266 -0.0341  0.0431
18918TIP3    H178169   0.301   6.609   2.065 -0.0632 -3.4613  1.5610
18918TIP3    H278170   0.442   6.614   2.009 -0.2230 -0.1472  1.3323
18919TIP3   OH278171   0.006   0.455   2.464 -0.1394 -0.5168 -0.4958
18919TIP3    H178172  -0.065   0.512   2.492  0.3338 -0.1534 -0.0250
18919TIP3    H278173   0.008   0.463   2.369  0.9987  1.5665 -0.3351
18920TIP3   OH278174   2.305   5.330  12.534  0.3305 -0.1151 -0.3858
18920TIP3    H178175   2.270   5.316  12.446  0.1302  0.2078 -0.3555
18920TIP3    H278176   2.384   5.275  12.537 -0.0773 -0.7054 -0.5028
18921TIP3   OH278177   4.902   3.249  16.075  0.0834  0.4155  0.0916
18921TIP3    H178178   4.816   3.206  16.072  0.0327  0.3373  2.0299
18921TIP3    H278179   4.959   3.191  16.024 -0.7193 -0.1999 -0.1306
18922TIP3   OH278180   2.050   0.576   1.608 -0.0044  0.5695 -0.2483
18922TIP3    H178181   2.063   0.594   1.515 -1.4030 -0.5779 -0.6893
18922TIP3    H278182   2.036   0.481   1.613  2.8584  0.1688  1.4905
18923TIP3   OH278183   0.288   0.309   2.337 -0.1744  0.7004  0.2719
18923TIP3    H178184   0.353   0.254   2.381  0.2488  0.8210 -0.2069
18923TIP3    H278185   0.303   0.397   2.371  0.3518  0.8485 -0.3385
18924TIP3   OH278186   2.057   4.280   0.305 -0.7093  0.2955 -0.8206
18924TIP3    H178187   2.030   4.342   0.372  0.3869  0.2904 -0.3513
18924TIP3    H278188   2.101   4.210   0.353 -0.9191 -0.2773 -1.4470
18925TIP3   OH278189   3.032   5.900  13.386  0.1396 -0.0342  0.4311
18925TIP3    H178190   2.964   5.962  13.413  0.7458  0.6478  0.4153
18925TIP3    H278191   3.062   5.860  13.468 -1.1700 -1.2842  0.3148
18926TIP3   OH278192   6.480   0.309   5.721  0.1434 -0.2176  0.4446
18926TIP3    H178193   6.445   0.318   5.632  0.2423 -0.5070  0.3762
18926TIP3    H278194   6.413   0.259   5.768 -0.3795  0.8040  0.8088
18927TIP3   OH278195   3.658   4.812  15.636  0.2128  0.1674 -0.3811
18927TIP3    H178196   3.733   4.863  15.603  0.9693  0.4684  1.6887
18927TIP3    H278197   3.591   4.877  15.654  0.2781  0.1607 -0.1051
18928TIP3   OH278198   5.640   1.644  11.915 -0.0421  0.1361  0.0691
18928TIP3    H178199   5.640   1.639  12.010  1.7590  0.1949  0.0854
18928TIP3    H278200   5.661   1.555  11.886 -2.7117 -0.4141 -0.3464
18929TIP3   OH278201   4.651   4.706   4.811  0.1966 -0.3222 -0.3330
18929TIP3    H178202   4.663   4.701   4.716 -3.5891 -2.6871 -0.8034
18929TIP3    H278203   4.704   4.633   4.845  0.2791 -0.4730 -0.7783
18930TIP3   OH278204   0.423   4.182  15.271  0.1782  0.4338 -0.3941
18930TIP3    H178205   0.452   4.210  15.358  0.7862 -1.1571 -0.0457
18930TIP3    H278206   0.328   4.179  15.276 -0.0561  4.4927 -1.1450
18931TIP3   OH278207   2.325   4.363   4.026 -0.4714 -0.3884 -0.2944
18931TIP3    H178208   2.249   4.338   4.079  0.0893 -1.4226  0.0436
18931TIP3    H278209   2.353   4.281   3.985  0.5337 -0.0256 -0.3347
18932TIP3   OH278210   3.966   4.884   2.219 -0.3227 -0.4312  0.6686
18932TIP3    H178211   3.985   4.846   2.133 -1.9787 -0.3720  0.2732
18932TIP3    H278212   3.904   4.955   2.201  0.4030  0.4917  1.7571
18933TIP3   OH278213   4.183   1.487  11.595  0.2545  0.2209 -0.0139
18933TIP3    H178214   4.147   1.445  11.517 -0.6344  0.9175  0.0222
18933TIP3    H278215   4.122   1.465  11.665  0.4018  0.6038  0.2385
18934TIP3   OH278216   2.350   0.932  16.337 -0.4688 -0.1259 -0.2456
18934TIP3    H178217   2.423   0.916  16.397 -0.4202  0.1184 -0.2432
18934TIP3    H278218   2.388   0.983  16.266 -0.8851  0.9452  0.3041
18935TIP3   OH278219   2.630   5.507   3.578 -0.4010 -0.0747 -0.4501
18935TIP3    H178220   2.588   5.459   3.650  0.4596 -0.5016 -0.2255
18935TIP3    H278221   2.606   5.458   3.500 -0.7680 -0.0064 -0.3827
18936TIP3   OH278222   3.608   3.904  12.454 -0.0525  0.3277  0.5618
18936TIP3    H178223   3.694   3.923  12.492  1.2147 -1.5318 -1.2458
18936TIP3    H278224   3.547   3.915  12.526  2.1339 -1.8689  2.8661
18937TIP3   OH278225   5.945   2.834  16.398 -0.0073 -0.0661 -0.1029
18937TIP3    H178226   5.914   2.825  16.489  0.4117  0.3512  0.0826
18937TIP3    H278227   5.884   2.782  16.347  0.2412 -0.9758  0.5208
18938TIP3   OH278228   2.331   5.870   2.801  0.0386  0.4301  0.2923
18938TIP3    H178229   2.390   5.926   2.852  0.4016  2.6469 -2.5058
18938TIP3    H278230   2.389   5.806   2.759  0.3153  1.7023 -1.2902
18939TIP3   OH278231   4.123   6.532  16.280  0.4404  0.0725  0.5071
18939TIP3    H178232   4.054   6.496  16.224  1.8870 -0.8975 -0.6806
18939TIP3    H278233   4.146   6.461  16.340 -0.0456  0.6136  1.3440
18940TIP3   OH278234   3.331   0.946   2.604  0.6548  0.1248 -0.0803
18940TIP3    H178235   3.355   0.938   2.696 -0.5662 -2.4250  0.0626
18940TIP3    H278236   3.257   1.007   2.604  0.1791 -0.4411  0.7227
18941TIP3   OH278237   5.078   5.253  15.251 -0.7377 -0.3769 -0.3969
18941TIP3    H178238   5.081   5.308  15.172 -3.4593 -1.0559 -1.0432
18941TIP3    H278239   5.002   5.285  15.299 -1.9797 -3.0855 -0.4561
18942TIP3   OH278240   0.506   1.900   3.470  0.1250 -0.1519 -0.1250
18942TIP3    H178241   0.525   1.870   3.381  0.5959  2.4041 -0.9377
18942TIP3    H278242   0.471   1.823   3.515 -0.9728 -1.2672 -2.7891
18943TIP3   OH278243   1.759   4.848  15.322  0.1943 -0.0418 -0.5283
18943TIP3    H178244   1.703   4.924  15.307 -1.4703 -1.2738 -0.7977
18943TIP3    H278245   1.836   4.863  15.268 -0.2534  1.3089 -0.7991
18944TIP3   OH278246   3.641   5.376   2.179  0.1094 -0.0438  0.4229
18944TIP3    H178247   3.667   5.423   2.100 -0.7075  0.6054  0.5366
18944TIP3    H278248   3.571   5.318   2.151  0.3018 -0.3241  0.5251
18945TIP3   OH278249   3.337   3.019   4.811 -0.1272 -0.1343  0.2330
18945TIP3    H178250   3.431   3.004   4.809  0.0418  0.8945  0.3068
18945TIP3    H278251   3.302   2.946   4.862  0.4658 -1.3196 -1.0410
18946TIP3   OH278252   6.104   1.674  13.049 -0.3224 -0.1506 -0.1526
18946TIP3    H178253   6.076   1.747  12.994  0.0826 -0.7737 -1.1850
18946TIP3    H278254   6.163   1.623  12.994  1.2767  0.0408  1.3388
18947TIP3   OH278255   4.824   3.608   5.277  0.3385 -0.0207 -0.5055
18947TIP3    H178256   4.908   3.653   5.289  0.5342 -0.1009 -1.5559
18947TIP3    H278257   4.758   3.673   5.299  0.6642  0.1773 -0.1003
18948TIP3   OH278258   0.561   5.754   6.008  0.1447 -0.0459 -0.4214
18948TIP3    H178259   0.526   5.771   6.095 -0.4765 -2.0584 -0.2731
18948TIP3    H278260   0.637   5.698   6.023  1.9645  2.1711 -0.9542
18949TIP3   OH278261   1.544   3.529  15.145 -0.0900 -0.1002 -0.2313
18949TIP3    H178262   1.470   3.577  15.108 -0.0972 -0.0803 -0.1915
18949TIP3    H278263   1.510   3.441  15.160  0.2564 -0.4333 -1.3801
18950TIP3   OH278264   4.025   2.903   0.614  0.5945 -0.6004 -0.3533
18950TIP3    H178265   3.981   2.986   0.629  0.2559 -0.8365 -0.0112
18950TIP3    H278266   3.957   2.837   0.628  0.8610 -0.9326 -0.6098
18951TIP3   OH278267   3.356   1.620  11.860 -0.4822  0.3701  0.2506
18951TIP3    H178268   3.363   1.690  11.795 -0.2322  0.0650 -0.0501
18951TIP3    H278269   3.446   1.592  11.876 -0.5646  0.2620  0.5285
18952TIP3   OH278270   2.334   0.456   1.390 -0.2027 -0.2802 -0.1051
18952TIP3    H178271   2.412   0.511   1.400  0.0999 -0.5001 -1.2485
18952TIP3    H278272   2.313   0.460   1.297 -2.5656  1.1352  0.4469
18953TIP3   OH278273   3.604   4.149   0.427 -0.0518 -0.4467  0.0836
18953TIP3    H178274   3.648   4.126   0.509 -0.1175 -1.9032 -0.2760
18953TIP3    H278275   3.526   4.094   0.425 -0.4463  0.1254 -0.6011
18954TIP3   OH278276   3.707   0.686   4.982 -0.4525 -0.3430 -0.3457
18954TIP3    H178277   3.646   0.689   4.908 -1.2970  1.0527  0.3700
18954TIP3    H278278   3.655   0.717   5.056  0.5012 -1.3399  0.7514
18955TIP3   OH278279   2.779   4.231  13.255  0.4686 -0.1321  0.0690
18955TIP3    H178280   2.796   4.286  13.331 -1.0340 -0.7466  0.8886
18955TIP3    H278281   2.707   4.275  13.209  0.9568 -0.0872 -0.6684
18956TIP3   OH278282   5.856   0.522  13.843 -0.5895  0.8648 -0.7623
18956TIP3    H178283   5.853   0.475  13.926 -3.3509  1.5599 -0.4188
18956TIP3    H278284   5.888   0.609  13.866 -1.0707  0.9648 -0.4694
18957TIP3   OH278285   2.531   2.092   4.536 -0.2271  0.2000  0.3363
18957TIP3    H178286   2.527   2.183   4.562  1.2982 -0.0431  1.4865
18957TIP3    H278287   2.559   2.045   4.615  0.5012 -1.0584 -0.6476
18958TIP3   OH278288   6.241   2.083  14.991  0.6295 -0.3998  0.1751
18958TIP3    H178289   6.184   2.017  14.950  0.3017  0.5066 -0.8413
18958TIP3    H278290   6.243   2.155  14.929  1.3910  0.3580  1.0638
18959TIP3   OH278291   1.765   4.556   1.643  0.1403  0.0487 -0.2231
18959TIP3    H178292   1.838   4.604   1.604 -0.0910  1.5555  1.1321
18959TIP3    H278293   1.689   4.582   1.591  0.4056 -0.7438 -1.0095
18960TIP3   OH278294   0.129   1.315  10.531  0.1031  0.1331 -0.3283
18960TIP3    H178295   0.062   1.254  10.502  1.7171 -1.3854 -0.9667
18960TIP3    H278296   0.096   1.349  10.615 -0.5853 -2.0251  0.3083
18961TIP3   OH278297   0.244   5.236   1.223 -0.1755  0.3296 -0.0599
18961TIP3    H178298   0.275   5.324   1.243  0.7553  0.1160 -0.5470
18961TIP3    H278299   0.217   5.240   1.131  0.4648 -0.0631 -0.2639
18962TIP3   OH278300   5.499   0.844  12.653 -0.2197  0.3550  0.4834
18962TIP3    H178301   5.487   0.751  12.635  0.9343  0.1570  0.6859
18962TIP3    H278302   5.441   0.863  12.726 -2.0366  0.2741 -0.9145
18963TIP3   OH278303   2.087   2.368  16.056 -0.5924  0.4228  0.3404
18963TIP3    H178304   2.042   2.322  16.127 -1.4554 -1.4123 -1.3509
18963TIP3    H278305   2.174   2.328  16.052 -1.5082 -1.5068 -1.4523
18964TIP3   OH278306   5.844   5.208  17.126 -0.4537  0.0902  0.0226
18964TIP3    H178307   5.765   5.157  17.142 -0.7828  0.8221  0.7648
18964TIP3    H278308   5.847   5.217  17.030 -0.8144 -0.6509 -0.0602
18965TIP3   OH278309   4.462   5.227   0.305 -0.3718  0.2991  0.2925
18965TIP3    H178310   4.415   5.164   0.358  2.1162 -0.6867  1.3854
18965TIP3    H278311   4.462   5.308   0.356 -2.6456  0.9219 -0.6440
18966TIP3   OH278312   3.303   3.213  12.730  0.1143 -0.7712  0.5654
18966TIP3    H178313   3.292   3.302  12.764 -1.2517 -0.1719 -1.3824
18966TIP3    H278314   3.270   3.156  12.800  1.4814  0.2038  2.0365
18967TIP3   OH278315   0.928   2.418  13.811 -0.2167 -0.6137 -0.0930
18967TIP3    H178316   0.901   2.366  13.888 -1.8899  1.8936  1.0685
18967TIP3    H278317   0.998   2.474  13.844 -1.2863  0.8316 -0.2289
18968TIP3   OH278318   6.535   3.059   2.163 -0.0229  1.0036 -0.2498
18968TIP3    H178319   6.613   3.084   2.113  0.0156 -0.9970 -1.2803
18968TIP3    H278320   6.462   3.070   2.102  0.0860 -1.9922 -1.0289
18969TIP3   OH278321   4.629   6.431   0.594  0.0024  0.3245 -0.3333
18969TIP3    H178322   4.708   6.485   0.591 -0.2048  0.6680  0.3741
18969TIP3    H278323   4.647   6.367   0.662  0.6354 -1.1248 -1.8091
18970TIP3   OH278324   3.246   4.411   2.403 -0.1497  0.1138  0.1916
18970TIP3    H178325   3.257   4.391   2.310 -0.8808 -0.1159  0.1574
18970TIP3    H278326   3.152   4.405   2.419  0.1229 -1.3437  1.2876
18971TIP3   OH278327   3.653   2.680  12.033 -0.2089 -0.4848  0.2569
18971TIP3    H178328   3.624   2.678  11.942  2.0312 -0.0959 -0.4966
18971TIP3    H278329   3.656   2.589  12.060  1.9290 -0.8127 -1.0096
18972TIP3   OH278330   1.788   3.737   6.422 -0.5536  0.7875 -0.0486
18972TIP3    H178331   1.829   3.672   6.479 -1.4345  0.4850  0.2604
18972TIP3    H278332   1.825   3.721   6.335  0.7535  1.2083  0.4237
18973TIP3   OH278333   1.796   2.552  12.221 -0.0530 -1.0022  0.1582
18973TIP3    H178334   1.726   2.489  12.239 -0.5467 -0.2445  0.9853
18973TIP3    H278335   1.777   2.625  12.280  1.0726 -0.5065 -0.0841
18974TIP3   OH278336   4.168   1.190   4.406 -0.1096 -0.3772  0.2548
18974TIP3    H178337   4.242   1.182   4.345 -0.2464  0.7247 -0.0645
18974TIP3    H278338   4.183   1.273   4.451 -1.5622  0.2247 -0.3607
18975TIP3   OH278339   1.107   1.032   1.616  0.1237 -0.5303 -0.3635
18975TIP3    H178340   1.102   1.104   1.553  2.0372  0.7123  0.8492
18975TIP3    H278341   1.079   1.071   1.699  2.6036 -0.7390  0.6187
18976TIP3   OH278342   6.709   1.084  15.791 -0.6602  0.1452 -0.4870
18976TIP3    H178343   6.652   1.133  15.850 -0.8817  0.5166 -1.0081
18976TIP3    H278344   6.742   1.011  15.844 -0.5867  0.6708  0.1873
18977TIP3   OH278345   0.621   2.524  15.000  0.5804  0.7691 -0.7094
18977TIP3    H178346   0.655   2.442  14.965  1.4539  1.7735 -2.2516
18977TIP3    H278347   0.536   2.535  14.957  0.3147  0.5390 -0.2590
18978TIP3   OH278348   4.152   4.711   2.372 -0.1858 -0.4571  0.1974
18978TIP3    H178349   4.077   4.749   2.327 -0.0466  0.6359  0.8917
18978TIP3    H278350   4.212   4.685   2.301 -0.4220  0.3137 -0.2825
18979TIP3   OH278351   4.274   4.239   5.925 -0.0452 -0.5679  0.1210
18979TIP3    H178352   4.287   4.155   5.879 -2.0173 -0.3325 -0.9233
18979TIP3    H278353   4.236   4.214   6.009 -0.4292 -0.7565 -0.1027
18980TIP3   OH278354   0.685   6.554   1.730  0.1741  0.3930  0.3726
18980TIP3    H178355   0.701   6.647   1.715 -2.0177  0.4931 -1.5337
18980TIP3    H278356   0.689   6.544   1.826  1.3079  2.2609  0.5433
18981TIP3   OH278357   0.810   4.910  14.803 -0.1451 -0.3199 -0.3706
18981TIP3    H178358   0.781   4.914  14.894  0.5114 -1.0851 -0.1270
18981TIP3    H278359   0.730   4.892  14.754 -0.4496 -0.2095  0.0782
18982TIP3   OH278360   2.748   1.238   4.882 -0.2608 -0.4144 -0.1853
18982TIP3    H178361   2.820   1.181   4.908  0.9922  0.8877 -0.7880
18982TIP3    H278362   2.790   1.314   4.842 -1.9711  0.2242 -0.8087
18983TIP3   OH278363   2.622   1.028   5.001 -0.6016  0.5608  0.0911
18983TIP3    H178364   2.687   1.050   4.934 -0.2678 -1.0505 -0.1476
18983TIP3    H278365   2.543   1.005   4.950  0.3820 -3.0904  0.0681
18984TIP3   OH278366   1.759   0.792   0.834 -0.1225 -0.5069 -0.1958
18984TIP3    H178367   1.736   0.822   0.746 -0.6915  0.7804  0.3671
18984TIP3    H278368   1.800   0.869   0.875 -1.2681 -0.6055  1.1629
18985TIP3   OH278369   6.700   4.942   0.849  0.1004  0.3205 -0.2452
18985TIP3    H178370   6.766   5.000   0.811 -1.1551  1.3866 -0.8001
18985TIP3    H278371   6.713   4.859   0.803  0.8177  0.6240 -0.6035
18986TIP3   OH278372   2.635   4.928  15.707  0.6891 -0.0101 -0.3840
18986TIP3    H178373   2.559   4.869  15.707  0.2775  0.5122 -0.0693
18986TIP3    H278374   2.639   4.963  15.619  0.8299 -0.3757 -0.5241
18987TIP3   OH278375   0.496   1.160   0.983  0.3163  0.1976  0.0894
18987TIP3    H178376   0.567   1.161   0.919 -0.0833 -0.7281 -0.3833
18987TIP3    H278377   0.416   1.158   0.930 -0.0340  0.1618  0.6158
18988TIP3   OH278378   3.655   3.166   3.745  0.5078 -0.3352  0.1139
18988TIP3    H178379   3.673   3.243   3.798 -1.8484 -0.3909  1.0625
18988TIP3    H278380   3.739   3.121   3.737  1.7054  1.8479  0.3092
18989TIP3   OH278381   5.495   5.405  16.664  0.1890  0.2359 -0.1802
18989TIP3    H178382   5.525   5.487  16.703 -1.1514  0.4448  0.4389
18989TIP3    H278383   5.543   5.399  16.581 -1.4723  2.8752 -1.4035
18990TIP3   OH278384   5.870   5.057   4.866  0.5200 -0.4371  0.0427
18990TIP3    H178385   5.832   5.009   4.940 -0.5799  3.5277  2.2419
18990TIP3    H278386   5.962   5.031   4.865  0.2462 -1.5519  2.0386
18991TIP3   OH278387   1.849   0.126  13.008  0.0626 -0.1079 -0.1298
18991TIP3    H178388   1.877   0.147  13.097  0.6443  2.9710 -0.9874
18991TIP3    H278389   1.754   0.111  13.016  0.2411 -0.6252  1.1247
18992TIP3   OH278390   5.266   1.322   4.648 -0.8103 -0.3533  0.3271
18992TIP3    H178391   5.298   1.350   4.734 -0.0455  0.5242 -0.2258
18992TIP3    H278392   5.278   1.227   4.647  1.1490 -0.1199  0.4084
18993TIP3   OH278393   6.248   3.558   1.064 -0.7461  0.4947 -0.5563
18993TIP3    H178394   6.311   3.613   1.018  0.9298 -0.7171  0.2444
18993TIP3    H278395   6.239   3.479   1.010 -0.0097 -0.2211  0.3404
18994TIP3   OH278396   6.547   5.555  16.314  0.2522 -0.0098  0.3638
18994TIP3    H178397   6.555   5.593  16.226  1.3710 -0.9905  0.0326
18994TIP3    H278398   6.505   5.470  16.300 -0.5536  0.2991  0.8987
18995TIP3   OH278399   4.074   3.137   5.100 -0.2729  0.1318 -0.0393
18995TIP3    H178400   3.987   3.105   5.125 -0.7232 -0.3944 -2.2116
18995TIP3    H278401   4.123   3.058   5.076  0.3716  0.5623 -0.1675
18996TIP3   OH278402   1.711   4.494  13.606  0.3616 -0.2103 -0.1423
18996TIP3    H178403   1.695   4.473  13.698  0.4492  1.1474  0.2034
18996TIP3    H278404   1.631   4.468  13.561 -1.2228  2.5749  0.9155
18997TIP3   OH278405   5.148   3.952   3.082 -0.1392 -0.0146  0.1153
18997TIP3    H178406   5.165   3.951   3.177 -2.5923 -0.7762  0.5722
18997TIP3    H278407   5.086   4.024   3.070 -0.6017 -0.5669 -0.7817
18998TIP3   OH278408   0.583   1.223  11.348  0.7043 -0.0678 -0.1339
18998TIP3    H178409   0.654   1.159  11.355 -0.0714 -0.9614 -0.3337
18998TIP3    H278410   0.542   1.222  11.435 -1.5328 -2.4792 -1.1530
18999TIP3   OH278411   1.772   2.503  13.989  0.5045 -0.1073 -0.2686
18999TIP3    H178412   1.742   2.469  13.905  1.1753 -2.2508  0.3418
18999TIP3    H278413   1.863   2.529  13.974  0.6516 -0.5721 -0.1972
19000TIP3   OH278414   1.456   0.401   3.688  0.3565  0.6144 -0.0412
19000TIP3    H178415   1.479   0.384   3.596  0.2997  1.6863 -0.2629
19000TIP3    H278416   1.534   0.443   3.724  1.3090 -2.0238  1.0821
19001TIP3   OH278417   3.973   1.709  16.080  0.1848 -0.1226  0.1016
19001TIP3    H178418   3.941   1.649  16.148 -1.3111  0.2434 -0.2521
19001TIP3    H278419   4.056   1.671  16.051 -1.7265 -3.2803 -1.6138
19002TIP3   OH278420   1.775   4.438  16.796 -0.4998  0.5838  0.0192
19002TIP3    H178421   1.810   4.452  16.708 -1.4546 -0.7773 -0.5859
19002TIP3    H278422   1.853   4.433  16.852  0.0651  3.2594 -0.4382
19003TIP3   OH278423   6.377   3.711   1.411  0.5327 -0.8892 -0.1171
19003TIP3    H178424   6.413   3.638   1.461  1.5804  0.1109  0.6102
19003TIP3    H278425   6.437   3.722   1.337  0.0484 -1.1345 -0.5525
19004TIP3   OH278426   1.438   6.308   0.216  0.3820  0.1507 -0.0071
19004TIP3    H178427   1.384   6.250   0.161  0.2009  0.5165 -0.2201
19004TIP3    H278428   1.474   6.250   0.283 -0.0256 -0.1602 -0.0479
19005TIP3   OH278429   6.022   3.009  13.589  0.1706  0.1970 -0.3720
19005TIP3    H178430   5.976   3.042  13.666 -0.2796 -0.7733 -0.2180
19005TIP3    H278431   6.017   2.914  13.598 -3.5949 -0.0349 -3.7909
19006TIP3   OH278432   2.857   6.574  14.650  0.5208 -0.6421  0.3364
19006TIP3    H178433   2.806   6.640  14.604  0.5890 -0.6350  0.2723
19006TIP3    H278434   2.797   6.501  14.662 -0.0008 -0.0046  1.7055
19007TIP3   OH278435   5.729   6.479  14.124  0.4761 -0.5486 -0.3092
19007TIP3    H178436   5.655   6.498  14.182  0.9057 -1.3526  0.5161
19007TIP3    H278437   5.806   6.494  14.178  0.8918 -0.8804 -0.8081
19008TIP3   OH278438   0.744   1.948  11.992  0.0859  0.1448  0.5892
19008TIP3    H178439   0.650   1.929  11.996  0.2899 -1.1427 -0.2814
19008TIP3    H278440   0.765   1.946  11.899  0.7924  1.4584  0.7066
19009TIP3   OH278441   1.139   5.648   4.480 -0.0416  0.5042  0.3943
19009TIP3    H178442   1.074   5.596   4.433 -1.7918  1.5378  1.5723
19009TIP3    H278443   1.154   5.600   4.561 -1.3611  1.5979  1.3053
19010TIP3   OH278444   6.277   0.588   0.327 -0.7396 -0.1832 -0.0386
19010TIP3    H178445   6.206   0.641   0.290 -0.6563 -0.5195 -0.6931
19010TIP3    H278446   6.238   0.502   0.339 -0.7950 -0.0437  0.7601
19011TIP3   OH278447   0.210   2.197   3.222 -0.6828  0.7912  0.1134
19011TIP3    H178448   0.190   2.203   3.128  0.1709  0.3061 -0.0956
19011TIP3    H278449   0.301   2.169   3.226 -0.5850  1.2301  1.0921
19012TIP3   OH278450   5.522   0.647   2.376  0.0367 -0.6621  0.0229
19012TIP3    H178451   5.614   0.671   2.380 -0.1652  0.0805  0.4782
19012TIP3    H278452   5.499   0.627   2.467 -0.5027  0.1719  0.0797
19013TIP3   OH278453   1.779   4.590  10.697 -0.3730 -0.2771 -0.1455
19013TIP3    H178454   1.713   4.654  10.674  1.1734  0.9993 -1.1652
19013TIP3    H278455   1.808   4.553  10.614 -0.0014 -1.0288  0.3062
19014TIP3   OH278456   2.168   2.117   1.931  0.1773  0.2239  0.0264
19014TIP3    H178457   2.116   2.046   1.894  1.4370 -0.9541  0.4699
19014TIP3    H278458   2.234   2.135   1.865 -0.3919  1.2750 -0.2607
19015TIP3   OH278459   0.260   5.582   2.679  0.6518 -0.1582 -0.3349
19015TIP3    H178460   0.342   5.534   2.692  0.8207 -0.2351 -1.6145
19015TIP3    H278461   0.244   5.576   2.585  0.1310  1.4127 -0.3528
19016TIP3   OH278462   0.231   4.496  14.590 -0.3966 -0.1954 -0.2445
19016TIP3    H178463   0.195   4.555  14.657  0.7321 -0.4390  0.6125
19016TIP3    H278464   0.265   4.422  14.640 -1.0515 -1.1880 -1.2488
19017TIP3   OH278465   0.179   3.467   4.620  0.2208 -0.2613 -0.5679
19017TIP3    H178466   0.089   3.500   4.608  0.8765  1.1528 -1.7225
19017TIP3    H278467   0.233   3.527   4.569  1.8841 -0.8490  0.4861
19018TIP3   OH278468   0.619   5.010   4.091 -0.1418  0.5801  0.1148
19018TIP3    H178469   0.565   5.075   4.136  0.9728  0.9998  0.8712
19018TIP3    H278470   0.559   4.968   4.029 -1.3015  1.1101  0.8558
19019TIP3   OH278471   4.312   6.256  13.908 -0.2043 -0.1353 -0.1409
19019TIP3    H178472   4.294   6.245  14.001  0.6259 -0.0393  0.0319
19019TIP3    H278473   4.342   6.170  13.879  1.0979  0.2627  0.0331
19020TIP3   OH278474   1.365   3.978   0.700 -0.3470 -0.0053  0.3585
19020TIP3    H178475   1.324   3.950   0.618 -0.8447  3.2098 -0.5362
19020TIP3    H278476   1.301   3.958   0.768 -1.0896 -0.0923 -0.3689
19021TIP3   OH278477   2.988   1.352  10.859  0.6954  0.5144 -0.6485
19021TIP3    H178478   3.019   1.358  10.949 -1.5933 -0.2112  0.2234
19021TIP3    H278479   2.941   1.434  10.844  0.9426  0.5696 -1.1609
19022TIP3   OH278480   4.402   1.019  16.104  0.1502 -0.1502  0.0126
19022TIP3    H178481   4.461   0.943  16.097  1.1371  0.7591 -1.9323
19022TIP3    H278482   4.445   1.087  16.053 -0.3276  2.0181  2.3947
19023TIP3   OH278483   3.817   6.654  13.281 -0.1915  0.0051  0.2801
19023TIP3    H178484   3.815   6.576  13.225  0.6140  0.3202 -0.1918
19023TIP3    H278485   3.896   6.643  13.334  1.0721  1.5052 -1.2481
19024TIP3   OH278486   1.932   5.058   3.612 -0.0455  0.2129  0.5831
19024TIP3    H178487   1.873   5.076   3.539  2.5760  0.3869 -1.6016
19024TIP3    H278488   1.881   5.078   3.690 -3.8744 -2.6737 -1.0251
19025TIP3   OH278489   2.498   0.020   2.232 -0.1208 -0.5108 -0.1779
19025TIP3    H178490   2.538  -0.013   2.152 -0.5559  2.9870 -1.9287
19025TIP3    H278491   2.570   0.063   2.278 -0.6894  0.9628 -0.6506
19026TIP3   OH278492   1.693   5.336   0.236  0.1003 -0.8509 -0.2446
19026TIP3    H178493   1.702   5.274   0.308  0.3711 -1.0691 -0.4624
19026TIP3    H278494   1.772   5.389   0.239 -0.9441  0.6585  1.0299
19027TIP3   OH278495   5.013   6.261   5.730  0.2423  0.1243 -0.1833
19027TIP3    H178496   4.966   6.294   5.653 -2.5239  0.0701  1.4205
19027TIP3    H278497   4.995   6.167   5.731 -0.2320  0.2183  0.8449
19028TIP3   OH278498   0.169   4.023   1.440  0.0721  0.2748  0.7111
19028TIP3    H178499   0.157   4.067   1.524 -2.0109  0.1346  0.5147
19028TIP3    H278500   0.263   4.009   1.434  0.2243 -0.1138  3.2289
19029TIP3   OH278501   5.302   3.280   5.851  0.4713  0.1116 -0.0492
19029TIP3    H178502   5.269   3.227   5.924 -0.4846  0.8930  0.1017
19029TIP3    H278503   5.397   3.282   5.864  0.2134  1.2574  1.8962
19030TIP3   OH278504   1.783   4.952  10.802  0.1468 -0.1665 -0.0387
19030TIP3    H178505   1.733   4.886  10.755  0.6566 -0.7345  0.2049
19030TIP3    H278506   1.874   4.925  10.793  0.2337 -0.4899  1.5676
19031TIP3   OH278507   4.846   1.390   0.196  0.3877 -0.0884  0.2706
19031TIP3    H178508   4.776   1.336   0.161  0.1077 -0.0907  0.8266
19031TIP3    H278509   4.904   1.329   0.242  0.8402 -0.1086 -0.3257
19032TIP3   OH278510   3.404   2.672  15.356  0.0214 -0.5635 -0.2756
19032TIP3    H178511   3.356   2.752  15.335  0.6875  0.0130  0.3954
19032TIP3    H278512   3.375   2.648  15.444  1.0178 -0.1724  0.1600
19033TIP3   OH278513   4.754   0.180   4.263  0.1441  0.5304 -0.2050
19033TIP3    H178514   4.712   0.124   4.328  2.0333 -0.3691  0.2538
19033TIP3    H278515   4.847   0.171   4.279  0.5793  1.6456 -1.9307
19034TIP3   OH278516   0.250   0.852   0.092 -0.5661 -0.0674 -0.5061
19034TIP3    H178517   0.177   0.880   0.147 -0.5973 -2.4584  0.7211
19034TIP3    H278518   0.322   0.836   0.153  0.4501  0.5784 -1.5217
19035TIP3   OH278519   0.738   1.410   3.524  0.0589  0.8997 -0.3876
19035TIP3    H178520   0.683   1.345   3.569 -1.2579  2.7173  0.6876
19035TIP3    H278521   0.827   1.383   3.544 -0.4619 -0.4968  0.1571
19036TIP3   OH278522   1.366   6.746   1.711 -0.0456 -0.5112  0.0363
19036TIP3    H178523   1.418   6.742   1.631  0.3922 -0.8100  0.3349
19036TIP3    H278524   1.285   6.700   1.689 -0.1059 -0.2118 -0.3688
19037TIP3   OH278525   1.865   5.920  17.226  0.0098  0.1593 -0.1058
19037TIP3    H178526   1.829   5.960  17.305 -1.1467 -1.1338  0.0357
19037TIP3    H278527   1.941   5.973  17.205  0.3715  0.4761  1.9209
19038TIP3   OH278528   4.488   5.673  15.303  0.2009 -0.4944  0.0364
19038TIP3    H178529   4.569   5.667  15.353  0.3129 -2.0503 -0.2962
19038TIP3    H278530   4.511   5.642  15.215 -0.5255  0.0154 -0.3459
19039TIP3   OH278531   5.651   1.754   5.972  0.3759 -0.0274 -0.3666
19039TIP3    H178532   5.628   1.847   5.975 -1.3381 -0.4452  0.1648
19039TIP3    H278533   5.682   1.741   5.883 -0.1331  0.8965 -0.6947
19040TIP3   OH278534   5.426   5.131  14.648  0.3096 -0.0260 -0.2069
19040TIP3    H178535   5.437   5.036  14.651 -1.4947 -0.2181  2.7363
19040TIP3    H278536   5.512   5.165  14.669  0.3641 -1.0824  1.3949
19041TIP3   OH278537   4.941   4.562  15.296 -0.3731 -0.6541 -1.0974
19041TIP3    H178538   4.848   4.550  15.314 -0.2981 -0.5107 -0.6262
19041TIP3    H278539   4.980   4.475  15.307  0.4555  0.2035  3.9434
19042TIP3   OH278540   0.610   1.560   4.244  0.0055 -0.2389  0.4387
19042TIP3    H178541   0.599   1.585   4.152 -0.8133 -0.0174  0.5925
19042TIP3    H278542   0.644   1.639   4.286 -0.6942  0.0077  0.5423
19043TIP3   OH278543   3.938   1.728  14.282 -0.7806 -0.2697  0.1410
19043TIP3    H178544   4.014   1.766  14.238 -0.2087  0.7040  1.9282
19043TIP3    H278545   3.873   1.799  14.281 -0.6241 -0.1088  1.2045
19044TIP3   OH278546   2.637   2.789  11.508  0.8182 -0.1243  0.1898
19044TIP3    H178547   2.718   2.766  11.553  1.4311 -0.1243 -0.8797
19044TIP3    H278548   2.635   2.885  11.511 -0.9676 -0.2016  3.3217
19045TIP3   OH278549   2.797   1.684  12.812 -0.2282  0.0114 -0.0942
19045TIP3    H178550   2.780   1.627  12.886 -1.0300  2.2322  1.5030
19045TIP3    H278551   2.724   1.667  12.751 -0.2468 -0.9212  0.1875
19046TIP3   OH278552   2.967   2.368   5.045  0.3461 -0.0177  0.3834
19046TIP3    H178553   2.980   2.374   5.140  0.1864  2.6036  0.2871
19046TIP3    H278554   3.055   2.377   5.008  0.3064 -0.1590  0.2536
19047TIP3   OH278555   5.289   1.277  13.622 -0.0109 -0.1765 -0.0562
19047TIP3    H178556   5.275   1.184  13.607 -0.7350  0.3100 -2.6557
19047TIP3    H278557   5.212   1.305  13.671 -0.3657 -0.7305 -0.2861
19048TIP3   OH278558   4.998   0.067   1.696 -0.3070  0.1033 -0.3034
19048TIP3    H178559   5.009  -0.027   1.707  0.9829  0.3930  1.1254
19048TIP3    H278560   5.003   0.081   1.601  1.6348 -1.0418 -0.4020
19049TIP3   OH278561   0.485   6.103   3.116  0.1291  0.3487 -0.2563
19049TIP3    H178562   0.564   6.068   3.075  0.9122 -0.5262  1.9137
19049TIP3    H278563   0.500   6.197   3.123 -0.3292  0.6332 -2.5676
19050TIP3   OH278564   5.105   4.480  14.463  0.1715 -0.1056 -0.3664
19050TIP3    H178565   5.092   4.542  14.535  1.3277 -2.0787  1.6318
19050TIP3    H278566   5.017   4.462  14.430 -0.5192 -0.1316  1.4283
19051TIP3   OH278567   2.187   6.420  15.107 -0.3137 -0.5118 -0.8941
19051TIP3    H178568   2.168   6.345  15.162  1.0701 -0.1671  0.0636
19051TIP3    H278569   2.159   6.496  15.159 -3.1577 -0.3966 -2.4634
19052TIP3   OH278570   1.094   5.336   1.792 -0.5134  0.0664  0.2948
19052TIP3    H178571   1.160   5.310   1.857 -1.7959  0.1245  1.6472
19052TIP3    H278572   1.011   5.327   1.838 -1.2940  2.4392 -0.5648
19053TIP3   OH278573   0.041   0.591  13.485  0.2145  0.1748 -0.4442
19053TIP3    H178574  -0.033   0.616  13.430  0.3167 -1.0642 -1.1509
19053TIP3    H278575   0.002   0.542  13.558  0.1866  0.9329  0.0638
19054TIP3   OH278576   1.626   4.805  10.615 -0.1047 -0.1629 -0.1358
19054TIP3    H178577   1.607   4.844  10.530 -1.3755  1.9265  1.0472
19054TIP3    H278578   1.557   4.839  10.672  0.7280 -1.5288  1.7248
19055TIP3   OH278579   1.388   6.155   5.131 -0.4627  0.0878  0.1773
19055TIP3    H178580   1.381   6.247   5.159 -1.6356  0.0988 -0.1348
19055TIP3    H278581   1.298   6.129   5.113 -0.2479 -1.4347  1.2481
19056TIP3   OH278582   0.028   5.626   2.275  0.3358  0.2672  0.0644
19056TIP3    H178583   0.003   5.718   2.285 -1.7640 -0.3114  0.3070
19056TIP3    H278584   0.013   5.607   2.182 -2.1929 -0.6411  0.6173
19057TIP3   OH278585   1.148   5.010  12.088  0.2502 -0.0309  0.5232
19057TIP3    H178586   1.176   5.098  12.112 -0.0122  0.1839  0.0519
19057TIP3    H278587   1.201   4.952  12.142  0.0517  0.4349  1.2147
19058TIP3   OH278588   3.685   4.775  10.690 -0.7356 -0.2056  0.0160
19058TIP3    H178589   3.644   4.729  10.617 -2.2227 -0.0588  0.7218
19058TIP3    H278590   3.665   4.867  10.675 -4.0933 -0.4665  2.3719
19059TIP3   OH278591   5.817   6.634  14.418 -0.4651  0.1744 -0.1588
19059TIP3    H178592   5.824   6.688  14.339 -2.8754 -2.3460 -2.2234
19059TIP3    H278593   5.724   6.636  14.440 -0.4473 -2.2650  0.2859
19060TIP3   OH278594   3.253   1.717   2.225  0.8546  0.0086 -0.1879
19060TIP3    H178595   3.292   1.657   2.162  0.7027  1.3945 -1.6111
19060TIP3    H278596   3.159   1.700   2.220  1.0442 -1.6659  1.5283
19061TIP3   OH278597   2.620   5.143  12.891 -0.2965 -0.5559  0.1394
19061TIP3    H178598   2.595   5.059  12.852  0.9640 -0.9048  0.0780
19061TIP3    H278599   2.536   5.185  12.912 -0.9555 -1.2325 -1.0781
19062TIP3   OH278600   6.627   0.696  10.815  0.2490  0.0870 -0.3633
19062TIP3    H178601   6.661   0.621  10.767  1.3198  1.0959 -1.2004
19062TIP3    H278602   6.589   0.753  10.748 -0.3567  0.4166  0.2428
19063TIP3   OH278603   4.672   2.292   1.533  0.3842  0.3117  0.1417
19063TIP3    H178604   4.628   2.278   1.616 -1.1201 -1.1368 -0.8607
19063TIP3    H278605   4.632   2.372   1.497  0.7425  0.7029  0.6038
19064TIP3   OH278606   6.539   4.954   4.799  0.3455 -0.2499 -0.3558
19064TIP3    H178607   6.616   4.951   4.743  0.2976  0.7590 -0.4819
19064TIP3    H278608   6.467   4.927   4.742  0.5240 -0.7096 -0.3677
19065TIP3   OH278609   2.775   6.404   5.068  0.0868  0.0456  0.3575
19065TIP3    H178610   2.765   6.309   5.073 -0.7112  0.1422  0.6829
19065TIP3    H278611   2.715   6.431   4.999 -1.2491  0.5354  1.6871
19066TIP3   OH278612   1.389   6.237  14.895 -0.5882  0.0119  0.1244
19066TIP3    H178613   1.375   6.331  14.888 -2.8952 -0.3086  0.2128
19066TIP3    H278614   1.431   6.213  14.813  0.9998  1.2624  0.5373
19067TIP3   OH278615   5.190   3.353  16.440 -0.0521  0.1281 -0.6548
19067TIP3    H178616   5.256   3.422  16.433 -2.0299  2.0255 -1.1084
19067TIP3    H278617   5.230   3.278  16.397  1.4732  1.5275 -1.7475
19068TIP3   OH278618   6.373   6.204  16.032 -0.0786 -0.3140  0.3245
19068TIP3    H178619   6.348   6.179  15.943 -0.5683  1.4318 -0.0553
19068TIP3    H278620   6.466   6.186  16.037  0.0296 -0.0638 -0.6709
19069TIP3   OH278621   2.079   4.777  12.865  0.6386 -0.8946 -0.1038
19069TIP3    H178622   2.146   4.845  12.852  1.2747 -1.2676  1.1264
19069TIP3    H278623   1.998   4.817  12.836  0.9229  0.5793  1.1055
19070TIP3   OH278624   4.879   2.642  11.281 -0.2150 -0.2518  0.1605
19070TIP3    H178625   4.865   2.732  11.310 -2.5927 -0.3082 -0.7153
19070TIP3    H278626   4.974   2.632  11.278  0.0791  1.6538  1.9974
19071TIP3   OH278627   1.632   5.013  15.946  0.3537  0.4106 -0.1914
19071TIP3    H178628   1.642   4.919  15.931 -1.2202  0.1504  0.2231
19071TIP3    H278629   1.631   5.052  15.858 -0.3550 -0.1218 -0.4224
19072TIP3   OH278630   5.258   3.743  13.066  0.2358  0.7220  0.4188
19072TIP3    H178631   5.278   3.830  13.101 -1.6984  1.3376  0.0898
19072TIP3    H278632   5.243   3.759  12.972 -1.0752  0.2091  0.5312
19073TIP3   OH278633   6.354   2.681  12.330  0.2856 -0.2983 -0.0206
19073TIP3    H178634   6.341   2.594  12.367 -0.1360 -1.4016 -2.6239
19073TIP3    H278635   6.443   2.705  12.354  0.2733 -1.2753  1.0394
19074TIP3   OH278636   5.132   1.170  15.637  0.4668 -0.1061  0.5228
19074TIP3    H178637   5.060   1.196  15.580  0.5095 -2.4860 -0.6613
19074TIP3    H278638   5.205   1.226  15.611 -0.5514  1.3859  0.8184
19075TIP3   OH278639   5.345   3.890  13.420 -0.0326 -0.4383 -0.3438
19075TIP3    H178640   5.363   3.937  13.340 -0.8282  0.8286  0.2098
19075TIP3    H278641   5.425   3.840  13.438  0.8727  0.8313 -0.8399
19076TIP3   OH278642   6.263   0.615  13.402  0.1315  0.6922  0.0240
19076TIP3    H178643   6.167   0.616  13.406  0.1622 -0.1266  1.1579
19076TIP3    H278644   6.284   0.665  13.323 -1.3049 -1.5098 -1.8008
19077TIP3   OH278645   1.992   5.151   3.230  0.0183  0.2053 -0.0209
19077TIP3    H178646   1.971   5.066   3.270 -2.2693 -0.4587 -2.4102
19077TIP3    H278647   1.906   5.188   3.208  0.9488  3.5129  1.6412
19078TIP3   OH278648   4.199   3.838  16.448  0.3158  0.5467  0.0571
19078TIP3    H178649   4.158   3.865  16.365 -0.9951 -1.0259  0.1704
19078TIP3    H278650   4.152   3.888  16.515 -0.9128 -0.6467  0.1135
19079TIP3   OH278651   5.676   1.667   1.627  0.1077  0.6669  0.2802
19079TIP3    H178652   5.626   1.731   1.677 -2.0144 -0.7692  0.0839
19079TIP3    H278653   5.612   1.630   1.565  1.9552  0.3119 -1.4524
19080TIP3   OH278654   6.697   0.087   2.561  0.1589  0.2243  0.4946
19080TIP3    H178655   6.786   0.054   2.547  0.1952  1.0040 -1.2716
19080TIP3    H278656   6.647   0.053   2.486 -0.8911  0.2843  1.1615
19081TIP3   OH278657   3.973   0.415   2.980  0.2353  0.3666 -0.5877
19081TIP3    H178658   3.925   0.403   2.897  1.0934 -0.4171 -0.9818
19081TIP3    H278659   3.994   0.508   2.981  0.6497  0.2932 -1.4986
19082TIP3   OH278660   0.275   0.978   2.164  0.4588  0.6137 -0.5469
19082TIP3    H178661   0.310   0.905   2.215 -0.1191 -0.1791 -1.2754
19082TIP3    H278662   0.203   0.940   2.113 -1.5843  2.2465  1.0261
19083TIP3   OH278663   1.011   2.229   2.286 -0.3323  0.0312 -0.0837
19083TIP3    H178664   1.015   2.254   2.379  3.0002 -0.7151  0.0614
19083TIP3    H278665   1.064   2.150   2.281 -2.1851 -1.1098 -2.3146
19084TIP3   OH278666   5.055   2.313  13.719  0.1766  0.5664 -0.6681
19084TIP3    H178667   5.144   2.310  13.686  0.6527  0.5315  0.5896
19084TIP3    H278668   5.000   2.313  13.641  1.2601  0.0201 -1.4332
19085TIP3   OH278669   2.068   3.166  15.300  0.3792  0.2892 -0.2789
19085TIP3    H178670   2.035   3.130  15.218  1.3692  0.7925 -0.9080
19085TIP3    H278671   2.055   3.261  15.292  3.8984  0.7359 -1.4607
19086TIP3   OH278672   1.621   6.397  11.669 -0.0255 -0.0593 -0.4947
19086TIP3    H178673   1.688   6.386  11.736 -0.2788  0.2540 -0.1907
19086TIP3    H278674   1.568   6.317  11.674 -0.2086  0.0830 -0.1360
19087TIP3   OH278675   6.284   1.396  14.422 -0.3826  0.2045  0.4169
19087TIP3    H178676   6.317   1.311  14.449 -2.5141 -0.3360  1.3906
19087TIP3    H278677   6.268   1.443  14.504  0.9574  1.6322 -0.1119
19088TIP3   OH278678   2.332   5.837  13.019 -0.6397 -0.0126  0.2236
19088TIP3    H178679   2.346   5.877  12.933 -2.4964 -1.2260 -0.6819
19088TIP3    H278680   2.313   5.745  13.000 -1.1732 -0.2799  1.9341
19089TIP3   OH278681   2.817   1.317  12.783  0.1745 -0.1611  0.0816
19089TIP3    H178682   2.753   1.296  12.850 -1.5605  2.6547 -0.5956
19089TIP3    H278683   2.768   1.318  12.701  1.7278 -0.9588 -0.8942
19090TIP3   OH278684   6.163   4.731  12.156 -0.2055  0.7651 -0.5150
19090TIP3    H178685   6.120   4.786  12.222  0.5450  0.7361  0.0044
19090TIP3    H278686   6.224   4.790  12.112  0.6253  0.3599  0.0653
19091TIP3   OH278687   4.553   4.706  12.062 -0.4594 -0.2047 -0.1941
19091TIP3    H178688   4.482   4.655  12.022  0.9040 -0.7722 -1.9328
19091TIP3    H278689   4.544   4.793  12.024 -1.7407  0.4368  1.4958
19092TIP3   OH278690   1.577   0.349  12.387  0.0179 -0.2187  0.2243
19092TIP3    H178691   1.648   0.325  12.328  0.8282  0.8944  0.7353
19092TIP3    H278692   1.512   0.280  12.375  0.4661 -0.3530 -1.4609
19093TIP3   OH278693   6.197   0.137   4.495 -0.6170 -0.4204 -0.1788
19093TIP3    H178694   6.204   0.094   4.580 -1.5922 -3.0762 -1.3955
19093TIP3    H278695   6.272   0.104   4.445 -0.9246 -0.0882 -0.8650
19094TIP3   OH278696   5.456   1.793  13.160 -0.1827 -0.1168 -0.3514
19094TIP3    H178697   5.464   1.861  13.093  0.0209 -0.4260 -0.6397
19094TIP3    H278698   5.423   1.716  13.113  1.6030 -0.8537 -0.4310
19095TIP3   OH278699   1.529   2.450  12.262 -0.0326  0.3080 -0.2734
19095TIP3    H178700   1.449   2.406  12.293 -0.0280  0.9844  0.7504
19095TIP3    H278701   1.503   2.542  12.252  0.5501  0.4837 -0.1864
19096TIP3   OH278702   5.213   4.600  12.627 -0.2794 -0.6599 -0.6777
19096TIP3    H178703   5.297   4.635  12.597 -1.0334  0.4748 -1.5156
19096TIP3    H278704   5.153   4.616  12.554 -1.9637  1.3512  1.0707
19097TIP3   OH278705   6.316   3.186   2.503 -0.5078 -0.1403 -0.2795
19097TIP3    H178706   6.243   3.247   2.502 -0.6052 -0.2569 -0.2362
19097TIP3    H278707   6.387   3.234   2.545 -0.5116  0.0276 -0.4651
19098TIP3   OH278708   1.423   1.089  15.847 -0.1286  0.0575  0.0805
19098TIP3    H178709   1.440   1.075  15.940 -0.7058 -0.9398  0.0359
19098TIP3    H278710   1.339   1.135  15.844  0.5732  1.3835  0.1043
19099TIP3   OH278711   6.548   4.469   4.497  0.5878  0.3183 -0.1492
19099TIP3    H178712   6.564   4.535   4.564 -1.7883  0.5779  0.2252
19099TIP3    H278713   6.465   4.429   4.522 -0.6240  0.7614 -3.1437
19100TIP3   OH278714   1.854   3.482   0.043  0.0337 -0.1746 -0.0770
19100TIP3    H178715   1.831   3.557  -0.012 -0.3522  0.3512  0.7805
19100TIP3    H278716   1.931   3.511   0.093  0.5836 -0.7643 -0.5730
19101TIP3   OH278717   3.808   6.755  11.770 -0.2206  0.4737  0.3348
19101TIP3    H178718   3.813   6.851  11.764  0.9809  0.4051  0.3089
19101TIP3    H278719   3.899   6.726  11.772 -0.5832 -0.5848  1.9246
19102TIP3   OH278720   6.504   3.790  14.644 -0.0221  0.0617 -0.0536
19102TIP3    H178721   6.465   3.741  14.717 -0.5472  0.3347 -0.1435
19102TIP3    H278722   6.460   3.756  14.566 -0.9440  1.1843 -0.0455
19103TIP3   OH278723   5.249   0.701  10.715  0.0295  0.9431  0.1860
19103TIP3    H178724   5.343   0.705  10.736 -0.2404  2.2728  1.2238
19103TIP3    H278725   5.226   0.790  10.689 -0.4384  0.0800 -2.4648
19104TIP3   OH278726   2.008   2.699   5.551 -0.6814  0.1376  0.0788
19104TIP3    H178727   1.971   2.785   5.569 -1.8230 -0.6194  1.3590
19104TIP3    H278728   1.962   2.669   5.472 -1.6444 -0.1034  0.7255
19105TIP3   OH278729   2.532   4.560   6.000  0.3725 -0.2652  0.1708
19105TIP3    H178730   2.493   4.484   5.958 -1.0108  0.2235  0.5500
19105TIP3    H278731   2.596   4.524   6.062 -1.3171 -1.1883  1.4117
19106TIP3   OH278732   3.092   2.556  11.698  0.0988 -0.1018 -0.4312
19106TIP3    H178733   3.146   2.549  11.619  1.2586 -0.2997  0.3641
19106TIP3    H278734   3.042   2.474  11.699  1.3772 -0.9058 -0.0465
19107TIP3   OH278735   5.914   2.248  14.084  0.1189 -0.7550 -0.2655
19107TIP3    H178736   5.906   2.251  14.180 -2.7614 -1.8687 -0.4209
19107TIP3    H278737   5.984   2.311  14.064  2.4970 -2.3141  2.7307
19108TIP3   OH278738   4.026   5.295   5.404 -0.2267 -0.2364  0.5625
19108TIP3    H178739   3.975   5.215   5.419  1.0693 -1.2035 -0.0770
19108TIP3    H278740   4.039   5.332   5.491 -2.2423  0.1804  0.7074
19109TIP3   OH278741   4.561   4.286   1.623 -0.3211  0.5162  0.5683
19109TIP3    H178742   4.502   4.324   1.687 -2.4979 -0.9628 -0.5070
19109TIP3    H278743   4.543   4.333   1.542  0.3863  0.4360  0.3579
19110TIP3   OH278744   2.505   3.166   1.412  0.2508 -0.7002 -0.9278
19110TIP3    H178745   2.442   3.214   1.359 -1.6268 -1.4213  0.5946
19110TIP3    H278746   2.487   3.074   1.394 -0.0961 -0.9394  0.5766
19111TIP3   OH278747   3.558   0.585   5.445  0.3552 -0.0943  0.3970
19111TIP3    H178748   3.473   0.577   5.488 -0.5891 -0.1758 -1.4155
19111TIP3    H278749   3.553   0.526   5.370  1.4813  0.9443 -0.5309
19112TIP3   OH278750   5.493   1.975   4.958  0.0914  0.5212 -0.0857
19112TIP3    H178751   5.455   2.061   4.974  1.4419  0.7618  2.0102
19112TIP3    H278752   5.461   1.950   4.871 -3.6081  1.3216  0.9736
19113TIP3   OH278753   3.744   2.214  16.135 -0.0602 -0.0747 -0.1246
19113TIP3    H178754   3.680   2.191  16.067 -1.2918  0.2572  0.8910
19113TIP3    H278755   3.773   2.130  16.169 -0.8360 -0.2183  0.1999
19114TIP3   OH278756   1.648   5.762  14.512  0.5691  0.7119 -0.3524
19114TIP3    H178757   1.613   5.757  14.601  1.2765  0.3907 -0.0899
19114TIP3    H278758   1.578   5.803  14.461 -0.3015 -0.2031  0.1013
19115TIP3   OH278759   0.965   0.879   6.401  0.1514  0.4243 -0.1924
19115TIP3    H178760   0.941   0.968   6.376 -1.7099 -0.1374 -0.5146
19115TIP3    H278761   0.881   0.834   6.411  1.0546 -1.0957  0.6789
19116TIP3   OH278762   4.319   5.931   5.091 -0.3722 -0.2679  0.5191
19116TIP3    H178763   4.307   5.896   5.003 -1.0368  0.6533  0.2256
19116TIP3    H278764   4.408   5.966   5.091  0.0252 -1.2741  0.5765
19117TIP3   OH278765   0.497   5.539   3.537  0.4165  0.3446 -0.0593
19117TIP3    H178766   0.439   5.484   3.484 -0.5622  0.6631  0.6828
19117TIP3    H278767   0.578   5.543   3.486 -0.8579  1.5337 -2.0645
19118TIP3   OH278768   6.633   3.593  12.028  0.1745 -0.2955  0.3329
19118TIP3    H178769   6.722   3.573  12.059  0.2348 -2.5001 -1.1118
19118TIP3    H278770   6.594   3.645  12.098  2.1781 -0.3899  1.5606
19119TIP3   OH278771   3.075   0.898   2.431  0.6230  0.2538 -0.6586
19119TIP3    H178772   3.066   0.906   2.336 -2.8380 -0.4129 -0.4503
19119TIP3    H278773   3.018   0.965   2.467 -0.0577 -1.1444  0.9559
19120TIP3   OH278774   3.859   6.600   5.927  0.2164 -0.3051 -0.3118
19120TIP3    H178775   3.841   6.509   5.950  1.3204 -0.2910  0.6354
19120TIP3    H278776   3.842   6.649   6.007  0.6198  0.1897 -0.5232
19121TIP3   OH278777   1.771   5.101   2.761  0.0525  0.5131  0.1132
19121TIP3    H178778   1.771   5.055   2.845 -0.1670 -0.2947 -0.3313
19121TIP3    H278779   1.679   5.111   2.738 -0.0513  3.8585  1.6553
19122TIP3   OH278780   4.652   3.638  12.976  0.1997  0.2823 -0.4795
19122TIP3    H178781   4.715   3.702  12.944 -0.1149 -0.2356 -2.1469
19122TIP3    H278782   4.567   3.673  12.952 -0.1736  0.8214  1.4822
19123TIP3   OH278783   2.188   1.248   5.782 -0.2419  0.3482  0.4455
19123TIP3    H178784   2.262   1.265   5.724 -0.2929  3.5837  1.2128
19123TIP3    H278785   2.111   1.264   5.728 -0.3995 -1.5672  0.0631
19124TIP3   OH278786   0.746   2.197   0.678  0.4679  0.3298  0.2567
19124TIP3    H178787   0.730   2.290   0.697  0.0414  0.5802 -1.2449
19124TIP3    H278788   0.728   2.189   0.584 -2.2077 -1.8586  0.9045
19125TIP3   OH278789   0.465   4.138   1.525 -0.3514 -0.6139  0.2881
19125TIP3    H178790   0.555   4.171   1.528 -0.5978 -0.0868  3.2401
19125TIP3    H278791   0.411   4.212   1.555 -1.8685 -0.6844 -2.1434
19126TIP3   OH278792   5.513   6.778  13.785 -0.2325 -0.5774 -0.2426
19126TIP3    H178793   5.458   6.781  13.864 -3.2096  0.6344 -2.2725
19126TIP3    H278794   5.460   6.729  13.722  1.8774 -1.0414 -1.6844
19127TIP3   OH278795   3.542   4.087   5.663 -0.0663 -0.0381 -0.0695
19127TIP3    H178796   3.474   4.098   5.730  0.7110  1.7101  0.4771
19127TIP3    H278797   3.610   4.036   5.706  0.2486  0.7301  0.3597
19128TIP3   OH278798   1.114   1.621  14.335  0.3190 -0.3765 -0.1719
19128TIP3    H178799   1.090   1.590  14.247 -0.9440  0.2876 -0.0759
19128TIP3    H278800   1.083   1.553  14.394  1.0766 -0.7744 -0.2235
19129TIP3   OH278801   5.448   4.274  13.492 -0.0537  0.1614 -0.2410
19129TIP3    H178802   5.395   4.335  13.543 -0.2317 -0.3619  0.2041
19129TIP3    H278803   5.432   4.299  13.401  1.2844  1.9451 -0.0066
19130TIP3   OH278804   1.930   0.446   5.446 -0.5088  0.7644  0.4961
19130TIP3    H178805   1.848   0.399   5.458  0.7091 -2.0052 -1.4602
19130TIP3    H278806   1.989   0.382   5.406  1.8820  3.3722 -0.3422
19131TIP3   OH278807   0.908   6.131   5.677 -0.5144  0.4507  0.5672
19131TIP3    H178808   0.940   6.185   5.604  0.6643  0.8320  1.3574
19131TIP3    H278809   0.827   6.173   5.704 -2.1045 -0.9191 -1.9063
19132TIP3   OH278810   5.626   1.196  14.630  0.4925 -0.4978  0.2217
19132TIP3    H178811   5.599   1.137  14.701 -0.3270 -0.1464  0.2126
19132TIP3    H278812   5.645   1.279  14.674 -0.1086 -0.2526  0.0282
19133TIP3   OH278813   0.026   4.630  13.352 -0.4249  0.5750 -0.1445
19133TIP3    H178814  -0.008   4.615  13.440 -0.0733  0.1873 -0.0699
19133TIP3    H278815   0.120   4.642  13.364  0.1085 -2.5104 -0.7495
19134TIP3   OH278816   4.226   1.540   2.155 -0.1422  0.0736 -1.4802
19134TIP3    H178817   4.205   1.596   2.229 -3.0240 -2.5765 -0.1512
19134TIP3    H278818   4.289   1.477   2.190  0.2798  0.2312 -1.9508
19135TIP3   OH278819   5.118   2.695   2.590 -0.2839  0.6792  0.0862
19135TIP3    H178820   5.184   2.682   2.523 -0.2472  0.2598  0.2020
19135TIP3    H278821   5.162   2.674   2.672 -1.0218 -1.2345  0.0147
19136TIP3   OH278822   4.186   4.912   1.729 -0.1406  0.8034  0.5110
19136TIP3    H178823   4.256   4.937   1.668 -0.1785 -0.9571 -0.3006
19136TIP3    H278824   4.115   4.974   1.711  0.0182  0.5903 -0.9520
19137TIP3   OH278825   3.186   4.477   3.436  0.0390 -0.0131  0.2478
19137TIP3    H178826   3.229   4.412   3.380 -0.5905  0.5045 -0.8568
19137TIP3    H278827   3.093   4.461   3.424 -0.0966 -0.3061  1.6599
19138TIP3   OH278828   1.118   0.453  11.983 -0.0881  0.0139 -0.3785
19138TIP3    H178829   1.092   0.471  11.893 -0.4388 -0.0561 -0.2893
19138TIP3    H278830   1.198   0.505  11.996  0.8789 -1.2424 -1.2453
19139TIP3   OH278831   2.781   5.486   0.178  0.6328  0.6231 -0.0755
19139TIP3    H178832   2.757   5.579   0.182  1.2868  0.7875  0.0268
19139TIP3    H278833   2.847   5.482   0.109  0.6689  0.2432 -0.0177
19140TIP3   OH278834   3.005   2.253   2.721 -0.3745 -0.1844  0.4617
19140TIP3    H178835   3.007   2.187   2.652 -0.4383 -0.2175  0.4913
19140TIP3    H278836   3.094   2.285   2.726 -0.8721  1.5559 -1.3170
19141TIP3   OH278837   6.178   2.933   5.880 -0.1622 -0.1271  0.6417
19141TIP3    H178838   6.199   2.847   5.916 -0.9003 -0.0149  1.3744
19141TIP3    H278839   6.088   2.925   5.849  0.5340 -0.2645 -1.3573
19142TIP3   OH278840   2.466   3.331  17.003 -0.0278 -0.3535 -0.2221
19142TIP3    H178841   2.496   3.320  17.093 -0.6163  0.0339  0.0252
19142TIP3    H278842   2.522   3.273  16.951  0.8296  0.0189  0.2898
19143TIP3   OH278843   3.268   0.429   1.799  0.0274  0.4186 -0.0269
19143TIP3    H178844   3.192   0.409   1.743  0.0344  0.4145 -0.0350
19143TIP3    H278845   3.286   0.522   1.782  0.8272  0.0946 -1.0004
19144TIP3   OH278846   0.799   1.736  17.075  0.1748  0.1397  0.6049
19144TIP3    H178847   0.890   1.713  17.055 -0.1881 -0.0446 -0.9102
19144TIP3    H278848   0.780   1.813  17.021 -1.7546 -2.1658 -2.1865
19145TIP3   OH278849   0.879   0.252  16.261 -0.1412 -0.5136  0.1191
19145TIP3    H178850   0.937   0.178  16.240  1.1209  1.0817 -2.2332
19145TIP3    H278851   0.863   0.244  16.355 -0.2848 -3.9385 -0.1194
19146TIP3   OH278852   6.268   0.399  16.435  0.3329 -0.2844 -0.2697
19146TIP3    H178853   6.337   0.449  16.391  0.5494  0.1170  0.5173
19146TIP3    H278854   6.189   0.452  16.424  0.6562  0.4824  0.9740
19147TIP3   OH278855   5.445   0.913   3.049  0.0301  0.1851  0.2772
19147TIP3    H178856   5.433   0.902   3.143  1.3340  0.4304  0.4804
19147TIP3    H278857   5.513   0.850   3.025 -0.2988  0.1127 -0.5099
19148TIP3   OH278858   2.630   1.337   5.422  0.0826 -0.1348 -0.1994
19148TIP3    H178859   2.687   1.304   5.492  1.1762  2.8739  0.4118
19148TIP3    H278860   2.676   1.314   5.341  0.1288 -1.2896  0.1417
19149TIP3   OH278861   0.874   1.499   0.450 -0.0256  0.6211 -0.2633
19149TIP3    H178862   0.900   1.565   0.514  3.6887 -0.5054 -0.5126
19149TIP3    H278863   0.881   1.543   0.366  2.5974 -0.0870 -0.4408
19150TIP3   OH278864   4.916   4.393   5.737 -0.0455  0.0008 -0.1616
19150TIP3    H178865   4.952   4.327   5.678 -0.4781 -0.3307 -0.0594
19150TIP3    H278866   4.863   4.344   5.799 -2.5834  0.6404 -1.7176
19151TIP3   OH278867   5.817   2.679   1.632 -0.0924  0.3400  0.0206
19151TIP3    H178868   5.827   2.640   1.545 -0.6065 -1.0108  0.5457
19151TIP3    H278869   5.801   2.604   1.690 -0.8213  1.3210  1.1080
19152TIP3   OH278870   0.335   0.541   0.113  0.2656 -0.4366  0.1879
19152TIP3    H178871   0.301   0.626   0.082  1.9985  0.0054 -0.5348
19152TIP3    H278872   0.416   0.528   0.063 -0.1665 -2.6987  0.0355
19153TIP3   OH278873   2.139   3.089  16.322 -0.5765 -1.1619 -0.3247
19153TIP3    H178874   2.234   3.095  16.327 -0.7075 -0.3756  1.6294
19153TIP3    H278875   2.116   3.126  16.237  0.8892 -1.7871 -0.9982
19154TIP3   OH278876   5.434   0.520  15.153 -0.6365 -0.6692  0.0503
19154TIP3    H178877   5.472   0.454  15.210  0.4217  1.9619  2.4994
19154TIP3    H278878   5.353   0.546  15.197 -1.0650 -0.3714 -0.8966
19155TIP3   OH278879   4.762   2.437  11.618 -0.5189  0.0775 -0.1662
19155TIP3    H178880   4.786   2.529  11.625  0.8214 -0.3104  0.5779
19155TIP3    H278881   4.838   2.390  11.652 -1.4232 -1.2818  0.0153
19156TIP3   OH278882   1.177   1.965  16.882  0.2032  0.1745 -0.6542
19156TIP3    H178883   1.136   1.890  16.839  0.5062  0.2121 -1.0048
19156TIP3    H278884   1.121   1.983  16.958  0.2906 -0.5803 -0.4160
19157TIP3   OH278885   6.400   4.408  11.588 -0.0123 -0.0098 -0.0829
19157TIP3    H178886   6.349   4.466  11.644 -0.3990  0.3332 -0.7773
19157TIP3    H278887   6.339   4.339  11.563  0.0654  0.0157 -0.3438
19158TIP3   OH278888   3.026   5.830  11.846 -0.0398  0.2715  0.6484
19158TIP3    H178889   2.931   5.817  11.850 -0.0025  0.5998  3.2597
19158TIP3    H278890   3.057   5.759  11.790 -2.0198  1.3546 -1.9235
19159TIP3   OH278891   2.084   1.608  11.925 -0.2232 -0.1037  0.1589
19159TIP3    H178892   2.177   1.609  11.902 -0.2322  0.2988  0.1439
19159TIP3    H278893   2.074   1.529  11.978  0.6989  1.3292  2.5410
19160TIP3   OH278894   3.874   0.163  15.713 -0.2573 -0.1068 -0.0322
19160TIP3    H178895   3.870   0.092  15.649 -0.4043 -0.6443  0.5585
19160TIP3    H278896   3.954   0.210  15.693  1.1109 -1.9062  1.0751
19161TIP3   OH278897   0.671   0.535  14.473 -0.3554  0.3408 -0.3055
19161TIP3    H178898   0.579   0.535  14.501 -0.2702 -1.4582  0.0078
19161TIP3    H278899   0.715   0.478  14.536  0.5996 -0.4845 -1.6989
19162TIP3   OH278900   5.728   0.277   3.404  0.4768 -0.2789  0.1255
19162TIP3    H178901   5.818   0.269   3.434  0.6287  0.9073  0.0063
19162TIP3    H278902   5.721   0.367   3.371 -0.8336 -0.2552  0.4210
19163TIP3   OH278903   6.299   2.055  10.566 -0.2131 -0.2142 -0.0590
19163TIP3    H178904   6.336   1.996  10.500  0.5110  0.4934 -0.2886
19163TIP3    H278905   6.315   2.010  10.649  1.4745  0.2443 -0.1306
19164TIP3   OH278906   3.964   2.923   4.401 -0.1127 -0.3169  0.3435
19164TIP3    H178907   3.959   3.007   4.445 -1.4742 -0.4846  0.5157
19164TIP3    H278908   3.929   2.939   4.314 -0.7796 -0.8056  0.5219
19165TIP3   OH278909   0.218   1.316   3.991  0.1127  0.5075  0.0250
19165TIP3    H178910   0.298   1.273   3.959  0.0925  0.0885  0.5238
19165TIP3    H278911   0.205   1.279   4.079 -0.9402  0.1579 -0.2700
19166TIP3   OH278912   4.565   3.692  15.370 -0.2475 -0.0598 -0.0183
19166TIP3    H178913   4.506   3.643  15.428  0.1076  0.1433  0.5154
19166TIP3    H278914   4.650   3.650  15.382 -0.1376  0.0941 -0.2678
19167TIP3   OH278915   4.857   0.359   5.151 -0.2391 -0.2326  0.1732
19167TIP3    H178916   4.799   0.413   5.098  1.0326  1.8475  0.8493
19167TIP3    H278917   4.943   0.371   5.112  0.4705  0.2039  1.8434
19168TIP3   OH278918   6.690   3.510   3.144  0.2885  0.3123 -0.5273
19168TIP3    H178919   6.663   3.597   3.172  1.5626  0.4860  0.1847
19168TIP3    H278920   6.633   3.490   3.069 -1.4291  0.8750  0.6053
19169TIP3   OH278921   3.731   5.959   0.581 -0.0374  0.0029  0.0204
19169TIP3    H178922   3.683   6.023   0.528 -1.6606 -0.3225  1.0699
19169TIP3    H278923   3.670   5.887   0.593  1.2472 -1.0858  0.1393
19170TIP3   OH278924   0.036   3.139  14.212  0.2019  0.2567 -0.2601
19170TIP3    H178925   0.008   3.202  14.278 -1.2198 -0.7926  0.1739
19170TIP3    H278926   0.107   3.091  14.254  0.8798  1.1572 -0.3673
19171TIP3   OH278927   2.726   1.370  12.112 -0.1632 -0.4188 -0.1072
19171TIP3    H178928   2.752   1.429  12.183 -1.5280 -0.2904  0.2870
19171TIP3    H278929   2.779   1.291  12.127  0.3802  0.0324  0.3841
19172TIP3   OH278930   3.712   4.268  10.950  0.1281  0.1398  0.3063
19172TIP3    H178931   3.665   4.197  10.908  0.5705  0.6517 -1.0850
19172TIP3    H278932   3.643   4.327  10.981 -0.1976  0.0213 -0.1804
19173TIP3   OH278933   0.301   1.757   5.524  0.9746 -0.5506 -0.1432
19173TIP3    H178934   0.269   1.784   5.438 -0.7369  0.6140  0.8363
19173TIP3    H278935   0.290   1.662   5.525 -2.0344 -0.2665 -0.0569
19174TIP3   OH278936   2.857   5.632  13.457 -0.0507  0.0389  0.0409
19174TIP3    H178937   2.910   5.638  13.377  2.1769 -1.4265  1.3309
19174TIP3    H278938   2.895   5.698  13.516 -0.4079 -0.2256  0.5703
19175TIP3   OH278939   6.095   4.232  12.239 -0.2876  0.0317  0.0937
19175TIP3    H178940   6.168   4.238  12.300 -0.3374  0.4842  0.1109
19175TIP3    H278941   6.094   4.317  12.194  1.0448 -1.0147 -2.0336
19176TIP3   OH278942   4.744   3.772  14.728  0.7014  0.5771  0.2362
19176TIP3    H178943   4.664   3.796  14.775  0.8225  1.0028  0.2291
19176TIP3    H278944   4.760   3.845  14.668 -2.2551 -2.1633 -4.1902
19177TIP3   OH278945   0.315   1.497  16.996 -0.3297 -0.0014  0.2957
19177TIP3    H178946   0.387   1.561  16.994 -1.1607  0.9230 -2.3915
19177TIP3    H278947   0.358   1.413  17.014  1.3132  0.6629 -0.4295
19178TIP3   OH278948   4.829   2.003  15.312  0.0134  0.2149  0.5349
19178TIP3    H178949   4.816   2.097  15.301 -0.2249  0.1073 -0.1388
19178TIP3    H278950   4.793   1.964  15.232  1.8189 -0.3079 -0.0666
19179TIP3   OH278951   3.460   1.919   1.722 -0.6204 -0.3549 -0.0229
19179TIP3    H178952   3.525   1.887   1.661 -0.6383 -1.7368  0.6578
19179TIP3    H278953   3.383   1.937   1.668  0.4651  1.7831 -0.9026
19180TIP3   OH278954   0.087   3.875   4.600 -0.4492 -0.8560 -0.8140
19180TIP3    H178955   0.007   3.889   4.549 -1.1856  1.6153  0.9215
19180TIP3    H278956   0.122   3.963   4.613  1.2531 -1.7095  0.5131
19181TIP3   OH278957   1.024   0.188   1.209 -0.3390  0.0193  0.1047
19181TIP3    H178958   1.064   0.226   1.287 -0.5938  2.2705 -0.8403
19181TIP3    H278959   0.931   0.211   1.217 -0.7304 -1.4632  0.1023
19182TIP3   OH278960   6.368   5.953  11.739  0.0498  0.0822 -0.2684
19182TIP3    H178961   6.352   5.864  11.769  0.2331 -0.9301 -3.0518
19182TIP3    H278962   6.371   5.946  11.644 -0.2545  3.1208 -0.5487
19183TIP3   OH278963   4.618   5.684  16.637  0.5751 -0.3186  0.1403
19183TIP3    H178964   4.605   5.743  16.711  0.6745 -0.3430  0.1771
19183TIP3    H278965   4.532   5.676  16.597  0.5438 -0.2203  0.1910
19184TIP3   OH278966   2.778   6.223   1.558  0.0589 -0.6329  0.0807
19184TIP3    H178967   2.837   6.248   1.629  1.1965  0.8809 -1.3792
19184TIP3    H278968   2.726   6.152   1.595  1.7069 -0.9330  1.9049
19185TIP3   OH278969   5.735   5.695  15.748  0.4438  0.1815  0.2173
19185TIP3    H178970   5.721   5.700  15.842  0.8276 -2.5988  0.4624
19185TIP3    H278971   5.665   5.748  15.710 -0.4878  0.2620  2.0185
19186TIP3   OH278972   2.600   3.775  11.790  0.1961 -0.1794 -0.3864
19186TIP3    H178973   2.687   3.783  11.754  0.3260 -0.7204 -0.1987
19186TIP3    H278974   2.542   3.767  11.714  0.2966  0.2954 -0.5119
19187TIP3   OH278975   6.767   4.501   1.908 -0.2225 -0.2456  0.1585
19187TIP3    H178976   6.771   4.587   1.950  1.7812  0.3674 -1.1956
19187TIP3    H278977   6.706   4.513   1.835 -0.2033 -0.0316  0.1766
19188TIP3   OH278978   5.712   3.837  16.326  0.3276 -0.4480  0.3137
19188TIP3    H178979   5.792   3.797  16.362  0.5260  1.0102  1.5562
19188TIP3    H278980   5.744   3.896  16.258  0.2867  0.0442  0.7258
19189TIP3   OH278981   5.414   2.902  16.056 -0.0843 -0.2845 -0.0313
19189TIP3    H178982   5.381   2.875  15.971  0.3965 -1.1295  0.0476
19189TIP3    H278983   5.449   2.990  16.042  0.3774 -0.5958 -0.7900
19190TIP3   OH278984   0.959   0.376   2.110  0.0134  0.5836  0.3316
19190TIP3    H178985   0.999   0.396   2.025  1.6936 -0.3137  0.8945
19190TIP3    H278986   0.968   0.456   2.160 -0.4752  0.9414 -0.1493
19191TIP3   OH278987   5.847   4.073  14.614 -0.0010  1.0063  0.0480
19191TIP3    H178988   5.781   4.084  14.545 -1.4842  0.6236  1.3878
19191TIP3    H278989   5.920   4.129  14.586 -0.4441  0.6322 -1.9830
19192TIP3   OH278990   2.217   1.197   0.716 -0.2658 -0.1821  0.2113
19192TIP3    H178991   2.251   1.170   0.631 -3.1357 -2.3107 -0.3260
19192TIP3    H278992   2.163   1.274   0.697  0.7441  0.5890  0.4305
19193TIP3   OH278993   0.221   0.187  10.887 -0.4111  0.1108 -0.3404
19193TIP3    H178994   0.251   0.117  10.828 -0.4944 -1.7027  1.7096
19193TIP3    H278995   0.128   0.197  10.866  0.2298  1.6178 -2.6014
19194TIP3   OH278996   3.469   6.655   3.893 -0.2672  0.3168 -0.0420
19194TIP3    H178997   3.553   6.695   3.917  0.1109 -0.6270  0.1964
19194TIP3    H278998   3.417   6.658   3.973  0.3951 -1.2885  0.4587
19195TIP3   OH278999   0.521   3.811  10.808 -1.0248 -0.0507  0.4252
19195TIP3    H179000   0.507   3.808  10.903 -0.6820 -0.3631  0.4670
19195TIP3    H279001   0.578   3.887  10.795  0.5254 -1.1396  0.6770
19196TIP3   OH279002   4.646   3.277  16.736  0.1763  0.3264  0.4336
19196TIP3    H179003   4.614   3.270  16.646 -2.0505  1.0093  1.1229
19196TIP3    H279004   4.567   3.298  16.787  1.4744  0.3392  2.4800
19197TIP3   OH279005   2.569   6.538   2.503 -0.8083 -0.4326 -0.3215
19197TIP3    H179006   2.519   6.478   2.448 -0.5652 -1.6537  0.7911
19197TIP3    H279007   2.641   6.567   2.448 -0.4528 -1.8038 -0.5813
19198TIP3   OH279008   2.797   4.985   3.610 -0.3320  0.2917 -0.0434
19198TIP3    H179009   2.809   4.907   3.664 -1.9196  0.4010  0.4861
19198TIP3    H279010   2.703   4.988   3.593 -0.4827  2.7451  0.9710
19199TIP3   OH279011   6.266   3.015   2.324 -0.1262  0.2779 -0.1108
19199TIP3    H179012   6.317   3.055   2.254  1.6991 -1.2520  0.2780
19199TIP3    H279013   6.290   3.064   2.402  0.4860 -0.1816  0.0007
19200TIP3   OH279014   0.325   2.844   3.653 -0.4932  0.5884  0.5418
19200TIP3    H179015   0.416   2.847   3.624 -0.7605 -2.6047 -0.8813
19200TIP3    H279016   0.284   2.921   3.615  1.4562  1.7223  0.6872
19201TIP3   OH279017   4.363   4.398  15.100 -0.0939  0.2018 -0.0043
19201TIP3    H179018   4.400   4.394  15.188  1.4534 -2.6862 -0.7146
19201TIP3    H279019   4.282   4.348  15.105  0.3453 -0.5546 -0.3662
19202TIP3   OH279020   3.313   2.946   0.680  0.5053  0.3882  0.1946
19202TIP3    H179021   3.260   2.882   0.727  1.4601  0.4205  1.3165
19202TIP3    H279022   3.378   2.893   0.633  1.0899  0.4966  0.8650
19203TIP3   OH279023   4.243   0.081   3.765 -0.1622 -0.0077 -0.2727
19203TIP3    H179024   4.205   0.163   3.734 -0.8297 -0.5137 -0.8263
19203TIP3    H279025   4.306   0.107   3.831 -0.0829  0.9764 -0.7263
19204TIP3   OH279026   2.095   4.884  11.800 -0.2497  0.3433  0.2956
19204TIP3    H179027   2.041   4.808  11.821 -0.7579  0.8245  0.7261
19204TIP3    H279028   2.146   4.856  11.723 -1.4826  0.0685 -0.4434
19205TIP3   OH279029   3.461   1.954  16.462 -0.5836  0.0453 -0.2069
19205TIP3    H179030   3.464   1.886  16.529 -2.1306 -0.9215 -1.1000
19205TIP3    H279031   3.532   1.931  16.402 -1.4565 -1.1156 -0.8102
19206TIP3   OH279032   6.643   3.597   3.802 -0.1941 -0.5517  0.0401
19206TIP3    H179033   6.559   3.617   3.760 -0.8223 -1.4785  0.8413
19206TIP3    H279034   6.678   3.683   3.825  0.0754 -0.0340 -2.1738
19207TIP3   OH279035   1.602   5.500  15.902 -0.1196 -0.0272 -0.4981
19207TIP3    H179036   1.559   5.415  15.903  1.1587 -0.6672  1.1305
19207TIP3    H279037   1.539   5.559  15.945  0.0387 -0.6691  0.6325
19208TIP3   OH279038   0.209   4.949  12.438  0.9694 -0.5410  0.2676
19208TIP3    H179039   0.242   4.993  12.516  0.2746 -2.1236  1.4775
19208TIP3    H279040   0.166   5.018  12.388  2.7651  0.7815  0.5376
19209TIP3   OH279041   2.407   3.761   2.688 -0.2498 -0.0057 -0.1983
19209TIP3    H179042   2.495   3.774   2.722  0.1498 -0.9123 -0.8606
19209TIP3    H279043   2.350   3.809   2.748  0.5081 -0.9630  1.3113
19210TIP3   OH279044   1.797   6.095   1.560  0.6149 -0.6312 -0.4546
19210TIP3    H179045   1.767   6.074   1.648  0.1628 -3.4199 -1.1853
19210TIP3    H279046   1.722   6.071   1.504  0.8033  1.3221 -1.5851
19211TIP3   OH279047   6.300   5.060  12.277 -0.6495  0.2189 -0.0542
19211TIP3    H179048   6.381   5.099  12.244 -1.0047  3.1278  2.2814
19211TIP3    H279049   6.278   5.112  12.354 -4.1421 -1.2261  0.0203
19212TIP3   OH279050   5.676   5.126  11.866 -0.1156 -0.2744  0.2721
19212TIP3    H179051   5.661   5.041  11.824 -1.5303  0.0619  0.0792
19212TIP3    H279052   5.611   5.131  11.935 -2.3591  2.0883 -1.9091
19213TIP3   OH279053   5.390   2.634  11.668  0.2115  0.2754 -0.3572
19213TIP3    H179054   5.347   2.552  11.689 -0.5296  0.4785 -1.0188
19213TIP3    H279055   5.413   2.672  11.753 -0.7731  0.0809  0.0028
19214TIP3   OH279056   1.235   1.075   2.467 -0.0258 -0.5203  0.4138
19214TIP3    H179057   1.259   1.141   2.402 -0.0157  0.6525  1.5757
19214TIP3    H279058   1.148   1.046   2.440 -0.7083  1.1336  0.7716
19215TIP3   OH279059   1.726   6.644   0.594 -0.1955 -0.2984  0.4696
19215TIP3    H179060   1.664   6.659   0.522  1.6421  1.1735 -0.8729
19215TIP3    H279061   1.712   6.718   0.653  0.2924  0.0641  0.1386
19216TIP3   OH279062   5.770   3.111  14.952 -0.0819  0.3660  0.3746
19216TIP3    H179063   5.718   3.032  14.936  0.0104  0.2932  0.4366
19216TIP3    H279064   5.847   3.080  14.999  1.0922  0.1848 -1.6428
19217TIP3   OH279065   1.217   0.494  13.017  0.1307 -0.6153 -0.3743
19217TIP3    H179066   1.295   0.439  13.029 -0.2870 -1.1685 -0.1586
19217TIP3    H279067   1.237   0.548  12.941  1.2007  0.0735  0.3933
19218TIP3   OH279068   3.370   0.888   1.285  0.1319 -0.7142  0.0654
19218TIP3    H179069   3.287   0.850   1.257 -0.7555  0.5672  0.8983
19218TIP3    H279070   3.425   0.813   1.306 -0.3758 -1.6101 -1.7249
19219TIP3   OH279071   3.846   1.136  11.755 -0.0590 -0.0844 -0.5185
19219TIP3    H179072   3.882   1.205  11.810  1.2282  0.4269 -1.9372
19219TIP3    H279073   3.752   1.137  11.773  0.1302  1.1264  0.4897
19220TIP3   OH279074   5.629   1.933  15.903 -0.0413  0.3388 -0.3663
19220TIP3    H179075   5.538   1.906  15.897  0.3768 -1.1267 -0.3736
19220TIP3    H279076   5.633   1.990  15.979 -0.6272 -1.0266  0.7019
19221TIP3   OH279077   3.439   5.913   0.174  1.3397  0.1830 -0.3128
19221TIP3    H179078   3.388   5.979   0.127  0.0979 -0.3902  0.2247
19221TIP3    H279079   3.435   5.835   0.118  2.5181  0.4450 -0.7794
19222TIP3   OH279080   5.832   2.630  12.085 -0.1172  0.2403  0.1478
19222TIP3    H179081   5.861   2.575  12.012  0.8371  1.3529 -0.3317
19222TIP3    H279082   5.865   2.585  12.163  3.8615  1.9496 -0.4208
19223TIP3   OH279083   5.301   0.758  13.370 -0.0616  0.4296  0.8764
19223TIP3    H179084   5.268   0.820  13.305 -1.1459  0.7770  1.7499
19223TIP3    H279085   5.251   0.678  13.355 -0.6237  0.6504  1.5707
19224TIP3   OH279086   5.614   2.594  15.994 -0.1889  0.5457 -0.3683
19224TIP3    H179087   5.526   2.622  15.970 -0.2606  0.8358  0.2370
19224TIP3    H279088   5.601   2.513  16.044  0.0517 -0.9348 -2.6374
19225TIP3   OH279089   0.342   4.020   0.539 -0.3457 -0.1927 -0.1416
19225TIP3    H179090   0.359   4.111   0.514 -2.0987 -0.3797 -2.1681
19225TIP3    H279091   0.381   3.968   0.469 -3.1407 -0.8259 -1.2664
19226TIP3   OH279092   2.768   5.855  14.342 -0.0003  0.2249 -0.7118
19226TIP3    H179093   2.768   5.834  14.435  0.4480  0.5560 -0.6344
19226TIP3    H279094   2.694   5.916  14.331 -0.3365 -0.1704 -0.6581
19227TIP3   OH279095   3.212   5.119   0.947  0.3337  0.0443 -0.6874
19227TIP3    H179096   3.284   5.140   1.007  0.8716  0.2540 -1.4081
19227TIP3    H279097   3.255   5.100   0.864 -0.4336 -0.0551 -1.0613
19228TIP3   OH279098   2.497   5.461  11.010  0.0688 -0.0973 -0.0000
19228TIP3    H179099   2.579   5.411  11.014 -0.5202 -1.0936 -0.1111
19228TIP3    H279100   2.506   5.516  10.932  0.0684 -1.2546 -0.8438
19229TIP3   OH279101   6.544   1.689  16.858  0.1765 -0.1653  0.1993
19229TIP3    H179102   6.508   1.623  16.917 -0.3716 -0.3530 -0.3428
19229TIP3    H279103   6.639   1.676  16.862  0.1741  0.1022  1.3624
19230TIP3   OH279104   3.823   2.184   3.035  0.0038  0.5418  0.1590
19230TIP3    H179105   3.907   2.143   3.013 -0.7141  0.5306 -2.7834
19230TIP3    H279106   3.765   2.111   3.054 -0.6946  0.2402 -2.9396
19231TIP3   OH279107   1.084   4.366  16.162 -0.2909 -0.1459  0.7181
19231TIP3    H179108   1.054   4.442  16.212  1.0109  1.5556 -1.0226
19231TIP3    H279109   1.161   4.335  16.208  0.7639  1.2677 -0.0651
19232TIP3   OH279110   2.817   1.166  10.998  0.0459  0.1117  0.0901
19232TIP3    H179111   2.746   1.144  10.937 -1.7991 -0.4971  2.3800
19232TIP3    H279112   2.857   1.244  10.961 -2.3482  0.9359 -0.8610
19233TIP3   OH279113   6.376   6.395  14.585 -0.1969 -0.0574 -0.5857
19233TIP3    H179114   6.471   6.405  14.589 -0.4703  2.5182  0.0097
19233TIP3    H279115   6.348   6.390  14.676 -0.6417 -0.7609 -0.7582
19234TIP3   OH279116   6.464   5.008   5.212 -0.3960  0.2522  0.1664
19234TIP3    H179117   6.488   5.012   5.305  0.5619 -0.2075 -0.0596
19234TIP3    H279118   6.384   5.060   5.206  0.5854  1.9000  0.9228
19235TIP3   OH279119   2.970   6.613   2.089 -0.0714  0.7088  0.5127
19235TIP3    H179120   3.031   6.544   2.113  0.0915  0.4282 -0.6816
19235TIP3    H279121   2.999   6.642   2.003 -1.0191  1.2689  0.3702
19236TIP3   OH279122   5.242   4.769   5.994  0.2722 -0.5502  0.1424
19236TIP3    H179123   5.243   4.711   5.917 -1.9738  0.0752 -0.3696
19236TIP3    H279124   5.190   4.844   5.967  1.5968  0.8594  1.4517
19237TIP3   OH279125   0.914   5.363  14.701 -0.4973  0.1632  0.2318
19237TIP3    H179126   0.963   5.284  14.726 -0.3334  0.3353  0.4560
19237TIP3    H279127   0.834   5.329  14.661  0.5395 -0.1370 -1.6548
19238TIP3   OH279128   4.418   2.120   3.673  0.2747  0.2749 -0.0700
19238TIP3    H179129   4.372   2.037   3.658  0.1548  0.5368 -1.1402
19238TIP3    H279130   4.440   2.118   3.766 -1.0250 -0.2946  0.2302
19239TIP3   OH279131   2.400   0.160   4.018 -0.4338 -0.3488  0.1434
19239TIP3    H179132   2.481   0.162   4.069 -1.0732 -1.1362  1.2081
19239TIP3    H279133   2.417   0.095   3.949 -0.1605 -0.4989  0.3512
19240TIP3   OH279134   1.657   2.907   5.975  0.5144  0.0781  0.1695
19240TIP3    H179135   1.565   2.934   5.975  0.8946  1.4529  0.5015
19240TIP3    H279136   1.690   2.933   5.889  0.8910  0.7439  0.5031
19241TIP3   OH279137   3.140   0.517   3.654 -0.5172 -0.3689 -0.1359
19241TIP3    H179138   3.194   0.595   3.646 -1.8292  0.4401 -1.1930
19241TIP3    H279139   3.203   0.446   3.667  0.6148  1.1387  3.3772
19242TIP3   OH279140   0.140   3.559  11.299  0.4721  0.5803  0.7886
19242TIP3    H179141   0.086   3.529  11.227  2.7300 -0.9367 -0.3280
19242TIP3    H279142   0.187   3.634  11.264 -0.1884  1.3151  1.4564
19243TIP3   OH279143   3.531   1.701  15.095  0.0354  0.1266 -0.1934
19243TIP3    H179144   3.613   1.661  15.124 -0.0099 -0.3331 -0.6866
19243TIP3    H279145   3.463   1.640  15.124  0.0285 -0.6346 -1.7369
19244TIP3   OH279146   6.603   2.665  16.714 -0.7041  0.4395  0.0060
19244TIP3    H179147   6.597   2.653  16.809 -1.2032 -1.7188 -0.2753
19244TIP3    H279148   6.663   2.596  16.685 -2.1218 -0.1956 -1.4871
19245TIP3   OH279149   3.814   2.598   4.612 -0.5028  0.3121  0.1844
19245TIP3    H179150   3.807   2.665   4.544 -0.8555  0.4824  0.3841
19245TIP3    H279151   3.755   2.528   4.583  0.8642 -0.5077 -0.6933
19246TIP3   OH279152   0.161   1.494   4.794  0.1173  0.8037 -0.0002
19246TIP3    H179153   0.174   1.557   4.864 -0.7291  1.1658 -0.1596
19246TIP3    H279154   0.099   1.430   4.830 -0.4637  1.0948 -0.4794
19247TIP3   OH279155   5.536   6.618   6.487  0.1407  0.1572 -0.2748
19247TIP3    H179156   5.608   6.637   6.426  0.3110 -1.2709 -0.5199
19247TIP3    H279157   5.570   6.645   6.572  0.6228  0.3682 -0.5268
19248TIP3   OH279158   3.632   2.543   6.165 -0.3865  0.5285 -0.9744
19248TIP3    H179159   3.604   2.613   6.224 -0.9084 -1.6124  1.3791
19248TIP3    H279160   3.679   2.481   6.221 -0.1918 -1.1655 -2.9494
19249TIP3   OH279161   5.287   4.745   0.814  0.0741 -0.0758 -0.5417
19249TIP3    H179162   5.352   4.678   0.838 -0.8387 -0.7876 -0.0417
19249TIP3    H279163   5.330   4.828   0.836  1.0138 -0.5125 -0.6780
19250TIP3   OH279164   1.987   2.017  13.129  0.2006  0.5360  0.3740
19250TIP3    H179165   1.939   2.094  13.099  1.2590  1.0800  0.0353
19250TIP3    H279166   1.948   1.996  13.214 -0.5439  1.0395  0.1622
19251TIP3   OH279167   0.355   1.651  14.987 -0.1856  0.8641 -0.1532
19251TIP3    H179168   0.259   1.655  14.978  0.0454  2.1263 -2.8197
19251TIP3    H279169   0.377   1.560  14.967 -0.8969  0.3636  1.3233
19252TIP3   OH279170   0.847   4.160  11.730  0.0232 -0.5214 -0.0333
19252TIP3    H179171   0.826   4.236  11.784  0.6170 -1.0280  0.9080
19252TIP3    H279172   0.845   4.086  11.790  3.7565 -0.7114 -0.0222
19253TIP3   OH279173   5.726   1.620   2.588  0.4904  0.5891  0.1415
19253TIP3    H179174   5.741   1.526   2.572 -1.2720  0.3766 -0.3143
19253TIP3    H279175   5.635   1.634   2.565  0.6438  2.3637  0.5639
19254TIP3   OH279176   0.226   3.014  13.590 -0.0915 -0.0012  0.0572
19254TIP3    H179177   0.202   2.933  13.546  1.7723 -0.9469  0.6964
19254TIP3    H279178   0.206   2.998  13.682 -1.6973  1.0640 -0.0939
19255TIP3   OH279179   1.210   4.432   3.368  0.2694  0.2124  0.1508
19255TIP3    H179180   1.276   4.380   3.322  0.9320  1.8003 -0.7670
19255TIP3    H279181   1.251   4.518   3.379 -1.1915  0.8610  0.6619
19256TIP3   OH279182   6.464   2.843  16.503  0.6729 -0.0944 -0.2047
19256TIP3    H179183   6.383   2.853  16.454  0.1804  0.1335  0.6397
19256TIP3    H279184   6.534   2.851  16.438  0.0566  1.0950 -0.7335
19257TIP3   OH279185   3.315   5.698  12.768  0.0742  0.0142 -0.2314
19257TIP3    H179186   3.268   5.739  12.694 -2.7849  1.9206  2.4958
19257TIP3    H279187   3.359   5.771  12.811  0.2523 -0.8137  0.9866
19258TIP3   OH279188   5.269   1.462   2.744  0.1419 -0.5059  0.2266
19258TIP3    H179189   5.181   1.488   2.719  1.0945  1.5671 -1.1030
19258TIP3    H279190   5.256   1.389   2.804 -2.4615 -0.3841 -0.1289
19259TIP3   OH279191   6.540   2.183   1.172  0.0046 -0.2216 -0.3620
19259TIP3    H179192   6.575   2.122   1.107 -0.4080 -0.5038 -0.3192
19259TIP3    H279193   6.445   2.177   1.161 -0.1508 -1.6554  1.5131
19260TIP3   OH279194   1.469   3.640   6.334  0.2005 -0.6738 -0.1535
19260TIP3    H179195   1.445   3.584   6.408  1.0536 -0.6824  0.1145
19260TIP3    H279196   1.394   3.634   6.275 -1.3181  0.8121  1.5496
19261TIP3   OH279197   0.309   4.158  14.943 -0.1167  0.3821 -0.5026
19261TIP3    H179198   0.260   4.090  14.896  2.0584 -2.0639  0.5956
19261TIP3    H279199   0.383   4.111  14.981  0.5473  3.1136  1.7252
19262TIP3   OH279200   5.070   5.460   0.745 -0.2307  0.3879 -0.2632
19262TIP3    H179201   5.036   5.378   0.780  1.8621 -0.7671 -0.8803
19262TIP3    H279202   5.091   5.441   0.654  0.6608  1.4829 -0.2987
19263TIP3   OH279203   0.325   2.510  13.496  0.3484 -0.0987  0.1279
19263TIP3    H179204   0.392   2.475  13.554 -0.1672 -0.0780  0.7382
19263TIP3    H279205   0.312   2.442  13.430 -0.5258 -0.9786  1.2078
19264TIP3   OH279206   2.197   4.367   6.479 -0.6400  0.2658  0.4110
19264TIP3    H179207   2.202   4.315   6.399  0.5768  0.3114  0.4430
19264TIP3    H279208   2.106   4.359   6.508 -1.1564  0.4872 -1.1304
19265TIP3   OH279209   2.885   5.081   6.125  0.5018 -0.6434 -0.0355
19265TIP3    H179210   2.948   5.143   6.163 -0.0623 -0.8491  1.2708
19265TIP3    H279211   2.815   5.075   6.190 -0.2732 -1.3607 -0.9187
19266TIP3   OH279212   6.714   6.654  16.184 -0.0684 -0.3250 -0.5562
19266TIP3    H179213   6.663   6.666  16.103  2.4988  0.9357 -2.0311
19266TIP3    H279214   6.651   6.671  16.254 -1.9446  0.2236 -2.3138
19267TIP3   OH279215   0.317   1.381  15.166 -0.1144 -0.1216  0.7074
19267TIP3    H179216   0.262   1.378  15.244 -2.0143  0.4896 -0.5665
19267TIP3    H279217   0.403   1.408  15.198 -1.7149  3.5935  2.1629
19268TIP3   OH279218   1.869   5.461  12.163 -0.2441 -0.0744 -0.4127
19268TIP3    H179219   1.820   5.542  12.178 -0.0173  0.1415 -0.8289
19268TIP3    H279220   1.946   5.488  12.113  0.3672 -0.3975  0.3364
19269TIP3   OH279221   2.732   0.166  15.278 -0.0105  0.4624  0.1543
19269TIP3    H179222   2.688   0.146  15.361  1.2941 -1.0982  0.5020
19269TIP3    H279223   2.817   0.201  15.305  0.0010  0.9430 -0.5206
19270TIP3   OH279224   0.855   5.010   0.548  0.0282 -0.3477  0.5659
19270TIP3    H179225   0.850   4.921   0.584 -0.7356 -0.3568  0.4392
19270TIP3    H279226   0.832   4.999   0.456 -0.2194  0.0003  0.5868
19271TIP3   OH279227   0.702   5.454  12.823  0.5396  0.5945 -0.2751
19271TIP3    H179228   0.652   5.517  12.772 -3.2245 -2.3843 -0.4727
19271TIP3    H279229   0.680   5.473  12.914  0.6736  0.5980 -0.2425
19272TIP3   OH279230   6.638   6.083   5.217 -0.1105 -0.2994  0.2963
19272TIP3    H179231   6.710   6.139   5.243 -0.0469  0.4324 -1.3530
19272TIP3    H279232   6.600   6.127   5.140 -1.9537 -0.9500  0.7980
19273TIP3   OH279233   0.749   0.760   6.483  0.4457 -0.1067  0.7261
19273TIP3    H179234   0.757   0.670   6.515 -1.9046 -0.0385  1.6430
19273TIP3    H279235   0.764   0.815   6.561 -0.9779  0.1930  0.7991
19274TIP3   OH279236   2.514   4.600   4.579 -0.0601 -0.3134 -0.0703
19274TIP3    H179237   2.594   4.561   4.544 -1.0752 -1.5345 -1.1324
19274TIP3    H279238   2.494   4.672   4.519  0.0405 -0.2402 -0.0158
19275TIP3   OH279239   2.805   5.670  13.807  0.5153 -0.5095  0.3263
19275TIP3    H179240   2.872   5.729  13.772  0.5942 -1.7035 -1.6555
19275TIP3    H279241   2.729   5.727  13.821  1.0543  0.3421 -0.1117
19276TIP3   OH279242   1.696   6.364  13.243  0.2189  0.1734 -0.2454
19276TIP3    H179243   1.610   6.377  13.282  1.9078  4.3474  2.3985
19276TIP3    H279244   1.721   6.275  13.267 -2.1639 -0.1009  1.3274
19277TIP3   OH279245   1.631   0.768  13.069 -0.5806 -0.0311  0.1533
19277TIP3    H179246   1.583   0.721  13.136  1.3715 -1.0809  0.8521
19277TIP3    H279247   1.610   0.722  12.987 -2.2152  0.6722  0.1723
19278TIP3   OH279248   4.594   3.988  14.123  0.2523  0.1671  0.9364
19278TIP3    H179249   4.657   4.012  14.055  2.0206 -0.5694  2.2813
19278TIP3    H279250   4.549   3.911  14.088  1.6855 -0.6751  0.8839
19279TIP3   OH279251   3.566   4.520   1.561  0.0921  0.4438 -0.2690
19279TIP3    H179252   3.644   4.538   1.508  0.4125 -0.7941 -0.2408
19279TIP3    H279253   3.493   4.536   1.502  0.3818  1.2601 -0.4065
19280TIP3   OH279254   4.998   2.662   3.243 -0.0350 -0.2912 -0.1897
19280TIP3    H179255   5.016   2.648   3.150  0.9672 -0.1157 -0.0287
19280TIP3    H279256   5.074   2.624   3.288 -1.6442 -2.6048  0.6914
19281TIP3   OH279257   1.285   2.711  16.655  0.2944 -0.1053 -0.7507
19281TIP3    H179258   1.215   2.775  16.654  0.1429 -0.1835  1.8430
19281TIP3    H279259   1.309   2.702  16.748  1.7668 -2.1928 -1.2783
19282TIP3   OH279260   1.425   2.897   3.437 -0.0205 -0.3351  0.0608
19282TIP3    H179261   1.416   2.978   3.486 -0.7283 -1.5996  2.1032
19282TIP3    H279262   1.503   2.855   3.473  0.0663 -0.7868 -0.6308
19283TIP3   OH279263   2.992   1.778   2.180 -0.0723  0.1664 -0.2217
19283TIP3    H179264   2.949   1.772   2.266  0.6885  2.6023  0.3659
19283TIP3    H279265   2.920   1.775   2.117 -0.7294 -0.5537  0.5634
19284TIP3   OH279266   3.392   5.864   1.047 -0.2853 -0.2247 -0.2207
19284TIP3    H179267   3.486   5.862   1.030 -0.2340  3.0204 -0.7531
19284TIP3    H279268   3.353   5.810   0.979  1.2194 -1.9967  0.2964
19285TIP3   OH279269   5.650   5.236   1.615 -0.4826  0.3928  0.0820
19285TIP3    H179270   5.578   5.261   1.673 -1.2685  1.3260 -1.2431
19285TIP3    H279271   5.607   5.218   1.531  0.5597 -1.4923 -0.0636
19286TIP3   OH279272   4.468   0.513  14.682 -0.3001  0.0798 -0.6867
19286TIP3    H179273   4.458   0.587  14.741  1.0016 -0.1806 -0.1273
19286TIP3    H279274   4.455   0.436  14.738 -0.6064 -0.1470 -1.0604
19287TIP3   OH279275   4.639   3.983   2.221 -0.2475 -1.0163 -0.1864
19287TIP3    H179276   4.645   3.892   2.251 -2.9997 -1.4290 -0.7940
19287TIP3    H279277   4.620   3.976   2.127  0.0690  0.2153 -0.3538
19288TIP3   OH279278   3.177   0.353  12.838  0.6345 -0.0334  0.0076
19288TIP3    H179279   3.139   0.343  12.751  0.5510 -0.4436  0.0915
19288TIP3    H279280   3.235   0.277  12.849 -0.5961 -0.8508  0.9564
19289TIP3   OH279281   1.197   3.925  12.097 -0.2691  0.4528  0.8176
19289TIP3    H179282   1.207   3.984  12.172  1.9778  2.7494 -1.1903
19289TIP3    H279283   1.260   3.855  12.115 -1.3069 -0.1675  2.1156
19290TIP3   OH279284   6.012   0.605   0.273 -0.6807 -0.6496 -0.2440
19290TIP3    H179285   6.039   0.514   0.285  1.1625 -0.0672  0.1640
19290TIP3    H279286   6.015   0.618   0.178  1.3291 -0.3592 -0.1567
19291TIP3   OH279287   3.347   4.021  11.417 -0.4259 -0.5471 -0.0644
19291TIP3    H179288   3.303   4.104  11.435  1.5919  0.2981  1.2731
19291TIP3    H279289   3.312   3.992  11.334 -1.0827  1.7365 -0.6256
19292TIP3   OH279290   3.139   2.467  15.897  0.4275  0.4424  0.0137
19292TIP3    H179291   3.219   2.431  15.859 -0.1547  0.3383 -1.1633
19292TIP3    H279292   3.147   2.451  15.991  1.5774  0.0301 -0.1487
19293TIP3   OH279293   5.482   4.944   0.792 -0.5521 -0.3734  0.3325
19293TIP3    H179294   5.540   4.948   0.716  0.0645 -0.0438  0.8179
19293TIP3    H279295   5.508   4.865   0.839 -1.3003 -0.8780 -0.0865
19294TIP3   OH279296   1.279   5.365  15.717  0.2837 -0.1490  0.1905
19294TIP3    H179297   1.258   5.309  15.792 -0.3372 -0.2715 -0.0780
19294TIP3    H279298   1.321   5.307  15.654 -1.0213 -0.4821 -0.3945
19295TIP3   OH279299   4.818   2.085   0.751 -0.4579  0.1415  0.5113
19295TIP3    H179300   4.870   2.007   0.770  1.1190  0.8927 -0.6183
19295TIP3    H279301   4.847   2.150   0.815 -0.9666  0.1664  0.7240
19296TIP3   OH279302   1.292   4.991  16.998  0.3123 -0.3371  0.9351
19296TIP3    H179303   1.272   5.064  16.939 -1.6216 -0.5356  1.3220
19296TIP3    H279304   1.387   4.993  17.006  0.5641  0.0559 -1.7188
19297TIP3   OH279305   5.669   2.393  16.557 -0.2324 -0.1148  0.1169
19297TIP3    H179306   5.754   2.357  16.532  0.2375  0.0957  1.4070
19297TIP3    H279307   5.614   2.380  16.479  0.6692 -1.2196 -0.3468
19298TIP3   OH279308   5.731   5.587  16.001  0.2945  0.3276 -0.5124
19298TIP3    H179309   5.727   5.538  16.083 -1.6788  1.9882  0.4350
19298TIP3    H279310   5.814   5.634  16.005  0.1812  0.4421  0.5605
19299TIP3   OH279311   2.087   3.451   0.218 -0.3335  0.3298 -0.0249
19299TIP3    H179312   2.029   3.467   0.292 -0.8880 -3.8258  0.5701
19299TIP3    H279313   2.171   3.489   0.245 -0.9882  0.3945  2.0097
19300TIP3   OH279314   2.198   0.977   3.670  0.0743 -0.2799 -0.9845
19300TIP3    H179315   2.193   0.881   3.671  1.1227 -0.3408 -0.9143
19300TIP3    H279316   2.269   0.997   3.610  0.0567  0.4445 -0.7717
19301TIP3   OH279317   2.202   1.243  14.377  0.4594 -0.6671 -0.5250
19301TIP3    H179318   2.271   1.189  14.339  1.3130 -0.9179  1.3475
19301TIP3    H279319   2.196   1.214  14.468 -0.6009  0.8739 -0.0904
19302TIP3   OH279320   6.656   3.841  14.857 -0.1329  0.1289 -0.1815
19302TIP3    H179321   6.608   3.919  14.831  1.9199  1.3505 -0.3802
19302TIP3    H279322   6.686   3.803  14.774 -3.1065 -2.2273 -0.2680
19303TIP3   OH279323   4.844   1.066  12.721  0.1108  0.3400  0.5931
19303TIP3    H179324   4.768   1.120  12.699 -0.7140 -0.7527  0.7258
19303TIP3    H279325   4.918   1.126  12.717 -0.8450  1.5790  1.1626
19304TIP3   OH279326   2.307   1.457   4.657 -0.0951  0.2495  0.2639
19304TIP3    H179327   2.305   1.489   4.747  0.0572 -0.8923  0.6839
19304TIP3    H279328   2.380   1.394   4.655 -0.8973 -0.6837 -0.3195
19305TIP3   OH279329   3.941   2.560   1.120  0.0942 -0.0818 -0.0293
19305TIP3    H179330   3.927   2.542   1.027 -0.4646  0.7909 -0.1156
19305TIP3    H279331   3.915   2.479   1.164 -1.0974  0.0248 -0.5221
19306TIP3   OH279332   2.531   6.031  15.758  0.3096 -0.3653 -0.4435
19306TIP3    H179333   2.456   5.985  15.720  0.3811 -1.8375  1.1024
19306TIP3    H279334   2.603   5.969  15.751  1.8297  1.5879 -3.2799
19307TIP3   OH279335   3.852   3.631   3.451  0.2098  0.2401 -0.4432
19307TIP3    H179336   3.919   3.610   3.386  1.8438  1.0005  0.9401
19307TIP3    H279337   3.887   3.597   3.533 -2.5370 -2.0801 -0.1774
19308TIP3   OH279338   4.986   1.988  12.781  0.4822  0.4300 -0.0635
19308TIP3    H179339   5.081   1.983  12.776  0.4417  1.3359 -2.0518
19308TIP3    H279340   4.958   2.015  12.694 -1.3207  3.9737  1.4822
19309TIP3   OH279341   1.122   0.460  13.665  0.7097  0.0006 -0.4704
19309TIP3    H179342   1.040   0.426  13.630  1.1304 -0.9876 -0.5023
19309TIP3    H279343   1.113   0.451  13.760  1.0411 -0.7333 -0.5018
19310TIP3   OH279344   0.938   4.850  12.834  0.3843 -0.0658 -0.2724
19310TIP3    H179345   0.958   4.935  12.795  1.7132 -0.3490 -0.2315
19310TIP3    H279346   0.895   4.800  12.764 -0.7986  0.7877 -0.1592
19311TIP3   OH279347   2.021   5.696  15.151 -0.1382 -0.0985  0.1397
19311TIP3    H179348   2.051   5.728  15.066 -0.4565  2.0989  0.8168
19311TIP3    H279349   2.100   5.690  15.204 -0.3610  2.3484  0.8534
19312TIP3   OH279350   2.561   0.721   5.294  0.0174  0.0187 -1.0815
19312TIP3    H179351   2.508   0.670   5.233  0.3590 -1.0153 -0.5364
19312TIP3    H279352   2.570   0.806   5.253 -0.5108 -0.3822 -2.0493
19313TIP3   OH279353   3.725   3.745   1.580  0.3579  0.0578 -0.3854
19313TIP3    H179354   3.749   3.828   1.538 -1.1197  1.0979  0.7690
19313TIP3    H279355   3.673   3.771   1.656 -0.2052 -1.9377 -0.0605
19314TIP3   OH279356   3.340   0.331   3.985 -0.4451 -0.2067 -0.3266
19314TIP3    H179357   3.338   0.337   3.890  0.7424 -0.6939 -0.3849
19314TIP3    H279358   3.249   0.313   4.010 -0.6042 -0.9187 -1.4155
19315TIP3   OH279359   6.099   4.782   5.462 -0.1098  0.5106 -0.0264
19315TIP3    H179360   6.118   4.688   5.462 -2.0474  0.1013 -0.2465
19315TIP3    H279361   6.068   4.800   5.551 -0.3452  0.8190 -0.1703
19316TIP3   OH279362   1.630   5.580   4.706  0.5061  0.2825  0.0814
19316TIP3    H179363   1.614   5.673   4.690 -1.5389  0.1730  1.2763
19316TIP3    H279364   1.612   5.537   4.623 -0.0435  0.7930 -0.0618
19317TIP3   OH279365   2.442   4.967  14.423  0.1929 -0.1852 -0.1031
19317TIP3    H179366   2.387   5.017  14.484  0.2200 -0.2255 -0.0457
19317TIP3    H279367   2.510   4.929  14.478 -1.0323 -2.0051  0.2051
19318TIP3   OH279368   6.633   0.309   2.238 -0.4384 -0.0323  0.1098
19318TIP3    H179369   6.597   0.320   2.326 -2.0412 -0.1506 -0.5120
19318TIP3    H279370   6.695   0.237   2.246  0.9574  1.2664  1.5670
19319TIP3   OH279371   4.785   5.192  13.301  0.5570 -0.4527  0.2545
19319TIP3    H179372   4.754   5.105  13.326  3.5983 -2.0817 -1.2959
19319TIP3    H279373   4.717   5.225  13.242  0.6780 -3.0341 -1.4290
19320TIP3   OH279374   0.035   5.459  16.994  0.3311  0.4933  0.0719
19320TIP3    H179375   0.099   5.405  16.947  0.1873  1.1973 -0.9349
19320TIP3    H279376  -0.041   5.462  16.936 -0.3293  0.3306  0.9120
19321TIP3   OH279377   1.202   5.839  12.301 -0.2082 -0.4048  0.2148
19321TIP3    H179378   1.154   5.872  12.377  0.2819  1.2240 -0.1532
19321TIP3    H279379   1.267   5.779  12.338 -1.0403 -0.8871  0.9138
19322TIP3   OH279380   3.470   3.260   4.056  0.7085 -0.3627  0.0466
19322TIP3    H179381   3.464   3.326   4.125 -0.1680  1.4888 -1.7835
19322TIP3    H279382   3.562   3.260   4.030  1.1773 -1.5037  1.5797
19323TIP3   OH279383   2.922   2.858   5.696  0.0004  0.3174  0.3565
19323TIP3    H179384   2.922   2.953   5.710  1.0119  0.0541  2.3316
19323TIP3    H279385   3.008   2.840   5.659 -0.1225  0.1406  0.1564
19324TIP3   OH279386   0.175   5.119  12.698  0.2670 -0.4408 -0.3307
19324TIP3    H179387   0.268   5.143  12.700 -0.0181  0.7515 -1.4182
19324TIP3    H279388   0.152   5.106  12.791  1.5363 -0.8566 -0.0627
19325TIP3   OH279389   1.485   5.800  16.712 -0.4212  0.3349  0.1224
19325TIP3    H179390   1.537   5.785  16.791 -2.2425 -2.2129  0.8628
19325TIP3    H279391   1.495   5.721  16.661 -0.1984  1.5112 -1.6991
19326TIP3   OH279392   2.113   3.510   5.307  0.1386 -0.2482 -0.6759
19326TIP3    H179393   2.064   3.545   5.233  1.5101  0.9575 -1.0308
19326TIP3    H279394   2.046   3.474   5.365 -1.0911  0.5162 -1.5956
19327TIP3   OH279395   2.379   4.171  15.246  0.7536  0.4322  0.3821
19327TIP3    H179396   2.299   4.138  15.285 -0.7768  1.2642 -1.9778
19327TIP3    H279397   2.437   4.094  15.241 -0.3241 -0.4306  0.9986
19328TIP3   OH279398   6.709   5.913  14.800 -0.1876 -0.5570  0.1003
19328TIP3    H179399   6.710   6.003  14.832  1.5619 -1.1018  1.7081
19328TIP3    H279400   6.726   5.920  14.707 -0.8907  0.8178  0.0602
19329TIP3   OH279401   1.073   3.173   4.262 -0.0780  0.5124  0.5964
19329TIP3    H179402   1.100   3.135   4.346 -0.3185 -0.8546  0.0649
19329TIP3    H279403   1.121   3.124   4.196 -0.9371  0.6390 -0.1453
19330TIP3   OH279404   6.126   1.420  13.781  0.3286  0.0403  0.0250
19330TIP3    H179405   6.181   1.367  13.722 -1.5560 -0.1874 -1.5590
19330TIP3    H279406   6.105   1.361  13.854 -1.2786 -1.2516 -1.4476
19331TIP3   OH279407   3.377   0.000  10.571  0.6935 -0.6227  0.2295
19331TIP3    H179408   3.336  -0.006  10.485  2.9200 -2.0244 -0.7556
19331TIP3    H279409   3.468   0.021  10.554  0.7409  1.1133  2.3522
19332TIP3   OH279410   2.835   0.531  16.235  0.6473 -0.3160 -0.2302
19332TIP3    H179411   2.857   0.454  16.287  1.4496 -0.2913 -0.5220
19332TIP3    H279412   2.841   0.604  16.296 -3.2773 -0.8008  0.8436
19333TIP3   OH279413   4.216   3.369   0.144 -0.5289 -0.0329 -0.2499
19333TIP3    H179414   4.214   3.414   0.228  0.2775 -0.7620  0.1692
19333TIP3    H279415   4.125   3.341   0.129 -0.2348 -2.1336  1.6111
19334TIP3   OH279416   3.625   0.669   0.068 -0.0401  0.3826  0.1478
19334TIP3    H179417   3.685   0.624   0.009 -0.6511 -0.5738  0.2619
19334TIP3    H279418   3.559   0.604   0.091 -0.3496  1.0267  1.1249
19335TIP3   OH279419   1.455   5.077  13.977 -0.1614 -0.2547 -0.2609
19335TIP3    H179420   1.489   5.149  14.031  1.9765  2.0358 -4.3301
19335TIP3    H279421   1.487   4.998  14.020 -0.7756  1.2628  3.1921
19336TIP3   OH279422   0.484   0.925   1.801  0.5758 -0.4269 -0.7912
19336TIP3    H179423   0.496   0.981   1.878  0.6285  0.3526 -1.3654
19336TIP3    H279424   0.563   0.936   1.750 -1.0599  2.0760 -2.8809
19337TIP3   OH279425   5.761   6.094   0.125 -0.0526 -0.7575  0.3668
19337TIP3    H179426   5.816   6.050   0.190 -0.3262 -1.2279  0.2833
19337TIP3    H279427   5.752   6.183   0.158  0.5601 -0.7437  0.5069
19338TIP3   OH279428   4.651   6.016  12.904 -0.1466 -0.6449 -0.4134
19338TIP3    H179429   4.578   6.076  12.919  0.0442 -0.8889  1.6398
19338TIP3    H279430   4.610   5.930  12.900 -0.0330 -0.7434  0.3815
19339TIP3   OH279431   3.491   0.664   3.019  0.0985 -0.2352 -0.0311
19339TIP3    H179432   3.430   0.597   2.989  0.3276 -0.2468 -0.4690
19339TIP3    H279433   3.462   0.685   3.108 -1.4784  0.8536 -0.7754
19340TIP3   OH279434   1.096   3.104   4.758  0.3548 -0.7899  0.4053
19340TIP3    H179435   1.045   3.107   4.678  0.6341  2.9101  0.2833
19340TIP3    H279436   1.039   3.061   4.822 -1.5313  0.1054 -0.6535
19341TIP3   OH279437   5.968   4.421  11.683 -0.5521 -0.1535 -0.2973
19341TIP3    H179438   6.056   4.384  11.672 -0.7804 -0.0636 -2.5717
19341TIP3    H279439   5.971   4.463  11.769  1.1327 -1.5103  0.3548
19342TIP3   OH279440   4.336   1.323   1.210 -0.5233 -0.3745 -0.0442
19342TIP3    H179441   4.374   1.253   1.157  1.9328  0.8158  0.0860
19342TIP3    H279442   4.410   1.378   1.233 -2.0744  0.9644  1.8538
19343TIP3   OH279443   3.137   2.965   4.454 -0.0850 -0.0615 -0.0907
19343TIP3    H179444   3.050   2.975   4.495 -0.3824  0.5326 -0.8669
19343TIP3    H279445   3.142   2.872   4.432 -0.8011  0.0365 -0.6668
19344TIP3   OH279446   4.582   6.220   4.783 -0.0323 -0.1198 -0.3662
19344TIP3    H179447   4.545   6.173   4.857  0.0684 -2.1616 -1.5849
19344TIP3    H279448   4.646   6.280   4.822  0.8310 -1.9528  1.1003
19345TIP3   OH279449   0.599   2.341  13.356 -0.7327  0.0497 -0.1502
19345TIP3    H179450   0.613   2.435  13.365  0.4622  0.0615 -1.7958
19345TIP3    H279451   0.636   2.320  13.271 -2.3854 -1.6530 -0.4908
19346TIP3   OH279452   2.900   6.783  16.179 -0.4452  0.5319  0.1141
19346TIP3    H179453   2.871   6.699  16.216 -0.5403  0.3421 -0.3925
19346TIP3    H279454   2.822   6.838  16.182 -0.4769  0.4873  0.1101
19347TIP3   OH279455   2.294   5.615   2.477  0.5466 -0.2314  0.4433
19347TIP3    H179456   2.247   5.604   2.559 -1.7029  1.8402 -0.5126
19347TIP3    H279457   2.375   5.659   2.501  0.8076 -1.3931  1.7583
19348TIP3   OH279458   2.590   1.097   5.884 -0.0178  0.1270 -0.3707
19348TIP3    H179459   2.678   1.134   5.879  0.0511  0.0759  0.5450
19348TIP3    H279460   2.589   1.044   5.964 -0.6246 -0.5387 -0.8047
19349TIP3   OH279461   1.897   3.225   4.168  0.1546 -0.3433  0.0026
19349TIP3    H179462   1.953   3.225   4.246 -1.4512  2.4381  1.2268
19349TIP3    H279463   1.811   3.200   4.201 -0.5205  0.7981 -0.8696
19350TIP3   OH279464   4.660   0.245  12.474 -0.0756 -0.2678  0.0544
19350TIP3    H179465   4.631   0.311  12.411  0.3016  0.2273  0.3971
19350TIP3    H279466   4.726   0.195  12.427  1.0159  0.8124  0.4244
19351TIP3   OH279467   6.496   6.772  17.059  0.4191 -0.5733 -0.2978
19351TIP3    H179468   6.474   6.855  17.019  1.2414 -0.1275  0.1431
19351TIP3    H279469   6.574   6.791  17.112  0.2821 -1.4899  0.2549
19352TIP3   OH279470   2.585   1.800  11.011  0.0184 -0.8838 -0.0018
19352TIP3    H179471   2.635   1.720  11.027  0.6445 -0.3770  0.5975
19352TIP3    H279472   2.496   1.779  11.039  0.1556 -1.4117  0.0355
19353TIP3   OH279473   1.170   5.594   3.881  0.4746 -0.0041  0.1775
19353TIP3    H179474   1.158   5.524   3.817  0.4734 -0.4384  0.6507
19353TIP3    H279475   1.155   5.675   3.832  0.9417 -0.3133 -0.4854
19354TIP3   OH279476   4.879   4.737   2.336  0.3913  0.4979  0.5951
19354TIP3    H179477   4.893   4.674   2.265  1.0672  1.0940  0.1891
19354TIP3    H279478   4.873   4.683   2.415 -1.8891 -0.2906 -0.0879
19355TIP3   OH279479   2.433   2.465  16.474  0.7103  0.1026  0.1971
19355TIP3    H179480   2.444   2.388  16.530  2.8492  1.4811  1.7583
19355TIP3    H279481   2.493   2.451  16.401 -2.1123 -1.7171 -1.8603
19356TIP3   OH279482   5.008   4.547  15.754  0.2387  0.2218 -0.3505
19356TIP3    H179483   5.034   4.482  15.689 -0.1075  0.4781 -0.7545
19356TIP3    H279484   5.087   4.598  15.771  0.3692  0.0538 -0.4621
19357TIP3   OH279485   2.956   4.045   2.664 -0.3033  0.0158 -0.2233
19357TIP3    H179486   3.028   4.065   2.604  0.9928  1.1487  1.6543
19357TIP3    H279487   2.909   3.974   2.621  0.9883  0.3207 -2.2543
19358TIP3   OH279488   1.845   0.957  15.459  0.0421  0.0464 -0.0891
19358TIP3    H179489   1.846   0.950  15.364  0.2254 -3.5906  0.1085
19358TIP3    H279490   1.760   0.996  15.480 -1.0070 -1.3576 -1.6576
19359TIP3   OH279491   2.096   0.756   5.116  0.0305 -0.0827 -0.2314
19359TIP3    H179492   2.021   0.814   5.120 -0.4173 -0.6761  0.1212
19359TIP3    H279493   2.168   0.811   5.086 -0.4264  0.6053 -0.0715
19360TIP3   OH279494   3.451   6.785  16.439 -0.0705  0.3254  0.1572
19360TIP3    H179495   3.448   6.840  16.361 -1.0221  0.2243  0.1095
19360TIP3    H279496   3.413   6.841  16.508  1.5644  0.7314  0.7601
19361TIP3   OH279497   5.085   1.085   3.026  0.1630 -0.2887 -0.1019
19361TIP3    H179498   5.152   1.153   3.021 -0.5734  0.4609  0.1234
19361TIP3    H279499   5.102   1.029   2.950  0.6562  0.2580 -0.3945
19362TIP3   OH279500   1.638   6.718   2.718 -0.0964  0.1017 -0.5189
19362TIP3    H179501   1.605   6.631   2.741  0.6442  0.2687  1.2081
19362TIP3    H279502   1.733   6.709   2.717 -0.0009  0.9566 -0.0483
19363TIP3   OH279503   2.629   1.643   5.561  0.5864  0.8942  0.0334
19363TIP3    H179504   2.589   1.587   5.628 -1.5033 -0.4199 -2.2372
19363TIP3    H279505   2.705   1.593   5.531 -1.2951 -0.8084 -2.0137
19364TIP3   OH279506   0.755   1.052   3.796  0.2934 -0.6841  0.0463
19364TIP3    H179507   0.754   1.137   3.839  0.1877  0.0063 -1.2949
19364TIP3    H279508   0.828   1.005   3.836 -0.9679 -0.7610  2.2989
19365TIP3   OH279509   4.162   3.862   4.635 -0.2945 -0.2929 -0.0241
19365TIP3    H179510   4.220   3.938   4.636  1.3229 -1.4923 -0.5070
19365TIP3    H279511   4.159   3.835   4.544 -0.2136 -1.2884  0.2594
19366TIP3   OH279512   6.171   6.715   3.719 -0.2317 -0.1081  0.2930
19366TIP3    H179513   6.194   6.669   3.638  0.5134 -0.2211  0.5692
19366TIP3    H279514   6.184   6.807   3.699 -2.9600  0.1270 -0.6769
19367TIP3   OH279515   1.752   1.051   2.566 -0.5619  0.0261 -0.2417
19367TIP3    H179516   1.746   0.956   2.571  2.0306 -0.1417  0.2562
19367TIP3    H279517   1.820   1.067   2.499  0.7644  1.4520  1.4003
19368TIP3   OH279518   6.698   4.139   5.148 -0.7551 -0.1321 -0.0085
19368TIP3    H179519   6.641   4.074   5.107 -0.1003 -0.0406 -1.1157
19368TIP3    H279520   6.747   4.177   5.074  2.3976 -1.8331  1.1245
19369TIP3   OH279521   0.927   2.629   3.444 -0.0421 -0.2212  0.0106
19369TIP3    H179522   0.939   2.585   3.528  0.6238 -0.9710 -0.4680
19369TIP3    H279523   1.005   2.684   3.434  0.7317 -1.4672 -0.9164
19370TIP3   OH279524   2.887   6.460   5.574  0.2421 -0.5439 -0.4730
19370TIP3    H179525   2.870   6.452   5.480  1.0823 -1.1765 -0.5831
19370TIP3    H279526   2.935   6.542   5.583  0.0479 -0.4187 -0.5805
19371TIP3   OH279527   2.304   6.542  17.048 -0.0664 -0.3505 -0.2669
19371TIP3    H179528   2.292   6.632  17.017  2.3199 -0.0719 -0.4617
19371TIP3    H279529   2.396   6.537  17.073 -0.1764 -2.7484 -0.2346
19372TIP3   OH279530   1.473   1.048   3.993 -0.1965 -0.0227 -0.4070
19372TIP3    H179531   1.535   1.092   3.934 -2.1751  0.3942 -2.2435
19372TIP3    H279532   1.466   1.107   4.068 -0.9967  1.6479 -1.7677
19373TIP3   OH279533   1.745   5.591   0.442  0.2360  0.9315  0.0432
19373TIP3    H179534   1.820   5.538   0.468  0.5606  0.6190 -1.5365
19373TIP3    H279535   1.775   5.682   0.452  1.0708  0.8059 -1.2915
19374TIP3   OH279536   4.348   3.670  14.569  0.0925 -0.4974  0.2068
19374TIP3    H179537   4.362   3.620  14.650 -1.1756  1.5709  1.7717
19374TIP3    H279538   4.264   3.714  14.583  0.2939  0.6076 -1.8778
19375TIP3   OH279539   1.148   2.503  11.212  0.1644 -0.3213 -0.5816
19375TIP3    H179540   1.129   2.579  11.266  1.0676 -1.8285  1.9261
19375TIP3    H279541   1.065   2.485  11.166 -1.4679 -0.6523  2.3895
19376TIP3   OH279542   6.137   5.762  11.538  0.2162 -0.3372  0.8096
19376TIP3    H179543   6.132   5.706  11.615 -1.8980 -0.7773  0.4003
19376TIP3    H279544   6.069   5.728  11.480  3.1139 -1.3235 -2.1474
19377TIP3   OH279545   5.781   5.924   4.037 -0.0250  0.2728  0.2216
19377TIP3    H179546   5.764   5.902   4.128  0.7635  2.5767  0.9734
19377TIP3    H279547   5.694   5.940   4.000 -0.2331  1.3394  1.1338
19378TIP3   OH279548   6.700   4.477   5.895 -0.5747  0.1597  0.0867
19378TIP3    H179549   6.723   4.403   5.839 -1.4305  0.5440 -0.7932
19378TIP3    H279550   6.709   4.554   5.838  0.9589  0.8085  1.1794
19379TIP3   OH279551   0.831   2.467  14.746  0.2266  0.2153  0.2109
19379TIP3    H179552   0.789   2.394  14.791 -1.2794  1.8777  1.5759
19379TIP3    H279553   0.780   2.476  14.665 -0.6463  0.8062  0.8207
19380TIP3   OH279554   1.306   6.692   3.716 -0.0488 -0.3076 -0.6908
19380TIP3    H179555   1.251   6.754   3.765  1.3274  0.3266  0.0622
19380TIP3    H279556   1.334   6.741   3.639  1.0622  0.0241 -0.0819
19381TIP3   OH279557   3.291   5.416  13.650  0.2166 -0.0460 -0.1033
19381TIP3    H179558   3.254   5.374  13.573  1.3183  2.1342 -1.8709
19381TIP3    H279559   3.214   5.443  13.701 -0.5765  0.7596 -1.6987
19382TIP3   OH279560   4.966   1.159  15.994 -0.3835 -0.2754 -0.0169
19382TIP3    H179561   5.057   1.134  15.980  0.1147  0.8032  1.2035
19382TIP3    H279562   4.916   1.081  15.972  0.8110 -0.7835 -0.9804
19383TIP3   OH279563   5.008   0.331  15.953 -0.3464  0.5731 -0.7869
19383TIP3    H179564   4.993   0.392  16.025 -1.4814 -1.3173  0.6419
19383TIP3    H279565   4.925   0.284  15.944  1.7095 -3.7833  1.1392
19384TIP3   OH279566   6.048   4.056   2.243  0.4463 -0.6664  0.0755
19384TIP3    H179567   5.953   4.052   2.230  0.4440  1.6097 -0.7105
19384TIP3    H279568   6.062   4.132   2.299  1.9653  0.1566 -1.3804
19385TIP3   OH279569   6.043   5.270   0.074  0.6289 -0.0899  0.2809
19385TIP3    H179570   6.125   5.222   0.065  0.5949 -0.5859  2.4391
19385TIP3    H279571   5.988   5.237   0.003  2.5032  0.7439 -1.6154
19386TIP3   OH279572   6.194   6.225  13.765  0.1887  0.0415 -0.2331
19386TIP3    H179573   6.121   6.265  13.812 -1.1591  0.5841 -2.6961
19386TIP3    H279574   6.157   6.200  13.680  2.2075 -2.1165 -0.5168
19387TIP3   OH279575   1.392   6.224  11.670 -0.4797  0.2390 -0.1258
19387TIP3    H179576   1.311   6.242  11.718 -1.3583 -1.9852 -0.7070
19387TIP3    H279577   1.362   6.189  11.586  1.0884  0.1876 -0.6819
19388TIP3   OH279578   2.011   0.161   2.196 -0.0431  0.5765 -0.0764
19388TIP3    H179579   1.955   0.204   2.132  0.2822 -0.8338 -1.3237
19388TIP3    H279580   2.067   0.103   2.144  1.1852  0.4579  1.3443
19389TIP3   OH279581   2.871   3.872  15.577  0.6107 -0.3644 -0.3243
19389TIP3    H179582   2.951   3.865  15.630  0.4610 -0.2967 -0.0919
19389TIP3    H279583   2.841   3.781  15.568  0.1348 -0.2875  0.4674
19390TIP3   OH279584   0.454   1.796  11.013  0.2676 -0.6257  0.2469
19390TIP3    H179585   0.524   1.856  10.989  1.3156 -1.4158  1.2725
19390TIP3    H279586   0.430   1.752  10.932 -0.8586  1.5044 -0.6337
19391TIP3   OH279587   1.255   5.296  14.656 -0.4130 -0.1528  0.0436
19391TIP3    H179588   1.309   5.229  14.697  0.2199  0.1238 -0.3364
19391TIP3    H279589   1.167   5.279  14.689  0.3935  1.2747  3.1186
19392TIP3   OH279590   0.414   5.748  15.238 -0.6688  0.4644  0.2482
19392TIP3    H179591   0.489   5.723  15.292 -0.8199  0.8360  0.6371
19392TIP3    H279592   0.362   5.805  15.295 -1.5226 -0.2213  0.1739
19393TIP3   OH279593   1.128   0.330  13.300 -0.0854 -0.3906  0.6523
19393TIP3    H179594   1.205   0.324  13.357  0.4978 -1.3896 -0.2270
19393TIP3    H279595   1.157   0.385  13.227 -0.5600  0.1544  0.8705
19394TIP3   OH279596   4.410   2.524  13.720 -0.0836 -0.5227 -0.2396
19394TIP3    H179597   4.411   2.612  13.757 -0.3874 -0.8915  0.6542
19394TIP3    H279598   4.502   2.507  13.697 -0.1883  0.4408 -1.4313
19395TIP3   OH279599   2.017   1.201  14.112 -0.2894  0.5406  0.2438
19395TIP3    H179600   1.927   1.232  14.115 -0.8890 -1.1289 -0.0369
19395TIP3    H279601   2.050   1.216  14.201 -2.0249 -2.2029  1.4142
19396TIP3   OH279602   0.912   5.991   4.336  0.7892  0.0301  0.0422
19396TIP3    H179603   0.922   6.078   4.297  2.5793 -0.8098 -1.4573
19396TIP3    H279604   0.818   5.975   4.333  0.4119  1.9490  0.4525
19397TIP3   OH279605   5.346   4.898   1.289  0.5417 -0.8068 -0.2896
19397TIP3    H179606   5.295   4.870   1.213  1.6937 -0.1094 -1.3260
19397TIP3    H279607   5.349   4.820   1.345 -0.7395 -1.1715 -0.7066
19398TIP3   OH279608   3.778   0.579  13.040  0.4772  0.1268  0.2548
19398TIP3    H179609   3.724   0.611  13.113  0.7822  0.2376  0.4330
19398TIP3    H279610   3.868   0.592  13.069  0.6097 -0.8787  0.3291
19399TIP3   OH279611   5.959   6.266  17.162 -0.1809 -0.3936 -0.1802
19399TIP3    H179612   6.000   6.199  17.216 -0.2321 -0.4515 -0.2154
19399TIP3    H279613   5.975   6.348  17.209 -0.7682 -0.5159  0.2377
19400TIP3   OH279614   1.228   2.401  17.212 -0.1553  0.4045 -0.2432
19400TIP3    H179615   1.198   2.465  17.277 -1.6049  0.5849 -1.0649
19400TIP3    H279616   1.265   2.453  17.141  1.0873  0.2205  0.2612
19401TIP3   OH279617   6.159   1.541   5.630  0.3099 -0.1835 -0.3605
19401TIP3    H179618   6.129   1.477   5.565 -0.4408 -0.2723  0.0583
19401TIP3    H279619   6.131   1.625   5.596 -3.0073 -0.5038  1.3864
19402TIP3   OH279620   2.418   5.070   1.044  0.1527 -0.5810  0.0639
19402TIP3    H179621   2.448   5.009   1.111  0.6062 -0.5590 -0.1211
19402TIP3    H279622   2.327   5.044   1.027 -0.0407 -0.4325  0.8592
19403TIP3   OH279623   2.708   5.133  10.884  0.4635 -0.3081 -0.4308
19403TIP3    H179624   2.786   5.131  10.829  0.3827  1.0544 -0.6005
19403TIP3    H279625   2.635   5.135  10.823  0.3294 -0.2052 -0.2677
19404TIP3   OH279626   4.935   0.636  16.404  0.3375  0.2073 -0.2656
19404TIP3    H179627   4.856   0.586  16.427  1.2966 -1.7586 -1.1012
19404TIP3    H279628   4.902   0.722  16.379 -1.2196  0.5134  2.6841
19405TIP3   OH279629   4.309   3.713   3.485 -0.4212  0.1151  0.8782
19405TIP3    H179630   4.232   3.689   3.432  1.3715 -0.0120 -1.7613
19405TIP3    H279631   4.292   3.674   3.571 -2.4798 -1.4655 -0.2066
19406TIP3   OH279632   6.404   0.410   2.026 -0.2858 -0.7558  0.0529
19406TIP3    H179633   6.426   0.465   2.101  0.4217  0.2964 -0.9074
19406TIP3    H279634   6.474   0.345   2.022  1.4065  1.1210 -1.5664
19407TIP3   OH279635   3.875   0.429  11.298 -0.7892  0.4961 -0.0878
19407TIP3    H179636   3.899   0.365  11.231 -0.0487  1.2900 -0.5920
19407TIP3    H279637   3.924   0.402  11.376 -1.2652 -0.1413 -0.0098
19408TIP3   OH279638   6.502   6.646   3.027  0.0398 -0.4354 -0.2219
19408TIP3    H179639   6.534   6.678   2.942 -0.1865  1.5499  0.4058
19408TIP3    H279640   6.413   6.680   3.032 -0.6898 -2.3320 -0.0948
19409TIP3   OH279641   4.977   2.024  13.872 -0.5779  0.0502  0.2127
19409TIP3    H179642   5.032   2.020  13.951 -0.8970  0.4355  0.4597
19409TIP3    H279643   5.037   2.055  13.804 -0.2360 -0.5453  0.2433
19410TIP3   OH279644   6.102   4.726   1.440  0.1647  0.0043 -0.7296
19410TIP3    H179645   6.121   4.796   1.502  1.5111 -0.9978  0.0068
19410TIP3    H279646   6.137   4.757   1.357  0.4127  0.3616 -0.4903
19411TIP3   OH279647   3.860   0.220  11.530  0.2430 -0.0145 -0.6675
19411TIP3    H179648   3.766   0.226  11.517  0.1903  2.0891  0.4135
19411TIP3    H279649   3.872   0.230  11.624  1.4887 -1.2489 -0.6809
19412TIP3   OH279650   1.819   5.925  13.874  0.6042  0.0204 -0.9149
19412TIP3    H179651   1.753   5.994  13.884  0.7099  0.1248 -0.9331
19412TIP3    H279652   1.789   5.855  13.932  1.3611  0.7304  0.3579
19413TIP3   OH279653   5.079   5.055  13.544  0.3781 -0.1700  0.0063
19413TIP3    H179654   5.119   5.058  13.457 -0.5550  0.0854 -0.4187
19413TIP3    H279655   5.106   4.971  13.581  3.0029  0.8654  0.5512
19414TIP3   OH279656   1.543   3.227  14.865  0.3355 -0.0449 -0.2137
19414TIP3    H179657   1.504   3.209  14.780 -1.1161 -1.1244  0.6394
19414TIP3    H279658   1.627   3.182  14.864  0.7321  0.6960 -1.3810
19415TIP3   OH279659   3.190   0.588   4.964 -0.4365  0.4232  0.2686
19415TIP3    H179660   3.099   0.586   4.996 -0.8403  0.2343 -0.8721
19415TIP3    H279661   3.192   0.523   4.894  0.7621 -0.0548  0.7440
19416TIP3   OH279662   6.372   6.631  14.755  0.5850  0.3521  0.0317
19416TIP3    H179663   6.397   6.542  14.779  0.6839  0.7415  1.4065
19416TIP3    H279664   6.449   6.667  14.712  0.3121 -0.4413 -1.1594
19417TIP3   OH279665   1.184   5.462  13.774 -0.1098 -0.3376 -0.0464
19417TIP3    H179666   1.242   5.510  13.833  2.1718 -0.7293 -1.9057
19417TIP3    H279667   1.192   5.371  13.801 -1.4479 -0.1741  0.9761
19418TIP3   OH279668   1.069   4.372  16.566  0.4868 -0.4611 -0.7679
19418TIP3    H179669   1.096   4.372  16.658  1.7615  0.5468 -1.1196
19418TIP3    H279670   1.025   4.456  16.554  1.4709 -0.0118 -1.3757
19419TIP3   OH279671   0.090   0.182   4.453  0.5904 -0.1523 -0.1824
19419TIP3    H179672   0.144   0.249   4.494  0.6405 -1.1951  1.5090
19419TIP3    H279673   0.000   0.213   4.466  0.5835 -0.7005  1.1470
19420TIP3   OH279674   5.997   6.083  11.860 -0.3944  0.1508  0.2140
19420TIP3    H179675   5.954   6.012  11.908 -0.4288  0.2220  0.2880
19420TIP3    H279676   5.926   6.128  11.815 -0.2757 -0.3932 -0.5340
19421TIP3   OH279677   4.193   2.491  16.248 -0.4557  0.0856 -0.4408
19421TIP3    H179678   4.174   2.423  16.183 -0.6487  0.7674 -1.1094
19421TIP3    H279679   4.109   2.503  16.294 -1.5614  2.7317 -3.0478
19422TIP3   OH279680   6.680   1.815  15.586  0.0107 -0.6996  0.2670
19422TIP3    H179681   6.636   1.768  15.657 -0.4715 -0.4394  0.1412
19422TIP3    H279682   6.626   1.798  15.509 -0.9254  1.1641  0.4914
19423TIP3   OH279683   4.982   5.542  12.191 -0.1686 -0.1337  0.7173
19423TIP3    H179684   5.037   5.567  12.265 -0.2718 -1.4219  1.2431
19423TIP3    H279685   4.906   5.500  12.231 -0.6231 -0.0811 -0.0888
19424TIP3   OH279686   5.089   5.997  12.839  0.5024  0.5256  0.5403
19424TIP3    H179687   5.173   6.038  12.857  0.3544  0.7643  0.6924
19424TIP3    H279688   5.080   5.929  12.906  1.4981 -0.8695 -0.7257
19425TIP3   OH279689   0.865   0.355  11.652  0.5817 -0.1004  0.0951
19425TIP3    H179690   0.841   0.271  11.692 -0.0201  0.5111  1.0385
19425TIP3    H279691   0.958   0.365  11.673  0.5953 -0.4194  0.1939
19426TIP3   OH279692   2.382   5.124   4.157 -0.2512  0.2010  0.5564
19426TIP3    H179693   2.354   5.054   4.217  0.5284  0.9933  1.8880
19426TIP3    H279694   2.370   5.204   4.207  1.2070  0.8125 -0.0431
19427TIP3   OH279695   5.785   5.535   3.192 -0.0819 -0.2405 -0.0879
19427TIP3    H179696   5.783   5.511   3.284 -2.8305  2.2625  0.5594
19427TIP3    H279697   5.741   5.620   3.188  1.1484  0.3204 -3.5329
19428TIP3   OH279698   0.083   5.132   6.238 -0.1133  0.0687  0.2709
19428TIP3    H179699   0.117   5.192   6.305  1.7256  0.6277 -1.1277
19428TIP3    H279700   0.112   5.046   6.268 -0.9338  0.0893  1.1707
19429TIP3   OH279701   5.207   3.164   5.095 -0.0181  0.0901 -0.5210
19429TIP3    H179702   5.212   3.136   5.003  0.3904 -0.9949 -0.1809
19429TIP3    H279703   5.137   3.229   5.097 -1.3203 -1.2549 -1.2686
19430TIP3   OH279704   3.725   6.085  11.217 -0.1546  0.3198 -0.0304
19430TIP3    H179705   3.807   6.065  11.263 -1.4107 -1.7019  1.3962
19430TIP3    H279706   3.747   6.159  11.160  2.0459  1.4451  2.1635
19431TIP3   OH279707   3.190   0.287   5.335 -0.2799  0.4511  0.0094
19431TIP3    H179708   3.194   0.192   5.341 -0.1523  0.3981 -0.7995
19431TIP3    H279709   3.113   0.304   5.281  0.4689  0.7501 -0.9796
19432TIP3   OH279710   3.691   4.152  12.290  0.2574 -0.2990  0.0613
19432TIP3    H179711   3.656   4.069  12.323  0.9398 -0.3079  0.7652
19432TIP3    H279712   3.766   4.171  12.347  0.2656  0.6639 -0.2675
19433TIP3   OH279713   2.835   2.803   1.392  0.1327  0.1075  0.1853
19433TIP3    H179714   2.870   2.726   1.347 -0.6798  0.5122 -1.1673
19433TIP3    H279715   2.858   2.877   1.336  2.9885  1.1754  2.6556
19434TIP3   OH279716   5.199   3.222  11.001  0.4582  0.3986  0.2712
19434TIP3    H179717   5.190   3.311  10.965 -0.9231 -0.1095 -0.6675
19434TIP3    H279718   5.219   3.168  10.924  0.3525 -0.2523  0.7053
19435TIP3   OH279719   1.694   6.381   2.063 -0.3639  0.2160 -0.4315
19435TIP3    H179720   1.635   6.420   2.128 -0.5820  1.3917 -1.3109
19435TIP3    H279721   1.734   6.307   2.109 -0.1715  1.2779  1.1955
19436TIP3   OH279722   0.901   4.973  16.104  0.1173  0.3682 -0.4536
19436TIP3    H179723   0.828   4.957  16.045 -0.3760  0.0094  0.2456
19436TIP3    H279724   0.865   4.960  16.192  0.7339  1.3119 -0.0540
19437TIP3   OH279725   3.726   4.360   2.625  0.2144  0.2637 -0.4998
19437TIP3    H179726   3.680   4.413   2.560  2.1011  0.0490 -2.0391
19437TIP3    H279727   3.808   4.407   2.640  0.8101 -0.9227  0.0087
19438TIP3   OH279728   0.364   3.955   3.875 -0.0376  0.1013 -0.3852
19438TIP3    H179729   0.459   3.958   3.881 -0.0906 -1.1740  1.1238
19438TIP3    H279730   0.344   3.868   3.841 -0.6839  0.3239 -0.5972
19439TIP3   OH279731   0.479   2.207  17.185 -0.3555  0.0949 -0.0121
19439TIP3    H179732   0.480   2.121  17.225  2.6494 -0.0072 -0.1951
19439TIP3    H279733   0.481   2.190  17.091  0.1471  0.3823 -0.0515
19440TIP3   OH279734   1.420   4.359  16.776  0.2937  0.2508  0.5895
19440TIP3    H179735   1.488   4.306  16.817  0.4742  0.9112  1.1605
19440TIP3    H279736   1.454   4.448  16.780  0.8752  0.1780 -2.1484
19441TIP3   OH279737   0.636   0.161   5.514 -0.3903 -0.1246 -0.0047
19441TIP3    H179738   0.616   0.248   5.479  2.2461  0.2444 -0.6501
19441TIP3    H279739   0.600   0.162   5.602  0.5475  2.0199  0.3925
19442TIP3   OH279740   4.330   2.427  15.173 -0.5393 -0.3916  0.0084
19442TIP3    H179741   4.391   2.493  15.205 -1.8672 -0.1634  2.2010
19442TIP3    H279742   4.243   2.461  15.196 -1.2951 -2.3988  0.2335
19443TIP3   OH279743   0.604   6.049   3.708 -0.1134  0.2518  0.0231
19443TIP3    H179744   0.556   6.093   3.638 -0.4841 -2.4271 -1.4617
19443TIP3    H279745   0.696   6.073   3.692 -0.4023  1.1667 -0.2684
19444TIP3   OH279746   4.745   0.174  16.865 -0.4040  0.3877  0.0419
19444TIP3    H179747   4.816   0.236  16.850 -0.3341  0.5474  1.0084
19444TIP3    H279748   4.734   0.172  16.960  1.0264 -2.6805  0.2281
19445TIP3   OH279749   0.830   2.912  14.610 -0.7292 -0.2792  0.1870
19445TIP3    H179750   0.770   2.980  14.641 -1.5019 -0.8484 -0.0671
19445TIP3    H279751   0.787   2.874  14.534 -0.9961 -2.0792  1.2224
19446TIP3   OH279752   0.844   6.509  14.688  0.1022  0.1893 -0.0479
19446TIP3    H179753   0.915   6.552  14.735 -0.2367 -0.0335  0.6807
19446TIP3    H279754   0.858   6.415  14.704  0.0421  0.1082 -0.4695
19447TIP3   OH279755   5.351   6.074  12.904  0.7828 -0.1469 -0.4303
19447TIP3    H179756   5.392   6.158  12.886  0.4484 -0.0919 -0.9487
19447TIP3    H279757   5.390   6.013  12.840  1.4687 -0.5252  0.3350
19448TIP3   OH279758   3.991   0.576   4.474 -0.0612  0.1600  0.1527
19448TIP3    H179759   4.079   0.553   4.504  0.7662  1.4754 -1.1614
19448TIP3    H279760   3.949   0.616   4.550  0.3222 -0.8713  0.9115
19449TIP3   OH279761   4.491   0.135  11.709 -0.0894 -0.5085 -0.0726
19449TIP3    H179762   4.447   0.080  11.643 -0.5150 -0.1956 -0.0497
19449TIP3    H279763   4.558   0.182  11.660 -0.3819 -0.3022 -0.2785
19450TIP3   OH279764   1.917   6.379   5.335 -0.2670  0.1088  0.3311
19450TIP3    H179765   1.882   6.455   5.289 -0.3888 -0.2486 -0.1767
19450TIP3    H279766   1.860   6.306   5.308  0.9759 -0.5090 -0.6445
19451TIP3   OH279767   5.202   2.921   2.831 -0.2007  0.1564 -0.3421
19451TIP3    H179768   5.215   2.965   2.747  1.2249 -1.7840 -1.1802
19451TIP3    H279769   5.177   2.992   2.892  1.5312  2.0254 -1.7391
19452TIP3   OH279770   0.654   3.936   4.433 -0.6346 -0.0983  0.2114
19452TIP3    H179771   0.563   3.908   4.433  0.0657 -2.6145 -1.4501
19452TIP3    H279772   0.701   3.865   4.478  0.7041  0.3939 -0.3649
19453TIP3   OH279773   4.503   4.253  12.364 -1.2785 -0.0740  0.3596
19453TIP3    H179774   4.538   4.182  12.312  0.4613  0.0875  1.2834
19453TIP3    H279775   4.551   4.331  12.335 -0.2341  0.0047  2.2273
19454TIP3   OH279776   6.613   5.607   2.837  0.7781  0.1767 -0.4853
19454TIP3    H179777   6.706   5.592   2.856  0.9711  0.5371 -1.1590
19454TIP3    H279778   6.597   5.561   2.755  0.1006 -0.7816  0.1737
19455TIP3   OH279779   6.081   1.343   2.458  0.2591 -0.0046 -0.1458
19455TIP3    H179780   6.012   1.333   2.523  2.1734 -1.9406  1.6618
19455TIP3    H279781   6.085   1.259   2.413 -0.2383  0.9306 -1.9793
19456TIP3   OH279782   5.651   5.459   0.580  0.3025  0.1082  0.2370
19456TIP3    H179783   5.696   5.376   0.591  1.5529  0.8615  0.9015
19456TIP3    H279784   5.568   5.436   0.538 -0.7963 -1.8978  3.2953
19457TIP3   OH279785   2.513   0.816   1.690  0.2210  0.1427  0.0768
19457TIP3    H179786   2.425   0.853   1.679  0.4437  0.7204  0.1985
19457TIP3    H279787   2.500   0.735   1.739  0.1665  2.4530  4.1344
19458TIP3   OH279788   1.753   5.549   4.233  0.0339  0.3658  0.4330
19458TIP3    H179789   1.736   5.464   4.273 -2.2249  1.2669  1.4310
19458TIP3    H279790   1.673   5.599   4.246  1.2367  2.5823 -0.3703
19459TIP3   OH279791   6.000   2.575  14.632  0.2108  0.2935  0.1988
19459TIP3    H179792   5.939   2.502  14.632  1.4692 -0.7736  0.2486
19459TIP3    H279793   5.986   2.619  14.549 -0.4791 -0.0701  0.1274
19460TIP3   OH279794   3.513   3.371   0.541 -0.3479  0.0879 -0.1105
19460TIP3    H179795   3.600   3.383   0.503 -0.4390 -2.0310 -1.1044
19460TIP3    H279796   3.454   3.368   0.466 -0.6276 -3.4262  0.1421
19461TIP3   OH279797   6.225   5.646   2.446  0.3599  0.4884  0.1000
19461TIP3    H179798   6.182   5.646   2.532  0.6381  0.7719  0.2398
19461TIP3    H279799   6.167   5.595   2.390 -0.0673  0.7115  0.3376
19462TIP3   OH279800   2.873   6.770   2.319  0.0204 -0.6147 -0.7053
19462TIP3    H179801   2.907   6.738   2.236  1.8600  0.5958 -0.4464
19462TIP3    H279802   2.951   6.792   2.370 -1.1307  1.1386  0.3480
19463TIP3   OH279803   0.725   4.402   4.066 -0.1279 -1.2535 -0.9030
19463TIP3    H179804   0.713   4.497   4.066  1.3835 -1.0405  0.2741
19463TIP3    H279805   0.715   4.376   3.974  2.0808  0.3926 -1.6432
19464TIP3   OH279806   0.522   0.438   3.307 -0.9459 -0.6887  0.5224
19464TIP3    H179807   0.488   0.407   3.391  1.0628  0.1129  1.6751
19464TIP3    H279808   0.530   0.533   3.319  0.8453 -0.7598 -0.0163
19465TIP3   OH279809   3.993   1.158  15.623 -0.0387  0.4093  0.3879
19465TIP3    H179810   3.969   1.212  15.547 -0.8172  1.8032  1.5852
19465TIP3    H279811   4.088   1.151  15.618  0.0210  1.4252 -0.0976
19466TIP3   OH279812   6.472   0.262  11.249 -0.0859 -0.0604 -0.0900
19466TIP3    H179813   6.415   0.334  11.219  1.8779  1.0767 -1.1987
19466TIP3    H279814   6.479   0.204  11.174 -0.0608 -0.3964  0.1703
19467TIP3   OH279815   2.380   5.184  14.111 -0.2345 -0.8723 -0.0361
19467TIP3    H179816   2.422   5.229  14.185  1.1136 -2.5350  0.2289
19467TIP3    H279817   2.287   5.182  14.135 -0.0088 -0.1494  0.9488
19468TIP3   OH279818   0.355   0.465   4.394 -0.0621 -0.2548  0.6108
19468TIP3    H179819   0.305   0.431   4.468  0.5952 -0.2657  1.0659
19468TIP3    H279820   0.309   0.434   4.317 -0.4869 -0.6574  1.0197
19469TIP3   OH279821   1.644   6.479  12.916 -0.0818  0.0806  0.5890
19469TIP3    H179822   1.630   6.566  12.953  0.3347  0.4742 -0.1559
19469TIP3    H279823   1.585   6.422  12.964  0.2472  0.6329  1.6618
19470TIP3   OH279824   2.579   2.585  16.019 -0.0476  0.4047 -0.4763
19470TIP3    H179825   2.661   2.635  16.025 -0.7843  1.3636  2.0685
19470TIP3    H279826   2.523   2.638  15.962 -0.2067  1.6404  0.8069
19471TIP3   OH279827   1.979   2.460  14.748  0.0130 -0.5570  0.6840
19471TIP3    H179828   1.966   2.525  14.679  2.0849 -0.2623  0.5405
19471TIP3    H279829   1.939   2.499  14.826 -0.7742 -0.1238  0.0669
19472TIP3   OH279830   5.949   0.348  15.792  0.0432 -0.0457 -0.1309
19472TIP3    H179831   5.967   0.263  15.833 -0.2684 -0.5810 -1.0798
19472TIP3    H279832   6.030   0.370  15.747 -0.6495 -1.0291 -1.9238
19473TIP3   OH279833   0.478   2.835  16.530 -0.8156 -0.3550 -0.0521
19473TIP3    H179834   0.455   2.783  16.452  0.3419 -1.0206  0.0278
19473TIP3    H279835   0.569   2.860  16.515 -0.8128  0.1269  0.7619
19474TIP3   OH279836   4.720   2.407  11.355  0.2005  0.1644 -0.5432
19474TIP3    H179837   4.761   2.488  11.322  1.1198 -0.4855 -1.0043
19474TIP3    H279838   4.722   2.416  11.450 -0.4949  1.0779 -0.6074
19475TIP3   OH279839   2.236   2.272   6.628  0.2925 -0.7630  0.3346
19475TIP3    H179840   2.206   2.183   6.645  1.6314 -1.1651  0.6944
19475TIP3    H279841   2.313   2.261   6.572  0.3089  0.1693  0.1722
19476TIP3   OH279842   4.694   1.749   2.421  0.1987  0.5855 -0.3119
19476TIP3    H179843   4.687   1.803   2.499 -0.1869  0.4156 -0.2242
19476TIP3    H279844   4.689   1.811   2.348  2.0816  0.8968 -0.1933
19477TIP3   OH279845   4.178   1.801   6.263  0.2791 -0.1442 -0.5063
19477TIP3    H179846   4.168   1.707   6.246 -0.1238  0.1101 -1.7080
19477TIP3    H279847   4.137   1.843   6.188 -0.2799  1.0079  0.4392
19478TIP3   OH279848   6.360   2.760   5.996  0.0918  0.3330 -0.0914
19478TIP3    H179849   6.356   2.675   5.953 -3.3696  0.8242 -0.9378
19478TIP3    H279850   6.305   2.749   6.074  1.9507  1.0179  1.3622
19479TIP3   OH279851   5.308   0.613  16.220  0.0184  0.1550 -0.4672
19479TIP3    H179852   5.340   0.703  16.212 -0.4014  0.2777 -0.7688
19479TIP3    H279853   5.271   0.592  16.134  1.0154 -0.6613 -0.6989
19480TIP3   OH279854   1.857   6.115  14.412 -0.0564  0.1868  0.5060
19480TIP3    H179855   1.916   6.187  14.438  1.0694 -0.1048 -1.1997
19480TIP3    H279856   1.866   6.110  14.317 -1.3125 -1.2178  0.4530
19481TIP3   OH279857   3.737   4.869  16.239  0.3052 -0.5898  0.7385
19481TIP3    H179858   3.678   4.925  16.188  0.2263 -1.7541 -0.4832
19481TIP3    H279859   3.679   4.808  16.284  0.2763  1.3034  3.3694
19482TIP3   OH279860   4.535   2.150   2.488  0.6037 -0.1927 -0.2582
19482TIP3    H179861   4.549   2.149   2.393 -2.4331  0.9843 -0.7812
19482TIP3    H279862   4.555   2.240   2.514 -0.3402 -0.0086 -0.1266
19483TIP3   OH279863   2.748   3.095   0.781  0.1084 -0.6805  0.4615
19483TIP3    H179864   2.810   3.027   0.753  0.5774 -0.5914  1.2750
19483TIP3    H279865   2.799   3.175   0.784 -0.4745 -0.2600 -0.6059
19484TIP3   OH279866   5.387   0.185  15.340 -0.0084  0.1768  0.1966
19484TIP3    H179867   5.456   0.237  15.381  0.6244  1.0089 -1.8891
19484TIP3    H279868   5.398   0.199  15.246 -1.7285 -1.3245 -0.2617
19485TIP3   OH279869   1.990   0.594  12.131 -0.0471 -0.0183 -0.1488
19485TIP3    H179870   1.996   0.550  12.216  2.7181 -0.6964 -0.6390
19485TIP3    H279871   1.956   0.526  12.072 -0.7489  0.0670  0.1553
19486TIP3   OH279872   1.345   2.076  11.763  0.1924  0.1352 -0.2222
19486TIP3    H179873   1.441   2.081  11.757  0.3097 -1.7640 -0.4609
19486TIP3    H279874   1.324   1.990  11.726 -1.3249 -0.8247  2.7439
19487TIP3   OH279875   5.417   2.887  13.105 -0.3113 -0.2900 -0.0059
19487TIP3    H179876   5.358   2.945  13.153 -1.4483 -1.3424 -0.1059
19487TIP3    H279877   5.494   2.879  13.162 -0.0221  1.5252 -0.1184
19488TIP3   OH279878   3.226   6.094  13.424 -0.3928  0.7537 -0.0142
19488TIP3    H179879   3.164   6.042  13.372  1.2997 -0.4652 -0.8666
19488TIP3    H279880   3.171   6.149  13.478 -2.2287  0.4012 -1.4648
19489TIP3   OH279881   6.092   5.790   3.229  0.2776 -0.1541  0.0843
19489TIP3    H179882   6.121   5.773   3.318  1.6023  1.8936  0.0609
19489TIP3    H279883   5.998   5.807   3.237  0.9570  3.2573  1.5668
19490TIP3   OH279884   3.394   5.197   1.182 -0.6041  0.1088  0.6059
19490TIP3    H179885   3.407   5.221   1.274  0.6880  1.0880  0.1658
19490TIP3    H279886   3.473   5.148   1.158 -0.0643  1.5156 -0.5361
19491TIP3   OH279887   4.602   0.314   3.907  0.4484  0.4169  0.0299
19491TIP3    H179888   4.514   0.282   3.929  0.8360 -0.6959 -0.0426
19491TIP3    H279889   4.586   0.384   3.844 -0.4859  1.4805  1.4140
19492TIP3   OH279890   6.180   5.721  11.167 -0.0336 -0.6900  0.2558
19492TIP3    H179891   6.206   5.681  11.084 -1.0138 -0.8142  0.0057
19492TIP3    H279892   6.203   5.814  11.156 -1.9741 -0.3227 -0.9296
19493TIP3   OH279893   1.712   6.107   4.185 -0.2090  0.4255 -0.4163
19493TIP3    H179894   1.718   6.055   4.104  0.4675  0.0983 -0.1605
19493TIP3    H279895   1.624   6.090   4.217 -1.6288  3.0504 -2.7386
19494TIP3   OH279896   4.587   0.178   4.608 -0.4620  0.2374 -0.8587
19494TIP3    H179897   4.559   0.145   4.522  1.2567 -1.1351 -0.9175
19494TIP3    H279898   4.543   0.121   4.671 -0.1607 -0.0071 -0.8718
19495TIP3   OH279899   1.911   6.280   5.587  0.2107 -0.2169 -0.0372
19495TIP3    H179900   1.836   6.330   5.620 -0.2427 -1.0258  0.1644
19495TIP3    H279901   1.923   6.311   5.497  0.8274  1.2817  0.5537
19496TIP3   OH279902   6.664   1.961   3.244 -0.0035  0.0598  0.1113
19496TIP3    H179903   6.574   1.931   3.231  0.4366 -0.5139 -1.7891
19496TIP3    H279904   6.717   1.905   3.187  1.9457 -1.5090  3.2774
19497TIP3   OH279905   2.638   1.626  11.927  0.0669  0.3575 -0.0940
19497TIP3    H179906   2.685   1.614  11.845  1.3607 -0.8665  0.8162
19497TIP3    H279907   2.631   1.538  11.965 -3.8616  0.3288 -0.6820
19498TIP3   OH279908   2.304   1.254  12.885 -0.2338  0.3920 -0.2825
19498TIP3    H179909   2.215   1.289  12.887  0.3301  1.7312  2.5388
19498TIP3    H279910   2.359   1.330  12.869  0.6015 -0.0468  0.5178
19499TIP3   OH279911   6.717   2.217   0.631 -0.5343  0.2416  0.5478
19499TIP3    H179912   6.685   2.129   0.612 -1.7348  0.4013  1.8374
19499TIP3    H279913   6.670   2.273   0.569  0.5271 -0.0531 -0.5500
19500TIP3   OH279914   5.425   3.220  13.818 -0.0594 -0.4970  0.1320
19500TIP3    H179915   5.392   3.155  13.880  0.7084 -0.8082  0.2205
19500TIP3    H279916   5.431   3.301  13.867 -2.3113 -0.0169 -0.3257
19501TIP3   OH279917   0.319   4.834  15.193 -0.1659  0.1292  0.5638
19501TIP3    H179918   0.231   4.804  15.171 -0.9670  2.6130  0.1787
19501TIP3    H279919   0.314   4.854  15.287  0.2428 -0.5281  0.7289
19502TIP3   OH279920   6.128   1.400  15.380 -0.1140  0.2638 -0.1954
19502TIP3    H179921   6.041   1.365  15.365  0.1284  0.0480 -1.1379
19502TIP3    H279922   6.122   1.493  15.356  0.8083 -0.5394 -3.8872
19503TIP3   OH279923   6.248   1.965   5.074  0.3369  0.0654  0.0655
19503TIP3    H179924   6.222   1.873   5.079 -0.6330  0.1543 -2.7056
19503TIP3    H279925   6.174   2.008   5.031  2.2940  1.4979 -1.9816
19504TIP3   OH279926   6.488   2.564  14.547 -0.1944 -0.0235 -0.4596
19504TIP3    H179927   6.412   2.566  14.606  0.7938  3.1759  0.8514
19504TIP3    H279928   6.471   2.633  14.483  1.5526  0.6804 -0.1981
19505TIP3   OH279929   5.849   5.191  14.824 -0.3077  0.0291 -0.2470
19505TIP3    H179930   5.869   5.097  14.815 -1.5452 -0.2719  0.0004
19505TIP3    H279931   5.930   5.230  14.857 -0.6094 -1.3998  2.2824
19506TIP3   OH279932   3.308   5.296   1.445 -0.3038  0.0186  0.0344
19506TIP3    H179933   3.243   5.265   1.382  1.2280 -0.5463 -1.3085
19506TIP3    H279934   3.309   5.391   1.433  0.5162 -0.1530 -1.3518
19507TIP3   OH279935   4.175   0.921  14.395  0.8424  0.4748 -0.0264
19507TIP3    H179936   4.168   0.835  14.437 -0.6025  0.0427 -1.1277
19507TIP3    H279937   4.219   0.904  14.312  0.6385  0.7991 -0.2027
19508TIP3   OH279938   0.495   1.953  16.410 -0.0285  0.1057  0.1587
19508TIP3    H179939   0.424   1.972  16.471  0.8909  0.4180  1.1549
19508TIP3    H279940   0.480   1.863  16.383 -1.6143  0.6258 -0.7645
19509TIP3   OH279941   6.293   2.630   3.700 -0.5388  0.4052 -0.3380
19509TIP3    H179942   6.198   2.631   3.713 -0.1418  1.7077  2.7050
19509TIP3    H279943   6.329   2.604   3.784  1.8341 -0.1723 -1.4855
19510TIP3   OH279944   2.839   0.570  15.119 -0.1847  0.1009  0.6090
19510TIP3    H179945   2.904   0.620  15.070  0.2848 -0.8450  0.2623
19510TIP3    H279946   2.785   0.637  15.162  0.3289  0.9066  0.0156
19511TIP3   OH279947   4.534   1.564  15.379 -0.3743 -0.4139  0.5099
19511TIP3    H179948   4.512   1.477  15.346 -1.3968 -0.1573  0.4844
19511TIP3    H279949   4.522   1.622  15.304  0.3723 -0.2507  0.5079
19512TIP3   OH279950   3.541   0.742   4.765  0.8833 -0.1564  0.2397
19512TIP3    H179951   3.525   0.777   4.677 -0.7286  0.9961  0.9600
19512TIP3    H279952   3.478   0.787   4.821  1.9009 -0.8453  2.0126
19513TIP3   OH279953   2.539   2.040   6.200  0.4413 -0.2528 -0.0546
19513TIP3    H179954   2.483   1.974   6.160  0.2276 -0.2831  0.3038
19513TIP3    H279955   2.479   2.100   6.243  0.5848  0.5843 -0.9873
19514TIP3   OH279956   1.037   0.556   2.346  0.0570  0.1493  0.0367
19514TIP3    H179957   1.099   0.483   2.348  1.2605  1.1842  2.3773
19514TIP3    H279958   1.078   0.624   2.400 -1.7019  2.0218 -0.9353
19515TIP3   OH279959   2.205   0.500  11.483  0.2314  0.2072 -0.1608
19515TIP3    H179960   2.256   0.488  11.403 -1.3495 -1.2958 -0.9694
19515TIP3    H279961   2.210   0.416  11.527 -0.8570  0.2961  0.1524
19516TIP3   OH279962   1.971   5.600  15.666 -0.5655  0.6387 -1.0232
19516TIP3    H179963   1.913   5.545  15.614 -0.6719 -0.5735  0.3530
19516TIP3    H279964   1.915   5.635  15.736  0.0601  0.4505 -0.4178
19517TIP3   OH279965   0.941   5.208  13.808  0.1785 -0.0956  0.3770
19517TIP3    H179966   1.015   5.155  13.838  1.1946  0.7141 -0.6648
19517TIP3    H279967   0.973   5.253  13.730 -1.5227  0.0001 -0.3064
19518TIP3   OH279968   5.555   1.813  15.324  0.5181 -0.0129  0.5042
19518TIP3    H179969   5.461   1.816  15.307  0.6127  0.1941  0.0193
19518TIP3    H279970   5.562   1.805  15.419  0.0354  1.7810  0.7038
19519TIP3   OH279971   6.357   5.621  13.400  0.1297 -0.4870 -0.4844
19519TIP3    H179972   6.349   5.577  13.316  1.0823 -0.0664 -0.7998
19519TIP3    H279973   6.413   5.696  13.383 -0.1606 -0.0573  0.4004
19520TIP3   OH279974   1.538   4.316  15.637 -0.3059  0.1301 -0.0987
19520TIP3    H179975   1.575   4.232  15.663 -1.0071  0.5888  2.5795
19520TIP3    H279976   1.446   4.297  15.618  0.1054 -0.1269 -1.8725
19521TIP3   OH279977   4.458   5.747   5.919 -0.0793  0.4787  0.0993
19521TIP3    H179978   4.497   5.710   5.840 -0.3436  2.0199 -0.7736
19521TIP3    H279979   4.531   5.791   5.963 -0.1113  0.3908  0.2384
19522TIP3   OH279980   3.649   2.510   1.811 -0.1732 -0.5478  0.1504
19522TIP3    H179981   3.638   2.593   1.766 -0.3179 -1.1671 -0.9780
19522TIP3    H279982   3.712   2.528   1.881  1.3956  0.0498 -1.3616
19523TIP3   OH279983   6.044   0.840   1.510  0.3467 -0.1215  0.5354
19523TIP3    H179984   6.033   0.816   1.418 -0.0260 -1.0190  0.8090
19523TIP3    H279985   6.095   0.920   1.508 -0.6212  0.4867 -0.5064
19524TIP3   OH279986   3.295   2.249  11.222 -0.2427  0.1769  0.0041
19524TIP3    H179987   3.224   2.214  11.276  0.4545  0.0004  0.8161
19524TIP3    H279988   3.253   2.270  11.138 -1.5112  1.2329  0.8874
19525TIP3   OH279989   0.518   4.795  16.551  0.0379 -0.3939 -0.3406
19525TIP3    H179990   0.566   4.831  16.626 -1.2339 -1.0013  0.7838
19525TIP3    H279991   0.471   4.870  16.515 -1.6895 -0.6508  1.2978
19526TIP3   OH279992   4.101   0.705  15.317  0.0142  0.0781  0.1273
19526TIP3    H179993   4.005   0.707  15.326  0.1339 -0.1362  1.4303
19526TIP3    H279994   4.134   0.749  15.395  0.9426  1.9053 -1.2681
19527TIP3   OH279995   5.640   0.904   4.010  0.2681 -0.1148  0.1001
19527TIP3    H179996   5.690   0.959   4.070 -0.9260 -0.3262  1.3266
19527TIP3    H279997   5.568   0.961   3.980  2.0332  0.6988 -2.8509
19528TIP3   OH279998   4.063   1.589   1.703 -0.1475 -0.2756  0.5331
19528TIP3    H179999   4.066   1.571   1.796 -1.1498 -0.4261  0.5395
19528TIP3    H280000   4.021   1.675   1.696 -1.5074 -0.9482  0.1496
19529TIP3   OH280001   6.593   3.092   5.730 -0.0847 -0.2535 -0.2507
19529TIP3    H180002   6.539   3.119   5.805 -0.5392 -1.4393 -0.1362
19529TIP3    H280003   6.647   3.168   5.711  0.1203  0.0323  1.3608
19530TIP3   OH280004   5.221   5.177  14.485  0.1668 -0.0720 -0.0426
19530TIP3    H180005   5.295   5.158  14.542 -0.9327 -2.2395  0.6878
19530TIP3    H280006   5.174   5.247  14.530  1.7072  1.3177 -0.5041
19531TIP3   OH280007   5.170   0.613  11.168 -0.1702 -0.7679 -0.3176
19531TIP3    H180008   5.091   0.563  11.149 -1.2993  1.1079 -0.7062
19531TIP3    H280009   5.181   0.670  11.092  1.2708 -0.6422 -0.0294
19532TIP3   OH280010   2.231   4.838  11.582  0.5553  0.0244 -0.2971
19532TIP3    H180011   2.261   4.928  11.572  2.8277 -0.6544 -0.0392
19532TIP3    H280012   2.305   4.785  11.552  0.0662 -1.7615  1.5361
19533TIP3   OH280013   5.091   4.824  15.263  0.1750  0.7234  0.6613
19533TIP3    H180014   5.060   4.735  15.246  0.8014  0.6115  0.0652
19533TIP3    H280015   5.172   4.813  15.313 -1.4039  1.0461  3.4097
19534TIP3   OH280016   3.793   5.467   3.835 -0.6498 -0.4106  0.5281
19534TIP3    H180017   3.871   5.448   3.887 -0.4014 -0.3422  0.1845
19534TIP3    H280018   3.723   5.475   3.899 -0.1336  0.7997  0.9640
19535TIP3   OH280019   2.877   2.860   2.102  0.0292 -0.6853  0.5481
19535TIP3    H180020   2.949   2.899   2.152  0.0278 -0.7268  0.5822
19535TIP3    H280021   2.887   2.766   2.116 -1.2743 -0.5913  2.2791
19536TIP3   OH280022   3.937   0.964   4.558  0.0072 -0.1086  0.5874
19536TIP3    H180023   3.904   1.054   4.555  0.5984  0.0725 -0.7195
19536TIP3    H280024   3.903   0.929   4.640 -1.3657  0.8638  0.4507
19537TIP3   OH280025   2.269   0.909   1.530  0.4028  0.2639  0.5822
19537TIP3    H180026   2.291   0.993   1.488 -0.1686  0.1460  0.0460
19537TIP3    H280027   2.257   0.848   1.457  1.0593 -0.3519  0.9818
19538TIP3   OH280028   3.293   5.098   0.690 -0.4350 -0.1678  0.3506
19538TIP3    H180029   3.271   5.028   0.629  1.2507  1.1434 -1.8766
19538TIP3    H280030   3.388   5.110   0.679 -0.9669  3.7374 -0.8102
19539TIP3   OH280031   6.049   1.445   2.085 -0.6408  0.2915  0.0418
19539TIP3    H180032   6.054   1.382   2.013  0.5071  0.6171 -0.1743
19539TIP3    H280033   5.973   1.500   2.064 -0.5274  0.1542 -0.7225
19540TIP3   OH280034   5.021   6.542   3.824 -0.0454  0.3383 -0.0443
19540TIP3    H180035   4.985   6.631   3.827  1.6596  1.0943 -1.0302
19540TIP3    H280036   4.983   6.504   3.744  0.4334  0.7484 -0.4762
19541TIP3   OH280037   0.974   4.586   1.339  0.2045 -0.4553 -0.5622
19541TIP3    H180038   1.018   4.527   1.399 -0.9240 -1.3216 -0.5622
19541TIP3    H280039   0.894   4.612   1.386 -0.3299 -0.5795 -1.3926
19542TIP3   OH280040   5.967   5.884  12.916  0.6499 -0.3942  0.1549
19542TIP3    H180041   5.889   5.878  12.861  1.0149  1.0589 -0.5612
19542TIP3    H280042   6.038   5.852  12.860  0.9447  0.6232 -0.0754
19543TIP3   OH280043   0.116   3.561  11.604  0.3663 -0.3348 -0.5668
19543TIP3    H180044   0.068   3.529  11.527  0.0999 -0.0136 -0.5373
19543TIP3    H280045   0.051   3.612  11.652  0.7354  0.0833 -0.5118
19544TIP3   OH280046   3.522   5.612   0.501  0.4243 -0.1698  0.5338
19544TIP3    H180047   3.486   5.523   0.496 -1.0328  0.4484 -0.2856
19544TIP3    H280048   3.603   5.608   0.450  0.9183 -1.2726  1.3692
19545TIP3   OH280049   4.244   6.381  15.923 -0.2713 -0.0841 -0.3038
19545TIP3    H180050   4.202   6.467  15.928 -3.3180 -1.5352  0.1660
19545TIP3    H280051   4.277   6.366  16.011 -2.1467 -0.5248  0.3476
19546TIP3   OH280052   1.187   0.625  16.805  0.3080  0.1531 -0.3553
19546TIP3    H180053   1.268   0.656  16.764 -0.3811  1.1699 -0.9879
19546TIP3    H280054   1.118   0.658  16.747 -0.5550 -0.6460  0.2196
19547TIP3   OH280055   2.048   4.513   4.779 -0.3095 -0.5004  0.6065
19547TIP3    H180056   1.979   4.473   4.726  0.0451 -1.4253  0.8323
19547TIP3    H280057   2.109   4.551   4.716 -1.7213  1.5150  0.4343
19548TIP3   OH280058   5.522   4.439   1.264 -0.1169 -0.0700 -0.6048
19548TIP3    H180059   5.552   4.348   1.270 -0.0383  0.1429  3.4550
19548TIP3    H280060   5.427   4.434   1.269 -0.0648  0.1064  0.7715
19549TIP3   OH280061   3.008   0.842   0.652 -0.1556  0.0793  0.6110
19549TIP3    H180062   3.045   0.921   0.611 -1.2485  0.0299 -0.5112
19549TIP3    H280063   2.915   0.847   0.632 -0.5655 -0.4579  2.3155
19550TIP3   OH280064   5.075   4.099   4.034  0.2624  0.3390  0.6107
19550TIP3    H180065   5.044   4.134   3.951 -1.1773  1.4353  1.5784
19550TIP3    H280066   5.094   4.007   4.016 -1.6712  0.1286 -0.5240
19551TIP3   OH280067   1.508   5.924  12.638  0.1113  0.2818  0.0917
19551TIP3    H180068   1.591   5.939  12.593 -0.6620 -0.1463 -1.5224
19551TIP3    H280069   1.454   5.999  12.615 -0.8950 -0.8020 -1.1838
19552TIP3   OH280070   1.145   2.357   5.820 -0.0224  0.2752  0.5729
19552TIP3    H180071   1.066   2.329   5.773  1.0212 -0.0940 -0.9965
19552TIP3    H280072   1.140   2.453   5.818 -0.7502  0.2524  1.0370
19553TIP3   OH280073   2.418   1.268   5.661  0.1139  0.1504  0.3512
19553TIP3    H180074   2.472   1.214   5.604  1.4761  0.3394  1.4257
19553TIP3    H280075   2.481   1.312   5.718 -1.0586  1.8374  0.3808
19554TIP3   OH280076   3.755   5.168   4.224  0.3852  0.0808  0.1858
19554TIP3    H180077   3.675   5.195   4.179  0.3206 -0.7442 -0.1994
19554TIP3    H280078   3.826   5.202   4.169  0.3204 -2.1249 -1.3160
19555TIP3   OH280079   3.519   3.620   1.751  0.4622  0.0956  0.0607
19555TIP3    H180080   3.575   3.548   1.778 -0.3493  0.2209  2.2174
19555TIP3    H280081   3.560   3.698   1.788  0.3023  0.5131 -0.6293
19556TIP3   OH280082   5.594   0.485  16.204 -0.0030  0.3140  0.4011
19556TIP3    H180083   5.672   0.438  16.175  0.0676  0.7033 -0.0490
19556TIP3    H280084   5.535   0.482  16.129 -0.2853  0.3142  0.6204
19557TIP3   OH280085   4.722   2.664   2.890 -0.5335 -0.4465  0.1112
19557TIP3    H180086   4.679   2.732   2.943 -0.2502 -1.1289  1.2290
19557TIP3    H280087   4.784   2.623   2.950  0.0176 -1.0180 -0.8519
19558TIP3   OH280088   4.821   6.670  12.643  0.2456  0.2229  0.4519
19558TIP3    H180089   4.754   6.620  12.596 -0.4280  1.3869  0.1433
19558TIP3    H280090   4.771   6.728  12.700  1.0184  0.4910  0.8584
19559TIP3   OH280091   4.574   5.260  15.447  0.5500  0.0313  0.3885
19559TIP3    H180092   4.485   5.266  15.482  0.3885  0.7940 -0.1439
19559TIP3    H280093   4.563   5.263  15.352  1.2520  1.8571  0.3436
19560TIP3   OH280094   2.934   0.054   6.083  0.0054  0.3895  0.5916
19560TIP3    H180095   3.018   0.099   6.081 -1.1891  2.6211 -2.4182
19560TIP3    H280096   2.895   0.079   6.167  2.8706 -1.8674  2.7193
19561TIP3   OH280097   3.926   4.764  15.511  0.1446  0.7419  0.4887
19561TIP3    H180098   3.871   4.700  15.465 -0.6509  0.6885  1.4875
19561TIP3    H280099   3.929   4.840  15.453 -0.7531  0.6256  0.2870
19562TIP3   OH280100   1.307   4.476  15.901  0.2474 -0.5518  0.4131
19562TIP3    H180101   1.327   4.464  15.994 -0.1155 -0.2134  0.5347
19562TIP3    H280102   1.316   4.388  15.863 -0.1434 -0.7941  0.8763
19563TIP3   OH280103   2.810   4.635  15.836 -0.3202 -0.3023 -0.0215
19563TIP3    H180104   2.735   4.672  15.883 -0.2944  0.0918 -0.2872
19563TIP3    H280105   2.828   4.698  15.766  1.8608  0.8846  1.5437
19564TIP3   OH280106   3.504   1.268  15.379 -0.5482  0.0919  0.3547
19564TIP3    H180107   3.494   1.247  15.286  0.2116  1.5722 -0.0931
19564TIP3    H280108   3.498   1.184  15.424  2.4331 -1.1298 -1.3300
19565TIP3   OH280109   4.812   6.191  12.005 -0.4766 -0.4227  0.3333
19565TIP3    H180110   4.721   6.209  11.980 -0.3367  0.9918  0.7712
19565TIP3    H280111   4.860   6.192  11.922 -0.9350 -1.6717  0.0485
19566TIP3   OH280112   0.413   0.776  11.520  0.1841  0.8412 -0.2709
19566TIP3    H180113   0.479   0.846  11.520  1.1162 -0.0168  1.0197
19566TIP3    H280114   0.450   0.708  11.464 -0.6440  1.2880 -1.3808
19567TIP3   OH280115   4.393   4.737   5.713 -0.9924 -0.4705 -0.4171
19567TIP3    H180116   4.439   4.794   5.652 -0.7504  0.0487  0.2555
19567TIP3    H280117   4.461   4.680   5.748 -1.1834 -0.9745 -0.8579
19568TIP3   OH280118   2.239   1.434  13.126 -0.0440 -0.0288 -0.2867
19568TIP3    H180119   2.200   1.486  13.056  1.0796 -0.8207 -1.5094
19568TIP3    H280120   2.325   1.410  13.093  0.5998 -0.1844  1.4869
19569TIP3   OH280121   6.585   2.911   4.204  0.0193 -0.0055 -0.4318
19569TIP3    H180122   6.654   2.959   4.159 -0.6449 -0.9847 -2.5749
19569TIP3    H280123   6.622   2.824   4.219 -0.0481  0.0740  0.2353
19570TIP3   OH280124   6.352   5.251   1.851 -0.4260  0.0868 -0.7790
19570TIP3    H180125   6.386   5.326   1.802 -0.3578 -0.6316 -1.8580
19570TIP3    H280126   6.278   5.219   1.798 -2.0558  0.9199  0.9534
19571TIP3   OH280127   3.080   1.044   5.627 -0.5508  0.1815 -0.1927
19571TIP3    H180128   3.104   1.003   5.710  0.8853  0.6489 -0.3627
19571TIP3    H280129   3.022   0.981   5.585  3.4755 -2.8154 -1.5350
19572TIP3   OH280130   4.046   3.911  12.485 -0.8161 -0.2342  0.1971
19572TIP3    H180131   3.994   3.864  12.418 -0.6958 -0.1318  0.0316
19572TIP3    H280132   4.103   3.844  12.522  0.0295 -0.0303 -0.6971
19573TIP3   OH280133   1.167   6.278   1.159 -0.3215 -0.7242 -0.6321
19573TIP3    H180134   1.096   6.307   1.101 -1.0602 -0.4162  0.4040
19573TIP3    H280135   1.168   6.183   1.150 -3.3396 -1.1171  2.0609
19574TIP3   OH280136   1.808   6.282   0.035  0.2371 -0.4674  0.3886
19574TIP3    H180137   1.794   6.373   0.059  1.2181  0.0324 -0.8594
19574TIP3    H280138   1.777   6.231   0.110 -1.3723  0.8529  0.6190
19575TIP3   OH280139   4.809   3.322  13.739  0.0203  0.1030  0.2676
19575TIP3    H180140   4.834   3.373  13.816 -1.2534  0.2189  0.6214
19575TIP3    H280141   4.766   3.386  13.681  0.1129 -0.1783 -0.1073
19576TIP3   OH280142   3.776   3.295  16.033 -0.4882 -0.6179 -0.0097
19576TIP3    H180143   3.731   3.245  15.965 -0.1700  0.1554 -0.7974
19576TIP3    H280144   3.866   3.263  16.031  0.2928  1.6258 -2.1331
19577TIP3   OH280145   1.862   5.203  13.276 -0.1218  0.0965  0.2153
19577TIP3    H180146   1.947   5.160  13.287  1.1309  2.3551 -0.3344
19577TIP3    H280147   1.884   5.293  13.254 -2.6465 -0.0934 -3.4294
19578TIP3   OH280148   4.085   4.296   5.663 -0.5957  0.1412 -0.2252
19578TIP3    H180149   4.126   4.300   5.750 -0.0178 -0.1518 -0.4829
19578TIP3    H280150   4.004   4.247   5.678  0.1395 -1.0665 -0.0827
19579TIP3   OH280151   3.101   4.770   4.186 -0.3791 -0.0593 -0.1029
19579TIP3    H180152   3.122   4.728   4.269  0.3427 -0.5013 -0.5015
19579TIP3    H280153   3.044   4.843   4.209 -1.3389 -1.0227  0.6454
19580TIP3   OH280154   6.375   6.619   2.045  0.0715 -0.0370  0.4273
19580TIP3    H180155   6.382   6.666   1.962  0.8438 -1.9803 -0.6479
19580TIP3    H280156   6.465   6.590   2.063 -0.4612 -1.4797  0.8060
19581TIP3   OH280157   0.632   6.289  16.534  0.0393  0.5091  0.0066
19581TIP3    H180158   0.592   6.203  16.519  2.1421 -0.4242 -0.3794
19581TIP3    H280159   0.558   6.349  16.532 -1.3708 -1.1697 -0.6879
19582TIP3   OH280160   2.903   4.970  14.321  0.2802  0.3743 -0.0955
19582TIP3    H180161   2.954   5.006  14.393  1.2459  0.8792 -1.0128
19582TIP3    H280162   2.856   5.046  14.285  1.2552  0.4857 -1.1641
19583TIP3   OH280163   1.169   3.160  16.481  0.3525 -0.7282  0.1897
19583TIP3    H180164   1.083   3.197  16.462  0.6665  1.1627  2.2233
19583TIP3    H280165   1.227   3.203  16.418 -0.0796 -1.5264 -0.7596
19584TIP3   OH280166   4.226   4.320   3.693 -0.4585  0.2599 -0.2947
19584TIP3    H180167   4.164   4.336   3.764 -0.3655 -0.6423 -0.0049
19584TIP3    H280168   4.173   4.287   3.621 -0.3755 -0.1548 -0.1711
19585TIP3   OH280169   1.026   5.079  16.545 -0.0766 -0.5517 -0.5700
19585TIP3    H180170   1.114   5.046  16.563 -0.1886 -0.1701  0.7897
19585TIP3    H280171   1.041   5.168  16.511  0.0225  0.1417  1.2251
19586TIP3   OH280172   6.716   1.389  13.124 -0.3040 -0.1047 -0.6948
19586TIP3    H180173   6.716   1.482  13.146 -1.0216 -0.4682  0.8697
19586TIP3    H280174   6.644   1.379  13.062 -0.8819  0.2030 -0.0767
19587TIP3   OH280175   5.453   3.491  16.087 -0.4872 -0.5124 -0.1140
19587TIP3    H180176   5.471   3.585  16.085 -0.6133 -0.4886 -0.1880
19587TIP3    H280177   5.359   3.485  16.070 -0.4517 -0.6598 -0.2619
19588TIP3   OH280178   1.665   3.108   5.496  0.2812 -0.5485 -0.2690
19588TIP3    H180179   1.703   3.162   5.565 -0.8178  0.9733 -0.8281
19588TIP3    H280180   1.606   3.167   5.449  0.5320 -1.7326 -2.1095
19589TIP3   OH280181   4.957   2.042   3.484 -0.3274 -0.1663 -0.2515
19589TIP3    H180182   4.959   1.949   3.506 -1.4930 -0.1147  0.1032
19589TIP3    H280183   5.020   2.082   3.544 -1.1457 -0.4839  0.8354
19590TIP3   OH280184   3.357   1.172  16.027  0.6425  0.2255 -0.4298
19590TIP3    H180185   3.433   1.126  16.062 -0.4335 -0.6348  0.8463
19590TIP3    H280186   3.343   1.245  16.087 -0.0350 -0.1120 -0.1730
19591TIP3   OH280187   0.142   3.602   4.045 -0.4461  0.4503  0.2914
19591TIP3    H180188   0.235   3.587   4.029 -0.1327 -0.5074  2.8351
19591TIP3    H280189   0.114   3.657   3.972  1.8847 -0.0626 -1.0357
19592TIP3   OH280190   1.678   6.178  15.414 -0.0294  1.0011  0.3833
19592TIP3    H180191   1.609   6.234  15.449  0.2800  0.2778  2.2011
19592TIP3    H280192   1.649   6.158  15.324 -2.3661  0.4452  1.2123
19593TIP3   OH280193   0.574   2.282  11.077  0.2818 -0.5344 -0.3049
19593TIP3    H180194   0.614   2.230  11.006  0.4340 -0.0482 -0.5770
19593TIP3    H280195   0.540   2.360  11.033 -0.9426 -0.9262 -0.0625
19594TIP3   OH280196   4.589   5.956   2.037 -0.6441 -0.7195 -0.1324
19594TIP3    H180197   4.530   5.914   2.099 -1.2264 -0.5265 -0.5463
19594TIP3    H280198   4.676   5.943   2.073 -1.1659  1.9526  2.3039
19595TIP3   OH280199   3.686   6.250   0.479 -0.1020  0.2611 -0.0633
19595TIP3    H180200   3.610   6.283   0.431  1.4645  1.6141 -1.6850
19595TIP3    H280201   3.744   6.214   0.412  1.1848  0.2295  1.0268
19596TIP3   OH280202   6.659   5.503  11.881 -0.4500 -0.3428 -0.4938
19596TIP3    H180203   6.708   5.443  11.825 -1.0499  0.4579 -1.9267
19596TIP3    H280204   6.579   5.521  11.831 -1.3564 -0.2038  0.9847
19597TIP3   OH280205   1.641   5.889  13.205  0.2627 -0.0678  0.3198
19597TIP3    H180206   1.667   5.970  13.161  0.5248  0.0095  0.6056
19597TIP3    H280207   1.549   5.901  13.227 -0.1348 -0.5033 -1.0585
19598TIP3   OH280208   4.117   0.871  13.853  0.2083  0.1539 -0.2717
19598TIP3    H180209   4.040   0.927  13.839  0.0199 -0.4825 -1.7920
19598TIP3    H280210   4.104   0.836  13.941 -0.0843  1.8569  0.3889
19599TIP3   OH280211   3.874   5.816  13.690 -0.1300 -0.2115  0.1149
19599TIP3    H180212   3.837   5.899  13.660 -0.6381 -1.1309 -1.9391
19599TIP3    H280213   3.922   5.838  13.770 -1.7002  1.7355  0.5754
19600TIP3   OH280214   2.043   2.526  12.111  0.5126  0.1129  0.2411
19600TIP3    H180215   1.954   2.537  12.145  0.7063  0.8533  0.5185
19600TIP3    H280216   2.077   2.615  12.103  1.0637 -0.1456 -0.3151
19601TIP3   OH280217   0.380   1.418  12.215  0.1917 -0.0001 -0.1070
19601TIP3    H180218   0.288   1.400  12.236 -0.2878  2.1251 -0.3021
19601TIP3    H280219   0.377   1.457  12.128  1.4913 -1.8046 -0.9848
19602TIP3   OH280220   4.906   1.006   3.748 -0.1415  0.0278  0.4506
19602TIP3    H180221   4.868   0.933   3.797 -0.3702 -0.2879 -0.1804
19602TIP3    H280222   4.997   1.010   3.777 -0.2041 -0.3316  0.7007
19603TIP3   OH280223   6.481   2.826  12.128  0.0875  0.3190  0.2763
19603TIP3    H180224   6.553   2.763  12.133 -0.4978 -0.7022 -3.0230
19603TIP3    H280225   6.416   2.792  12.190  0.3419 -1.6175 -0.4591
19604TIP3   OH280226   4.010   1.240  16.925  0.3574  0.0537  0.4925
19604TIP3    H180227   3.998   1.194  16.842  0.8160 -0.5078  0.7306
19604TIP3    H280228   3.921   1.253  16.958  0.1868  0.0416  0.0456
19605TIP3   OH280229   5.251   0.949   0.164 -0.5618  0.1783  0.0237
19605TIP3    H180230   5.237   0.856   0.181 -1.6878  0.7220  2.2542
19605TIP3    H280231   5.170   0.991   0.194  0.7572  2.0819  1.0213
19606TIP3   OH280232   2.233   3.736  14.849  0.1440  0.1767  0.3875
19606TIP3    H180233   2.189   3.664  14.893  0.9723  0.2866  1.4345
19606TIP3    H280234   2.174   3.763  14.779 -0.8509 -0.5103  0.9674
19607TIP3   OH280235   1.338   4.156  11.682 -0.6099 -0.1217 -0.2055
19607TIP3    H180236   1.259   4.129  11.635 -0.6733  0.4133 -0.4155
19607TIP3    H280237   1.322   4.129  11.773 -1.5080  0.9630 -0.0308
19608TIP3   OH280238   3.584   1.305  11.045 -0.5082 -0.3190  0.3378
19608TIP3    H180239   3.571   1.332  11.136 -0.6254  1.1364 -0.0897
19608TIP3    H280240   3.614   1.385  11.001  1.5844 -1.5241 -0.4837
19609TIP3   OH280241   2.231   2.986   5.801  0.4251 -0.1918  0.4141
19609TIP3    H180242   2.184   3.009   5.881  0.2176  0.7365  0.0379
19609TIP3    H280243   2.219   2.891   5.792 -1.5241  0.0378  0.2576
19610TIP3   OH280244   6.773   0.794  15.689  0.1452 -0.3417  0.0570
19610TIP3    H180245   6.847   0.769  15.744  1.0468 -0.8799 -1.3606
19610TIP3    H280246   6.812   0.845  15.618 -1.3105  2.5544  1.2833
19611TIP3   OH280247   3.801   2.436   6.607  0.4082  0.5170  0.1166
19611TIP3    H180248   3.733   2.370   6.588 -0.1770  0.9860  0.5828
19611TIP3    H280249   3.816   2.428   6.701 -1.1942  2.4874  0.5825
19612TIP3   OH280250   0.675   5.160   6.014 -0.2160 -0.2691 -0.0907
19612TIP3    H180251   0.658   5.239   5.963  4.9671  0.2260 -1.3426
19612TIP3    H280252   0.687   5.192   6.104  1.0768  0.3180 -0.4576
19613TIP3   OH280253   1.783   3.012   0.669  0.2162  0.1946  0.5988
19613TIP3    H180254   1.715   3.066   0.629 -0.0490  0.3374  1.2497
19613TIP3    H280255   1.736   2.936   0.704  0.3127  0.6152  1.6319
19614TIP3   OH280256   2.975   0.318   5.161  0.1665  0.2651  0.7615
19614TIP3    H180257   2.903   0.380   5.178 -1.5205 -1.5974  0.5943
19614TIP3    H280258   2.931   0.234   5.149  2.3444 -0.7626 -0.1615
19615TIP3   OH280259   3.151   2.212  14.232  0.1538  0.5399  0.6130
19615TIP3    H180260   3.083   2.266  14.192 -0.4972 -1.7587 -1.5649
19615TIP3    H280261   3.110   2.176  14.310 -0.3426  1.0047  0.5714
19616TIP3   OH280262   1.748   5.607   3.894 -0.5521  0.3130 -0.0040
19616TIP3    H180263   1.742   5.512   3.906  0.1087  0.3192  0.4562
19616TIP3    H280264   1.687   5.643   3.958 -0.0820  0.2205  0.5050
19617TIP3   OH280265   5.303   5.573  16.518  0.3406  0.3610 -0.3878
19617TIP3    H180266   5.220   5.615  16.498  0.3853  0.2149 -0.8923
19617TIP3    H280267   5.341   5.627  16.588 -1.6237 -1.3981  2.1123
19618TIP3   OH280268   2.566   2.832  12.925 -0.1774 -0.1920  0.0383
19618TIP3    H180269   2.507   2.759  12.947 -0.2486 -0.1944 -0.1581
19618TIP3    H280270   2.617   2.801  12.850 -0.1683 -0.0619 -0.0102
19619TIP3   OH280271   4.946   5.351  10.944 -0.1295 -0.1495  0.1933
19619TIP3    H180272   5.032   5.394  10.948 -0.0039 -0.4845  1.2710
19619TIP3    H280273   4.883   5.423  10.953 -0.0399  0.4396 -3.4373
19620TIP3   OH280274   4.274   5.970   1.247  0.2737 -0.3602  0.0019
19620TIP3    H180275   4.203   6.033   1.241  0.5706 -0.1151 -0.9208
19620TIP3    H280276   4.283   5.934   1.159  0.6644 -1.0878  0.3269
19621TIP3   OH280277   5.452   6.454  11.841 -0.5104 -0.1688 -0.0380
19621TIP3    H180278   5.435   6.473  11.933 -1.0563 -2.0179  0.2697
19621TIP3    H280279   5.534   6.405  11.841  1.6192  3.2797 -0.9400
19622TIP3   OH280280   3.726   5.027  15.517  0.5775  0.3111  0.0401
19622TIP3    H180281   3.637   5.058  15.499  0.2747  2.4122  4.5135
19622TIP3    H280282   3.766   5.020  15.431 -3.5610  0.3263 -2.0510
19623TIP3   OH280283   4.737   0.115  16.151 -0.1727  0.3287  0.0959
19623TIP3    H180284   4.831   0.098  16.158 -0.1595  0.7478  1.0789
19623TIP3    H280285   4.722   0.133  16.058  1.1445  2.7151  0.2996
19624TIP3   OH280286   1.233   1.341  13.402  0.6721  0.2316  0.3391
19624TIP3    H180287   1.200   1.311  13.317  2.5464  0.7780 -0.5962
19624TIP3    H280288   1.158   1.387  13.441  0.0067  0.5849 -1.3151
19625TIP3   OH280289   2.832   4.893  16.404  0.0759  0.3161  0.1440
19625TIP3    H180290   2.785   4.960  16.354  0.7796  0.0703 -0.8625
19625TIP3    H280291   2.862   4.830  16.338 -1.1035 -1.3273  1.1581
19626TIP3   OH280292   5.212   6.454   6.447 -0.3959  0.1692  0.2665
19626TIP3    H180293   5.217   6.493   6.534  0.9037  0.7681 -0.0530
19626TIP3    H280294   5.263   6.373   6.454  0.4069  0.6286 -0.1321
19627TIP3   OH280295   6.489   5.140  11.889 -0.3574 -0.7521 -0.1811
19627TIP3    H180296   6.522   5.183  11.810 -1.3738  1.5377  0.6092
19627TIP3    H280297   6.557   5.153  11.955  0.1698 -2.0293 -0.4585
19628TIP3   OH280298   5.480   2.759  16.304 -0.4364  0.6251  0.0991
19628TIP3    H180299   5.480   2.814  16.383 -0.7607  0.2704  0.3498
19628TIP3    H280300   5.425   2.807  16.242 -1.3842  0.2108  0.5938
19629TIP3   OH280301   4.174   2.636  12.713  0.0087 -0.0670 -0.4952
19629TIP3    H180302   4.145   2.718  12.753 -3.8467 -0.2471 -2.7102
19629TIP3    H280303   4.216   2.663  12.630  2.8343 -0.0984  0.8579
19630TIP3   OH280304   1.578   2.959  14.746 -0.5373  0.1816  0.2441
19630TIP3    H180305   1.594   2.980  14.654  3.8907 -2.1469  0.3326
19630TIP3    H280306   1.546   2.869  14.744 -1.0421  0.3508  0.9215
19631TIP3   OH280307   0.011   0.709   2.919  0.2249 -0.5207 -0.3988
19631TIP3    H180308   0.087   0.654   2.898  1.3007  1.2829 -1.3730
19631TIP3    H280309  -0.054   0.686   2.853  0.8039 -0.3997 -1.0220
19632TIP3   OH280310   3.759   0.280   3.546 -0.8439 -0.0947 -0.0626
19632TIP3    H180311   3.711   0.219   3.602 -0.0301  0.1663  0.9382
19632TIP3    H280312   3.824   0.320   3.605 -0.1786  0.4020 -1.1255
19633TIP3   OH280313   6.088   5.029   1.873 -0.9342 -0.2864 -0.1643
19633TIP3    H180314   6.103   5.098   1.809 -0.5236 -0.8132 -0.6472
19633TIP3    H280315   6.084   5.074   1.957 -4.0205  0.7198 -0.8051
19634TIP3   OH280316   5.699   2.002   2.986 -0.0262  0.5216  0.2940
19634TIP3    H180317   5.620   1.959   2.953  0.2085 -0.9258  1.5774
19634TIP3    H280318   5.670   2.091   3.008 -1.1301  0.2237  0.0889
19635TIP3   OH280319   1.364   5.312  15.207 -0.1234 -0.2794 -0.3992
19635TIP3    H180320   1.374   5.260  15.127 -2.1571 -2.2286  0.5736
19635TIP3    H280321   1.280   5.357  15.196 -0.1812 -0.1714  0.4471
19636TIP3   OH280322   5.693   4.664  15.568 -0.5047 -0.6968 -0.1209
19636TIP3    H180323   5.698   4.602  15.494 -0.1847  0.9389 -1.4925
19636TIP3    H280324   5.671   4.748  15.527  0.8689  0.4929  1.5339
19637TIP3   OH280325   5.362   6.092   0.117 -0.6317 -0.0940 -0.1707
19637TIP3    H180326   5.349   6.167   0.176  0.1382 -1.5502  1.8961
19637TIP3    H280327   5.440   6.048   0.151 -0.8698 -1.6448 -1.5735
19638TIP3   OH280328   2.126   2.976   2.023 -0.1522 -0.1455  0.6200
19638TIP3    H180329   2.079   2.961   2.105 -0.8944 -0.1128  0.2011
19638TIP3    H280330   2.203   2.919   2.029 -0.2890 -0.2636  1.2673
19639TIP3   OH280331   5.578   0.770  11.343 -0.3646 -0.1189  0.1396
19639TIP3    H180332   5.656   0.806  11.384  0.3024 -1.6147  0.1977
19639TIP3    H280333   5.506   0.818  11.383  0.4269  0.1972  1.1994
19640TIP3   OH280334   1.129   2.099  14.581 -0.0924 -0.3164 -0.0915
19640TIP3    H180335   1.116   2.087  14.675 -1.9454 -1.5849 -0.4880
19640TIP3    H280336   1.152   2.012  14.548 -1.2617 -0.2557 -1.0874
19641TIP3   OH280337   5.606   6.669  17.119 -0.6475  0.0350  0.0674
19641TIP3    H180338   5.561   6.677  17.035  0.7565  0.0186 -0.7060
19641TIP3    H280339   5.670   6.599  17.104 -0.2914  0.1420  1.1065
19642TIP3   OH280340   3.605   0.761  10.442 -0.2266  0.1587  0.4424
19642TIP3    H180341   3.689   0.732  10.407  0.5555  2.1962  0.5151
19642TIP3    H280342   3.612   0.745  10.536 -0.3664 -0.7100  0.3067
19643TIP3   OH280343   1.044   6.202  10.658  0.0698  0.4885  0.1042
19643TIP3    H180344   0.976   6.172  10.597  1.3092 -3.3932  0.5105
19643TIP3    H280345   1.030   6.151  10.737  2.1604  1.1602  0.9361
19644TIP3   OH280346   6.743   4.612   3.071 -0.5725  0.1837  0.6643
19644TIP3    H180347   6.763   4.538   3.127 -0.0553  0.4676  0.8597
19644TIP3    H280348   6.800   4.682   3.103  0.6007  0.0019 -0.9768
19645TIP3   OH280349   4.356   0.916   0.154  0.1808  0.5159  0.5742
19645TIP3    H180350   4.375   0.972   0.078  0.3943 -1.4197 -0.8289
19645TIP3    H280351   4.426   0.852   0.155 -0.2671  0.0292  1.9439
19646TIP3   OH280352   1.902   1.075   4.625 -0.3542 -0.3480 -0.0042
19646TIP3    H180353   1.883   1.122   4.544  0.5925  0.3560  0.1709
19646TIP3    H280354   1.838   1.108   4.688  0.7167  1.2233  0.2965
19647TIP3   OH280355   6.646   2.439   4.620 -0.5941  0.2800 -0.6559
19647TIP3    H180356   6.562   2.482   4.606 -0.1619  0.7182 -2.0158
19647TIP3    H280357   6.683   2.430   4.532 -0.2019 -1.9218 -0.2894
19648TIP3   OH280358   4.635   6.487   5.368  0.1638  0.2459 -0.0252
19648TIP3    H180359   4.575   6.520   5.301 -0.1608 -1.0596 -0.3942
19648TIP3    H280360   4.714   6.540   5.358  0.3423 -0.3334 -1.8557
19649TIP3   OH280361   0.936   5.587  13.781  1.1362  0.1714 -0.0820
19649TIP3    H180362   0.877   5.524  13.823  1.1572  0.4890  0.4291
19649TIP3    H280363   1.019   5.540  13.773  1.1332  0.1065  0.2358
19650TIP3   OH280364   4.672   5.880   1.535 -0.3129 -0.1122  0.1786
19650TIP3    H180365   4.684   5.814   1.467 -1.9552 -0.2106 -0.0304
19650TIP3    H280366   4.694   5.834   1.616 -1.0046 -0.8051 -0.0106
19651TIP3   OH280367   5.344   3.159   1.693  0.0003  0.1494 -0.0434
19651TIP3    H180368   5.420   3.215   1.709 -0.3247  0.4020  0.6591
19651TIP3    H280369   5.315   3.181   1.605 -0.2221  1.1980  0.2910
19652TIP3   OH280370   2.743   3.824  13.026 -0.5412 -0.0218  0.7106
19652TIP3    H180371   2.772   3.910  12.995 -1.0488  0.2648  1.0305
19652TIP3    H280372   2.782   3.816  13.113  1.8950 -1.3366 -0.4365
19653TIP3   OH280373   0.671   0.771   3.108  0.1699 -0.4092 -0.8949
19653TIP3    H180374   0.707   0.808   3.027  2.6570  1.1441  0.8709
19653TIP3    H280375   0.747   0.742   3.158 -1.3279 -1.3548  0.9325
19654TIP3   OH280376   1.246   6.026   4.867 -0.0301 -0.3189  0.6996
19654TIP3    H180377   1.197   6.083   4.927 -0.6952  0.5158 -0.6269
19654TIP3    H280378   1.180   5.968   4.830 -0.1216  1.0894 -1.4194
19655TIP3   OH280379   4.102   6.509   4.424 -0.4580 -0.0899 -0.1003
19655TIP3    H180380   4.094   6.503   4.329 -0.3895 -0.8470 -0.0623
19655TIP3    H280381   4.044   6.441   4.457 -0.6290  0.3010  0.4097
19656TIP3   OH280382   1.170   4.116  14.204 -0.7545  0.9650 -0.1204
19656TIP3    H180383   1.170   4.205  14.169 -2.5996  0.3369 -1.8578
19656TIP3    H280384   1.080   4.103  14.236 -0.4969 -0.2751  0.1418
19657TIP3   OH280385   5.850   1.449   3.148  0.1000 -0.2544  0.3851
19657TIP3    H180386   5.795   1.433   3.224 -2.9261 -1.0611 -1.8545
19657TIP3    H280387   5.856   1.544   3.142 -3.4035 -0.0102 -0.8136
19658TIP3   OH280388   3.004   5.499   6.272 -0.1898  0.1151 -0.4370
19658TIP3    H180389   2.938   5.535   6.332  1.2586  1.0956  0.6075
19658TIP3    H280390   3.025   5.571   6.213  0.3512 -0.0277 -0.4204
19659TIP3   OH280391   1.082   0.076  14.145  0.6508 -0.3909  0.6667
19659TIP3    H180392   1.004   0.078  14.089  0.3900 -0.0140  1.0452
19659TIP3    H280393   1.077  -0.009  14.190  0.9036 -0.7311  0.0672
19660TIP3   OH280394   6.438   6.051   1.372  0.0095 -0.0605  0.6238
19660TIP3    H180395   6.527   6.061   1.337 -0.1649  1.7714  0.6114
19660TIP3    H280396   6.406   5.970   1.334  1.0905  0.1017 -0.6889
19661TIP3   OH280397   4.318   2.216  13.125 -0.1998 -0.3083 -0.2430
19661TIP3    H180398   4.391   2.275  13.106 -0.7224 -0.1404 -1.7573
19661TIP3    H280399   4.357   2.145  13.177  0.7323  0.5438  0.2384
19662TIP3   OH280400   0.125   1.838   0.204  0.3224  0.0351  0.4190
19662TIP3    H180401   0.166   1.919   0.235  1.9016 -1.0270  1.1991
19662TIP3    H280402   0.193   1.795   0.151 -0.1118 -1.2775  0.8972
19663TIP3   OH280403   3.404   6.657  13.783 -0.8135  0.4315 -0.3281
19663TIP3    H180404   3.385   6.722  13.715 -0.1605  1.3038  0.3047
19663TIP3    H280405   3.465   6.702  13.842 -0.8599 -0.5462  0.4701
19664TIP3   OH280406   1.877   3.682   2.017 -0.0180  0.3035 -0.1259
19664TIP3    H180407   1.906   3.659   2.106 -2.9965 -1.4951  0.4305
19664TIP3    H280408   1.821   3.758   2.029  1.5871  1.6393 -0.8196
19665TIP3   OH280409   1.635   0.172  16.300  0.2612 -0.8974  0.9462
19665TIP3    H180410   1.583   0.168  16.380  1.1794  1.2071  1.6826
19665TIP3    H280411   1.579   0.134  16.233 -0.1638 -3.5675  2.7622
19666TIP3   OH280412   2.694   2.751   4.887  0.2221 -0.1927  0.3110
19666TIP3    H180413   2.710   2.808   4.961 -0.8163  0.6263 -0.0838
19666TIP3    H280414   2.712   2.663   4.920 -1.4517  0.0420  1.8901
19667TIP3   OH280415   1.063   3.061   1.603 -0.0809 -0.7372  0.2489
19667TIP3    H180416   1.153   3.091   1.601  0.1138 -1.3535 -0.3239
19667TIP3    H280417   1.030   3.077   1.515 -0.7812  0.2168  0.6618
19668TIP3   OH280418   3.672   3.439   1.897 -0.1268  0.2545  0.7037
19668TIP3    H180419   3.703   3.502   1.961  2.6103 -0.8097  0.5090
19668TIP3    H280420   3.742   3.374   1.892 -1.7860 -1.4704 -0.8942
19669TIP3   OH280421   5.368   2.706   3.894 -0.0726  0.0445  0.1230
19669TIP3    H180422   5.313   2.687   3.970 -1.8385 -0.2073 -1.1826
19669TIP3    H280423   5.371   2.802   3.890  0.7785  0.0656  1.0203
19670TIP3   OH280424   5.254   1.148  16.571  0.0790  0.3366 -0.4792
19670TIP3    H180425   5.288   1.233  16.543  1.8102  0.5867  2.1625
19670TIP3    H280426   5.182   1.169  16.630  0.2385 -0.0110 -0.1552
19671TIP3   OH280427   5.434   1.483  13.772 -0.0216  0.1885  0.8297
19671TIP3    H180428   5.402   1.440  13.693  1.5466  1.4615 -0.5525
19671TIP3    H280429   5.360   1.536  13.803 -0.9438 -1.0507  0.7668
19672TIP3   OH280430   6.307   2.508   5.744 -0.1673 -0.1295 -0.3124
19672TIP3    H180431   6.248   2.567   5.791 -0.0868 -0.8834  0.7424
19672TIP3    H280432   6.249   2.443   5.704 -0.1738  0.0237 -0.5500
19673TIP3   OH280433   2.160   0.772  15.618 -0.0061 -0.1578  0.1798
19673TIP3    H180434   2.162   0.697  15.558 -0.8692 -0.4455  0.5059
19673TIP3    H280435   2.242   0.819  15.600  0.5152 -1.1448 -0.0663
19674TIP3   OH280436   5.423   6.725   3.197 -0.4955  0.5509  0.3643
19674TIP3    H180437   5.493   6.744   3.135 -1.4789  1.5365 -0.4632
19674TIP3    H280438   5.461   6.741   3.283  0.6201 -0.0157 -0.0175
19675TIP3   OH280439   1.522   2.145  14.747 -0.2413 -0.4117 -0.1943
19675TIP3    H180440   1.523   2.210  14.818 -1.7122 -0.5907  0.0078
19675TIP3    H280441   1.495   2.064  14.789 -0.4520 -0.6757 -0.8300
19676TIP3   OH280442   6.721   2.962  11.499  0.4907  0.1131 -0.7513
19676TIP3    H180443   6.725   2.889  11.437  0.4336 -0.5211 -0.0140
19676TIP3    H280444   6.688   3.035  11.447 -0.3401 -0.6239 -1.2768
19677TIP3   OH280445   6.416   6.238   0.762 -0.8035  0.5814 -0.1855
19677TIP3    H180446   6.421   6.322   0.717 -2.5034 -0.4317 -2.3229
19677TIP3    H280447   6.497   6.193   0.739  0.0586  1.5603  0.8700
19678TIP3   OH280448   1.542   2.866   1.097 -0.0786  0.1951 -0.1528
19678TIP3    H180449   1.541   2.891   1.189 -1.0101 -2.1043  0.5127
19678TIP3    H280450   1.628   2.826   1.083 -0.2575 -0.2208 -0.0622
19679TIP3   OH280451   0.288   2.990  15.801 -0.3431  0.1734 -0.0074
19679TIP3    H180452   0.315   2.900  15.782 -0.2248  0.3708 -0.8032
19679TIP3    H280453   0.200   2.982  15.837  0.0987 -0.3440  0.9797
19680TIP3   OH280454   1.098   2.704   2.258 -0.1427 -0.6550 -0.0725
19680TIP3    H180455   1.143   2.636   2.308 -1.4265 -0.2559  1.6831
19680TIP3    H280456   1.007   2.699   2.287 -0.2549  1.8545  0.1660
19681TIP3   OH280457   4.074   5.133  13.733  0.6037  0.1801  0.0710
19681TIP3    H180458   4.074   5.182  13.651  0.7470 -0.6514 -0.4324
19681TIP3    H280459   4.138   5.064  13.720  2.0066  1.1700  1.5871
19682TIP3   OH280460   5.336   6.474   1.145 -0.0332 -0.1218 -0.5883
19682TIP3    H180461   5.369   6.481   1.056  0.8997 -0.7611 -0.2989
19682TIP3    H280462   5.386   6.402   1.184 -0.4711  0.1128  0.4280
19683TIP3   OH280463   3.761   1.805   5.704 -0.1589 -0.2107  0.2059
19683TIP3    H180464   3.817   1.751   5.647 -0.2615 -0.6804  0.5415
19683TIP3    H280465   3.708   1.741   5.752 -0.6715  0.2198  0.2096
19684TIP3   OH280466   5.200   3.607   3.786  0.1241  0.3945  0.6005
19684TIP3    H180467   5.215   3.675   3.720  0.3186  0.3064  0.5561
19684TIP3    H280468   5.126   3.641   3.837  0.8742  1.1167  1.2244
19685TIP3   OH280469   0.059   4.389  17.108 -0.1176  0.6145  0.0894
19685TIP3    H180470   0.030   4.406  17.018 -0.9998  0.5012  0.3391
19685TIP3    H280471   0.133   4.447  17.121  0.9234 -0.3957 -1.1983
19686TIP3   OH280472   2.916   3.346   2.298 -0.3476 -0.3684  0.7040
19686TIP3    H180473   2.992   3.366   2.244  1.0778 -2.6562  1.7824
19686TIP3    H280474   2.885   3.262   2.265 -2.1142  0.2945  0.6242
19687TIP3   OH280475   0.287   5.565   0.114  0.0479 -0.2968  0.2174
19687TIP3    H180476   0.194   5.582   0.123 -0.0314  0.2047 -1.3491
19687TIP3    H280477   0.306   5.582   0.021  1.6835 -0.4057  0.5072
19688TIP3   OH280478   4.557   4.457  14.878  0.0271  0.0383  0.2734
19688TIP3    H180479   4.498   4.417  14.815 -0.1375  1.0012 -0.1939
19688TIP3    H280480   4.534   4.416  14.962  1.3730 -2.4471 -0.5508
19689TIP3   OH280481   4.103   3.815  15.359 -0.1917  0.5052  0.0530
19689TIP3    H180482   4.040   3.885  15.340 -1.4594  0.0844  2.5320
19689TIP3    H280483   4.099   3.758  15.282  0.7850  3.0497 -1.9872
19690TIP3   OH280484   3.630   1.410  13.186 -0.5076  0.2227 -0.0318
19690TIP3    H180485   3.646   1.475  13.117 -0.7028 -1.5713 -1.8130
19690TIP3    H280486   3.549   1.439  13.228 -0.3486  1.3788 -0.4875
19691TIP3   OH280487   1.503   5.812  17.079  0.7809 -0.0151 -0.1724
19691TIP3    H180488   1.543   5.737  17.124  1.3938  1.4612  1.7852
19691TIP3    H280489   1.570   5.880  17.081 -0.0570  0.8597 -1.2405
19692TIP3   OH280490   6.507   4.084   6.080  0.4474  0.0411 -0.6006
19692TIP3    H180491   6.430   4.043   6.119  1.4220  0.2788  1.6400
19692TIP3    H280492   6.471   4.143   6.013 -1.5071  1.8198  1.9123
19693TIP3   OH280493   5.259   3.034   1.207  0.4128  0.7291  0.0208
19693TIP3    H180494   5.281   3.105   1.147  0.6099  0.4842 -0.1990
19693TIP3    H280495   5.319   2.964   1.185  0.6985  0.7462  0.7214
19694TIP3   OH280496   3.130   3.581  13.015  0.2956 -0.3422  0.4673
19694TIP3    H180497   3.215   3.555  12.980  0.7919  1.3943  0.3376
19694TIP3    H280498   3.109   3.663  12.970 -1.0634 -0.3108  1.1080
19695TIP3   OH280499   3.883   1.668  12.984  0.2976  0.1621 -0.0193
19695TIP3    H180500   3.901   1.579  12.954 -2.1771 -0.9561  1.7286
19695TIP3    H280501   3.894   1.665  13.079 -0.5291  1.5457  0.1385
19696TIP3   OH280502   6.510   0.374   3.151 -0.1017 -0.2866 -0.0485
19696TIP3    H180503   6.539   0.465   3.152  0.0091 -0.3150 -0.4134
19696TIP3    H280504   6.511   0.347   3.243  0.6501 -0.1642 -0.0190
19697TIP3   OH280505   4.009   1.358  11.868  0.1160 -0.3946 -0.2320
19697TIP3    H180506   4.012   1.440  11.918 -0.3490 -0.4669 -0.0783
19697TIP3    H280507   4.098   1.324  11.872 -0.0307 -0.6799  1.0397
19698TIP3   OH280508   0.482   1.586   2.498  0.2724 -0.1421 -0.0678
19698TIP3    H180509   0.548   1.622   2.438  1.0873 -2.3017 -0.4869
19698TIP3    H280510   0.417   1.546   2.440 -1.2264  1.5977  0.3593
19699TIP3   OH280511   1.712   4.049   4.270 -0.1353 -0.1636  0.3218
19699TIP3    H180512   1.638   4.041   4.330 -0.5802 -1.8786 -0.4144
19699TIP3    H280513   1.677   4.092   4.193 -0.0622  0.1493  0.4623
19700TIP3   OH280514   5.829   4.352  15.851 -0.2718 -0.0210  0.0593
19700TIP3    H180515   5.861   4.264  15.832 -0.5125 -0.3736  1.2366
19700TIP3    H280516   5.784   4.379  15.771 -1.6197 -1.6220  0.2435
19701TIP3   OH280517   0.638   5.938   2.733  0.2284  0.2145  0.0027
19701TIP3    H180518   0.545   5.933   2.713 -0.0380  0.8228  1.0468
19701TIP3    H280519   0.677   5.977   2.655 -0.5971  1.2558  0.0923
19702TIP3   OH280520   6.537   0.048   5.498 -0.3865  0.0737 -0.3039
19702TIP3    H180521   6.613   0.104   5.485  0.0086 -0.3754  0.0780
19702TIP3    H280522   6.559  -0.034   5.456 -0.4268 -0.2564  0.3127
19703TIP3   OH280523   5.573   2.036  16.633  0.4709  0.0873  0.4479
19703TIP3    H180524   5.551   1.943  16.646 -0.5637  0.1510 -0.7490
19703TIP3    H280525   5.503   2.083  16.679  0.3023  0.2787 -0.0044
19704TIP3   OH280526   4.404   6.324   3.590  0.3903  0.3420 -0.1837
19704TIP3    H180527   4.348   6.274   3.649 -1.2249 -0.8719 -2.6675
19704TIP3    H280528   4.493   6.294   3.609 -0.2269 -0.8583  0.8260
19705TIP3   OH280529   4.601   4.591  13.963  0.0039 -0.6231  0.0024
19705TIP3    H180530   4.594   4.651  13.889 -1.7587  0.0207  0.6675
19705TIP3    H280531   4.679   4.539  13.944  1.6280  1.9114 -0.5493
19706TIP3   OH280532   3.435   2.002  12.359 -0.0005  0.1766 -0.3539
19706TIP3    H180533   3.394   1.938  12.417 -1.0217  0.8798 -0.2840
19706TIP3    H280534   3.365   2.064  12.338  1.3848  2.2842  1.0033
19707TIP3   OH280535   5.708   2.312   1.467  0.1153  0.0633 -0.3397
19707TIP3    H180536   5.683   2.344   1.554  0.3486 -0.1083 -0.2083
19707TIP3    H280537   5.790   2.356   1.448 -0.4981  0.9433 -0.9503
19708TIP3   OH280538   6.656   6.360   3.766 -0.4846 -0.1515  0.3326
19708TIP3    H180539   6.670   6.371   3.860  1.5972 -0.4268  0.0786
19708TIP3    H280540   6.561   6.355   3.756 -0.7174 -0.2643  2.4396
19709TIP3   OH280541   3.515   2.624  13.762 -0.0739  0.1023 -0.7240
19709TIP3    H180542   3.541   2.640  13.671  0.9952 -1.3791 -0.7082
19709TIP3    H280543   3.457   2.549  13.757 -0.9719  0.7656 -0.2971
19710TIP3   OH280544   3.885   5.647   3.660  0.4588 -0.3614  0.1655
19710TIP3    H180545   3.846   5.587   3.723  0.1552 -3.2990 -2.6697
19710TIP3    H280546   3.814   5.667   3.599  1.5878 -0.3182 -1.1567
19711TIP3   OH280547   2.051   1.691   4.934 -0.4577 -0.1158 -0.1055
19711TIP3    H180548   1.958   1.709   4.918 -0.4195 -0.6523 -0.9607
19711TIP3    H280549   2.068   1.610   4.886  0.8362  0.8196 -1.2600
19712TIP3   OH280550   0.859   4.964   4.564 -0.0586  0.1400 -0.2667
19712TIP3    H180551   0.858   4.952   4.469 -0.9275  1.4177 -0.4429
19712TIP3    H280552   0.848   5.059   4.576 -1.0895 -0.1449  1.1396
19713TIP3   OH280553   0.505   4.492  15.314 -0.8347 -0.6830  0.2005
19713TIP3    H180554   0.520   4.586  15.301  1.4719 -0.8806  1.2284
19713TIP3    H280555   0.550   4.450  15.241  0.1553 -1.0807  1.0183
19714TIP3   OH280556   5.592   1.864  14.914  0.5368 -0.4350 -0.5926
19714TIP3    H180557   5.512   1.885  14.961  0.9766  0.5761 -0.2802
19714TIP3    H280558   5.563   1.809  14.841 -0.7536  1.8349 -1.8424
19715TIP3   OH280559   1.762   6.651   5.835  0.2229 -0.1287 -0.2506
19715TIP3    H180560   1.851   6.674   5.861  0.2039 -0.7509  0.3870
19715TIP3    H280561   1.771   6.616   5.746  0.1903  2.7012 -1.4194
19716TIP3   OH280562   5.199   0.889  12.566  0.1989  0.1593 -0.2093
19716TIP3    H180563   5.285   0.889  12.523  0.1359 -1.7087 -0.3646
19716TIP3    H280564   5.205   0.820  12.632 -1.8531 -1.3530 -1.5667
19717TIP3   OH280565   3.718   5.399   4.723  0.0255  0.0399  0.4879
19717TIP3    H180566   3.767   5.403   4.641 -1.0460  0.9220 -0.1246
19717TIP3    H280567   3.633   5.363   4.699  0.0068 -0.5320  1.3673
19718TIP3   OH280568   4.314   0.579  13.597  1.1056 -0.2544 -0.3648
19718TIP3    H180569   4.248   0.553  13.662  0.5297 -0.2574 -0.9496
19718TIP3    H280570   4.364   0.499  13.581  2.3745  0.1471  1.3582
19719TIP3   OH280571   3.163   0.644  12.612  0.6196  0.0845 -0.6451
19719TIP3    H180572   3.085   0.660  12.665  1.2395 -1.2768  0.7013
19719TIP3    H280573   3.133   0.653  12.521 -1.2434 -1.0647 -0.1578
19720TIP3   OH280574   1.488   0.920   0.249 -0.0173  0.5387  0.3519
19720TIP3    H180575   1.567   0.912   0.196  1.4623  0.0204  2.5477
19720TIP3    H280576   1.415   0.916   0.186  1.6399 -0.6743 -1.5230
19721TIP3   OH280577   0.116   0.164   5.049 -0.2249 -0.2618  0.4432
19721TIP3    H180578   0.089   0.126   5.132 -1.2473  1.2471  0.8390
19721TIP3    H280579   0.073   0.111   4.982 -0.0813 -0.9657  0.9143
19722TIP3   OH280580   6.543   4.093  14.858 -0.0584 -0.3214  0.2315
19722TIP3    H180581   6.551   4.156  14.786  0.2135 -1.2571 -0.5868
19722TIP3    H280582   6.449   4.079  14.868 -0.1394  0.5363  0.7143
19723TIP3   OH280583   0.512   0.019  16.592 -0.2897  0.3888 -0.0678
19723TIP3    H180584   0.535  -0.030  16.671 -0.0048  1.0188  0.2483
19723TIP3    H280585   0.508   0.110  16.622 -0.5951  0.5762 -0.6918
19724TIP3   OH280586   4.304   4.079  10.186  0.3776  0.1553  0.1346
19724TIP3    H180587   4.393   4.112  10.172 -0.0097  1.3939  0.4573
19724TIP3    H280588   4.284   4.104  10.276 -0.2507 -0.2252  0.0975
19725TIP3   OH280589   1.199   5.078   0.580 -0.5289 -0.0153 -1.0049
19725TIP3    H180590   1.153   5.141   0.524  0.9049 -0.7406 -3.0169
19725TIP3    H280591   1.291   5.099   0.570 -0.1620 -1.1428 -0.0829
19726TIP3   OH280592   0.737   6.531   5.974  0.1260 -0.5844 -0.0576
19726TIP3    H180593   0.680   6.605   5.953 -0.5849 -0.6191  1.6519
19726TIP3    H280594   0.686   6.479   6.037  2.2965 -0.2900  1.9792
19727TIP3   OH280595   6.174   1.953   0.269 -0.5954 -0.9571 -0.4453
19727TIP3    H180596   6.251   1.914   0.311 -1.5807 -1.4611  0.9202
19727TIP3    H280597   6.156   1.895   0.195 -2.0002 -3.1209  1.5204
19728TIP3   OH280598   5.193   4.149   1.085 -0.0837  0.1713  0.5798
19728TIP3    H180599   5.216   4.238   1.058 -1.0153 -0.0573 -1.0426
19728TIP3    H280600   5.219   4.094   1.011 -2.3694 -0.5285  0.2731
19729TIP3   OH280601   3.368   0.121  14.002  0.3673  0.5277 -0.2266
19729TIP3    H180602   3.424   0.167  13.939  0.1521 -0.8254 -1.4362
19729TIP3    H280603   3.330   0.049  13.951 -0.4965 -0.0563  1.2389
19730TIP3   OH280604   1.072   5.494  13.152 -0.2602  0.4312 -0.0235
19730TIP3    H180605   1.022   5.455  13.224 -0.6096 -1.9407 -1.5101
19730TIP3    H280606   1.110   5.419  13.106 -0.8254  1.8519 -2.8839
19731TIP3   OH280607   1.261   2.019  12.800 -0.1893 -0.0493 -0.1422
19731TIP3    H180608   1.318   2.055  12.868  0.2416  0.6294 -0.8580
19731TIP3    H280609   1.176   2.008  12.843  0.4345 -0.9270  0.8871
19732TIP3   OH280610   0.753   6.133  13.096  0.2812 -0.3431  0.0409
19732TIP3    H180611   0.801   6.069  13.042  0.8356  1.3879 -1.5620
19732TIP3    H280612   0.773   6.108  13.186  0.3228 -2.5540 -0.5550
19733TIP3   OH280613   2.724   5.214  17.089 -0.5025  0.3289 -0.2391
19733TIP3    H180614   2.731   5.144  17.153 -1.6944  0.1131 -0.3243
19733TIP3    H280615   2.814   5.235  17.065 -0.0697  0.2485  1.3158
19734TIP3   OH280616   0.702   3.112   3.338 -0.2125  0.2848 -0.2546
19734TIP3    H180617   0.743   3.185   3.384 -0.4899  0.2641  0.0285
19734TIP3    H280618   0.774   3.052   3.319  0.0520  0.7522 -0.7114
19735TIP3   OH280619   1.993   3.673  16.850  0.1416  0.2593  0.2679
19735TIP3    H180620   1.923   3.624  16.808  0.0325 -0.1815  0.9617
19735TIP3    H280621   2.057   3.606  16.876  0.3344  0.5588  0.5663
19736TIP3   OH280622   4.539   4.903  14.657 -0.2276  0.4560 -0.4358
19736TIP3    H180623   4.574   4.842  14.722 -1.1962  0.7489  0.3865
19736TIP3    H280624   4.527   4.851  14.578 -1.6313 -0.5678  0.4479
19737TIP3   OH280625   6.502   0.904   1.054 -0.1878  0.2501 -0.4565
19737TIP3    H180626   6.554   0.876   1.130  0.9508 -0.6903 -1.5653
19737TIP3    H280627   6.445   0.829   1.036 -1.1622  0.8602  0.0837
19738TIP3   OH280628   4.429   1.720   5.539 -0.1320 -0.3980 -0.1519
19738TIP3    H180629   4.416   1.789   5.605 -0.8720 -1.9636  1.3747
19738TIP3    H280630   4.522   1.726   5.517  0.0499  0.4076  0.7615
19739TIP3   OH280631   5.826   4.437   1.537 -0.7663  0.4173 -0.1677
19739TIP3    H180632   5.806   4.345   1.519  0.0113 -0.2764  2.3552
19739TIP3    H280633   5.922   4.441   1.536 -0.7572  0.8584  1.2347
19740TIP3   OH280634   0.411   4.757   5.015  0.2257 -0.3804 -0.4627
19740TIP3    H180635   0.462   4.749   4.934 -0.8885 -2.8835 -0.9650
19740TIP3    H280636   0.473   4.734   5.084  0.0021 -2.7623 -1.0188
19741TIP3   OH280637   2.256   4.267   4.524  0.3144  0.0734 -0.7299
19741TIP3    H180638   2.286   4.325   4.595 -1.3066  0.2347 -0.1553
19741TIP3    H280639   2.221   4.190   4.569 -1.8958  0.7183 -1.2675
19742TIP3   OH280640   2.533   2.301   5.183 -0.2662 -0.0982 -0.4050
19742TIP3    H180641   2.584   2.232   5.141 -1.0206 -0.2266 -1.1317
19742TIP3    H280642   2.523   2.368   5.116 -0.9892 -0.0485 -0.2513
19743TIP3   OH280643   6.566   4.507   3.324  0.1751 -0.5721  0.6018
19743TIP3    H180644   6.533   4.586   3.279 -0.4741 -2.1512 -1.8136
19743TIP3    H280645   6.504   4.492   3.395 -0.9153 -0.1128 -0.2399
19744TIP3   OH280646   2.112   2.545  12.636  0.6575 -0.3276  0.3812
19744TIP3    H180647   2.052   2.471  12.649  0.1699 -0.0686 -0.3191
19744TIP3    H280648   2.080   2.587  12.556  0.3981  1.1420  1.2318
19745TIP3   OH280649   1.736   3.061   3.707  0.3057 -0.0279 -0.0816
19745TIP3    H180650   1.776   3.053   3.620  0.5924  0.3662  0.0201
19745TIP3    H280651   1.804   3.097   3.763  0.6894 -1.9198  0.7242
19746TIP3   OH280652   1.154   4.215  13.214 -0.1090  0.1403  0.0791
19746TIP3    H180653   1.146   4.310  13.208  1.1330  0.2457 -0.0473
19746TIP3    H280654   1.184   4.187  13.127 -0.6943 -0.3994  0.0433
19747TIP3   OH280655   5.401   4.157   3.894  0.1516  1.3581  0.1133
19747TIP3    H180656   5.487   4.123   3.872 -1.1519 -1.4421 -0.8641
19747TIP3    H280657   5.392   4.140   3.988  0.3749  1.0423  0.0758
19748TIP3   OH280658   0.773   1.193   1.625  0.0721 -0.2268  0.6758
19748TIP3    H180659   0.832   1.187   1.550 -0.3438 -0.3536  0.3565
19748TIP3    H280660   0.710   1.122   1.612 -0.7614  0.5351  0.4776
19749TIP3   OH280661   4.950   2.968   1.714  0.2112  0.1901 -0.8187
19749TIP3    H180662   4.943   3.004   1.625  0.7464 -1.6557 -1.6194
19749TIP3    H280663   5.025   2.909   1.710 -0.7075 -1.0870  0.4449
19750TIP3   OH280664   6.520   1.491   3.385  0.7003 -0.3057 -0.0402
19750TIP3    H180665   6.541   1.407   3.424  1.4485 -0.5393 -0.9304
19750TIP3    H280666   6.446   1.473   3.327  0.1348 -0.1228  0.6162
19751TIP3   OH280667   1.192   5.889   3.330  0.1465  0.2136 -0.2743
19751TIP3    H180668   1.272   5.888   3.382  0.3661 -3.3173 -0.5181
19751TIP3    H280669   1.121   5.886   3.394  0.2478  1.3450 -0.1006
19752TIP3   OH280670   4.442   2.415  12.217  0.4311  0.4174  0.0752
19752TIP3    H180671   4.408   2.417  12.128  0.9157 -0.9016 -0.1432
19752TIP3    H280672   4.364   2.408  12.273  0.2970 -2.2282 -0.4024
19753TIP3   OH280673   5.995   2.474  15.402  0.2278 -0.3477 -0.2325
19753TIP3    H180674   6.016   2.548  15.344  0.3831 -0.7120 -0.6415
19753TIP3    H280675   6.071   2.417  15.397  0.2161 -0.4164  0.2855
19754TIP3   OH280676   0.219   3.835  13.865  0.2071  0.9908 -1.0584
19754TIP3    H180677   0.249   3.755  13.907  0.4308  1.0384 -1.1274
19754TIP3    H280678   0.130   3.847  13.898  0.0084  0.4735 -1.3964
19755TIP3   OH280679   0.217   4.587   0.199 -0.3056 -0.2727  0.7132
19755TIP3    H180680   0.130   4.606   0.164 -0.3591 -0.5308  0.7047
19755TIP3    H280681   0.200   4.555   0.288 -0.2217 -0.3928  0.6848
19756TIP3   OH280682   1.837   4.352  12.549 -0.2190 -0.8315  0.0036
19756TIP3    H180683   1.826   4.434  12.500 -0.7787 -1.6198 -1.1990
19756TIP3    H280684   1.929   4.329  12.536 -0.1122 -0.5021  0.1693
19757TIP3   OH280685   1.565   0.941   3.682 -0.0099  0.1609 -0.1021
19757TIP3    H180686   1.602   0.962   3.596  1.3895 -0.3067  0.3760
19757TIP3    H280687   1.615   0.994   3.743  0.8803 -1.5686  0.7040
19758TIP3   OH280688   3.017   3.055  15.239 -0.5443 -0.4479 -0.2407
19758TIP3    H180689   2.989   2.964  15.250  0.1005 -0.6980 -0.6897
19758TIP3    H280690   2.949   3.106  15.283  0.8115 -1.3216  2.9841
19759TIP3   OH280691   6.549   0.683  12.746 -0.3217 -0.1328 -0.3537
19759TIP3    H180692   6.507   0.642  12.671  1.1291  0.6067 -1.6001
19759TIP3    H280693   6.639   0.697  12.719 -0.1118  1.3878  1.0270
19760TIP3   OH280694   1.835   0.057   5.551 -0.4013  0.3168  0.1732
19760TIP3    H180695   1.877   0.121   5.608 -2.1218  3.2401 -1.7170
19760TIP3    H280696   1.742   0.062   5.573 -0.7605 -0.3975 -1.0914
19761TIP3   OH280697   4.656   2.658   2.181 -0.3458  0.1728 -0.2982
19761TIP3    H180698   4.675   2.682   2.090 -1.4557 -0.0466 -0.6038
19761TIP3    H280699   4.678   2.735   2.232  0.7296  0.1377 -0.7020
19762TIP3   OH280700   4.922   3.864  16.583  0.4280 -0.5189 -0.2746
19762TIP3    H180701   4.887   3.825  16.663  1.1257  0.8321  0.6888
19762TIP3    H280702   4.919   3.792  16.519 -2.4224 -0.9338  0.2559
19763TIP3   OH280703   0.580   1.887   3.201 -0.1654 -0.0005 -0.1134
19763TIP3    H180704   0.616   1.900   3.113  1.1333 -0.5400  0.3180
19763TIP3    H280705   0.558   1.794   3.203 -0.6865  0.1260 -0.0464
19764TIP3   OH280706   2.759   0.218  11.665 -0.2078  0.1790 -0.0038
19764TIP3    H180707   2.692   0.188  11.603  0.1646 -1.1253  0.2304
19764TIP3    H280708   2.714   0.219  11.750 -0.4284  1.0064 -0.1240
19765TIP3   OH280709   4.148   4.587   3.615 -0.0899 -0.2142 -0.5599
19765TIP3    H180710   4.055   4.578   3.633 -0.1439  1.4451  0.0773
19765TIP3    H280711   4.187   4.607   3.700  0.6676  0.3616 -1.0367
19766TIP3   OH280712   0.765   3.536  12.477 -0.2366 -0.5212 -0.4440
19766TIP3    H180713   0.743   3.468  12.540  3.0781 -2.8968 -1.7225
19766TIP3    H280714   0.685   3.550  12.426 -1.7321 -1.4605  1.5966
19767TIP3   OH280715   6.312   2.937   1.044 -0.1865  0.1181 -0.2225
19767TIP3    H180716   6.359   2.985   0.976  0.2767 -1.0889 -0.7573
19767TIP3    H280717   6.224   2.975   1.043  0.1714  0.9531 -0.6352
19768TIP3   OH280718   2.522   6.561   3.436  0.4563  0.7216 -0.1513
19768TIP3    H180719   2.430   6.573   3.462  0.9292  2.8779  0.6012
19768TIP3    H280720   2.517   6.522   3.349 -1.1945  1.3303 -0.3559
19769TIP3   OH280721   2.313   4.342  13.373 -0.0726 -0.1482  0.0263
19769TIP3    H180722   2.342   4.433  13.387 -0.4196  0.0342 -0.4219
19769TIP3    H280723   2.235   4.350  13.317  1.6468 -0.8593 -2.5825
19770TIP3   OH280724   5.442   1.783  11.788  0.3124  0.2792 -0.0638
19770TIP3    H180725   5.378   1.720  11.755 -1.0186  0.9170  1.2373
19770TIP3    H280726   5.506   1.730  11.836 -0.8370 -0.0718  1.0879
19771TIP3   OH280727   5.936   1.734   1.584 -0.0670 -0.4984 -0.3059
19771TIP3    H180728   5.856   1.681   1.582  0.3950 -1.1900 -0.2804
19771TIP3    H280729   5.986   1.700   1.658  0.9775 -1.1102 -1.2863
19772TIP3   OH280730   0.909   4.140   4.724 -0.4007 -0.1870 -0.2820
19772TIP3    H180731   0.933   4.066   4.780  2.6419  0.7323 -0.2368
19772TIP3    H280732   0.950   4.120   4.640 -0.4329  0.9505 -0.5693
19773TIP3   OH280733   6.655   6.457   5.174  0.3749 -0.3586  0.2613
19773TIP3    H180734   6.610   6.378   5.145 -0.4285  0.2563 -0.2027
19773TIP3    H280735   6.700   6.489   5.095  1.6130 -0.9555  0.7158
19774TIP3   OH280736   6.297   6.403   1.640 -0.0915  0.7262 -0.6917
19774TIP3    H180737   6.382   6.393   1.598  0.2195  1.6617 -0.2936
19774TIP3    H280738   6.235   6.414   1.567  0.2916  1.2078 -0.9485
19775TIP3   OH280739   6.020   6.277  14.054 -0.5688  0.7669 -0.3530
19775TIP3    H180740   6.104   6.246  14.087 -1.6622 -0.3073  1.4451
19775TIP3    H280741   6.004   6.359  14.101 -1.0161  0.4464  0.0522
19776TIP3   OH280742   0.315   3.972   2.024 -0.5892 -0.0145 -0.0378
19776TIP3    H180743   0.371   4.042   1.990 -0.1959 -0.1774  0.2806
19776TIP3    H280744   0.319   3.981   2.119 -2.1758  0.8251 -0.0204
19777TIP3   OH280745   0.407   6.571   6.598  0.1552  0.5693  0.3428
19777TIP3    H180746   0.405   6.637   6.528 -3.4700  0.0687 -0.1384
19777TIP3    H280747   0.372   6.492   6.558  1.4180 -0.7645  1.7978
19778TIP3   OH280748   4.332   3.505  14.820  0.6593  0.3614 -0.4043
19778TIP3    H180749   4.383   3.449  14.880  1.1956  1.7448  0.4605
19778TIP3    H280750   4.319   3.586  14.869  0.1639  1.1141 -1.7733
19779TIP3   OH280751   3.644   6.715  13.926  0.2579  0.6289 -0.1920
19779TIP3    H180752   3.677   6.702  14.016  0.4330 -0.0308 -0.3435
19779TIP3    H280753   3.639   6.810  13.916 -0.4987  0.7036  0.7887
19780TIP3   OH280754   2.746   0.851  16.287  0.5292 -0.3305 -0.4949
19780TIP3    H180755   2.677   0.899  16.243 -1.1756 -1.1712  1.1993
19780TIP3    H280756   2.765   0.902  16.366 -0.4571 -1.7944  0.7047
19781TIP3   OH280757   1.807   2.306  14.603  0.0945  0.1089  0.8026
19781TIP3    H180758   1.864   2.365  14.652  0.0591  0.2261  0.7019
19781TIP3    H280759   1.719   2.338  14.620  0.2545  2.1274 -1.9259
19782TIP3   OH280760   3.077   3.205  15.892 -0.2565 -0.4364 -0.0022
19782TIP3    H180761   3.099   3.186  15.984  0.9935  1.0346  0.0230
19782TIP3    H280762   3.026   3.285  15.896 -0.6857 -0.6811 -0.5553
19783TIP3   OH280763   2.176   5.846  16.639  0.2747 -0.1240 -0.5545
19783TIP3    H180764   2.130   5.922  16.675 -1.6293 -2.0271  1.1589
19783TIP3    H280765   2.268   5.870  16.645 -0.2726  2.0770 -0.1236
19784TIP3   OH280766   5.543   2.942  14.738  0.1744 -0.0419 -0.3402
19784TIP3    H180767   5.556   2.892  14.819  0.0504 -0.5845 -0.6526
19784TIP3    H280768   5.449   2.936  14.721 -0.0641  1.4962  0.3809
19785TIP3   OH280769   2.644   1.999  14.304 -0.1655  0.3542  0.2185
19785TIP3    H180770   2.571   2.051  14.270  0.2521  0.8267  0.0521
19785TIP3    H280771   2.613   1.967  14.389 -1.1865 -0.7663 -0.5527
19786TIP3   OH280772   5.204   4.327   3.203  0.6307 -0.6352 -0.0865
19786TIP3    H180773   5.203   4.253   3.141 -1.5847 -0.3871 -0.3827
19786TIP3    H280774   5.209   4.405   3.148 -0.0014 -0.4572  0.1092
19787TIP3   OH280775   3.206   0.551   5.831  0.1928  0.3160 -0.2402
19787TIP3    H180776   3.112   0.568   5.836  0.4795  1.8361  0.2888
19787TIP3    H280777   3.242   0.590   5.911  0.8547 -3.4214  1.3808
19788TIP3   OH280778   2.785   2.178   5.180  0.4258 -0.5404  0.2719
19788TIP3    H180779   2.849   2.242   5.150  0.1797  0.5216  1.9642
19788TIP3    H280780   2.834   2.120   5.238  0.3411 -1.0580 -0.1703
19789TIP3   OH280781   0.298   5.162  15.624 -0.4707 -0.4278 -0.1068
19789TIP3    H180782   0.295   5.111  15.705  0.3022  0.0085  0.2008
19789TIP3    H280783   0.210   5.197  15.614 -0.4755 -0.2098  0.7208
19790TIP3   OH280784   4.927   5.149  16.149 -0.1083  0.0249 -0.5869
19790TIP3    H180785   4.988   5.078  16.173  0.9962 -0.0078 -3.3043
19790TIP3    H280786   4.895   5.182  16.233  0.8053 -2.4365  0.7957
19791TIP3   OH280787   4.200   3.608  13.936 -0.2373  0.3702 -0.3430
19791TIP3    H180788   4.284   3.566  13.955 -0.0958 -0.2429 -2.1842
19791TIP3    H280789   4.135   3.537  13.941 -0.4152  0.5210 -0.4894
19792TIP3   OH280790   4.350   3.792   5.450 -0.1502  0.3244 -0.0048
19792TIP3    H180791   4.339   3.874   5.402 -2.7101  0.4360  0.6906
19792TIP3    H280792   4.408   3.814   5.523 -0.7938  1.5189  0.1538
19793TIP3   OH280793   2.576   4.272   2.517  0.4748 -0.4786  0.2465
19793TIP3    H180794   2.567   4.242   2.426 -1.6927  1.0641 -0.0817
19793TIP3    H280795   2.615   4.197   2.562  0.6082 -1.6586 -1.7383
19794TIP3   OH280796   0.678   4.378   4.961  0.1672 -0.1785  0.0864
19794TIP3    H180797   0.587   4.353   4.944  0.0335  0.0399  0.4679
19794TIP3    H280798   0.683   4.470   4.939  0.1059 -0.0057  0.7718
19795TIP3   OH280799   3.019   1.861   3.046  0.3094  0.0582  0.3039
19795TIP3    H180800   3.037   1.777   3.004 -3.3281 -0.7666  0.1599
19795TIP3    H280801   2.931   1.884   3.015 -0.1780  2.1906  3.0530
19796TIP3   OH280802   5.766   3.586   2.046 -0.2248 -0.0689  0.4083
19796TIP3    H180803   5.694   3.544   1.999 -0.7266  0.5169  0.6424
19796TIP3    H280804   5.783   3.666   1.996  1.0326 -0.7685 -0.2984
19797TIP3   OH280805   5.992   4.695   3.284 -0.1159 -0.8299  0.0905
19797TIP3    H180806   6.038   4.707   3.367  1.9730  2.6722 -1.4228
19797TIP3    H280807   6.024   4.767   3.229 -3.1373 -1.7124 -2.9937
19798TIP3   OH280808   0.010   1.376   3.837  0.2981  0.5482  0.1068
19798TIP3    H180809  -0.065   1.411   3.885 -0.9571 -2.1538  0.1908
19798TIP3    H280810   0.068   1.342   3.905  0.0239 -0.3970 -0.1321
19799TIP3   OH280811   2.599   5.811  16.481  0.2913 -0.6013  0.2591
19799TIP3    H180812   2.678   5.803  16.427  0.6195  1.8723  0.3431
19799TIP3    H280813   2.540   5.743  16.448  0.8800  0.2003 -2.5397
19800TIP3   OH280814   0.994   6.497   4.815 -0.2809 -0.1111 -0.1464
19800TIP3    H180815   0.920   6.546   4.781 -1.4918 -1.9066 -0.1846
19800TIP3    H280816   0.995   6.416   4.763  1.9935  0.0872 -0.4729
19801TIP3   OH280817   2.147   0.022  17.176 -0.0574 -0.5369 -0.5878
19801TIP3    H180818   2.065   0.031  17.127  1.2157 -0.2935 -2.7399
19801TIP3    H280819   2.215   0.017  17.109  1.6160 -1.7719  1.1331
19802TIP3   OH280820   3.376   2.592   2.682  0.0897  0.6474 -0.2594
19802TIP3    H180821   3.396   2.654   2.611  0.1723  0.9135 -0.0073
19802TIP3    H280822   3.292   2.622   2.716 -0.8033 -0.5245 -1.3764
19803TIP3   OH280823   1.148   1.503  13.768  0.2457 -0.0276 -0.3840
19803TIP3    H180824   1.238   1.525  13.744  0.8899 -0.4918  1.5450
19803TIP3    H280825   1.115   1.454  13.693  2.4040 -1.9169 -0.1569
19804TIP3   OH280826   0.518   0.907  15.353  0.4313 -0.1647 -0.5111
19804TIP3    H180827   0.613   0.902  15.349  0.3154 -2.6166 -1.5534
19804TIP3    H280828   0.490   0.900  15.262 -0.8186 -2.4198  0.0111
19805TIP3   OH280829   4.433   0.070  14.281  0.0893  0.3595  0.0370
19805TIP3    H180830   4.462  -0.011  14.239  0.1574  0.2165  0.3597
19805TIP3    H280831   4.347   0.048  14.318 -0.5507  0.8500 -1.1388
19806TIP3   OH280832   6.665   5.074   3.914  0.5545 -0.1600 -0.1704
19806TIP3    H180833   6.674   4.985   3.948 -1.1208  0.6999  2.7078
19806TIP3    H280834   6.578   5.077   3.876  0.8291  0.0824 -0.7834
19807TIP3   OH280835   2.019   5.555   4.344 -0.3104 -0.3395  0.0408
19807TIP3    H180836   1.936   5.563   4.297 -0.6168 -0.3157  0.5795
19807TIP3    H280837   2.082   5.605   4.292 -0.6457 -0.3349 -0.3526
19808TIP3   OH280838   2.788   5.117   5.637  0.4227 -0.2633  0.6344
19808TIP3    H180839   2.799   5.068   5.719 -0.6776  0.7412  1.3946
19808TIP3    H280840   2.846   5.193   5.647  1.1748 -0.7385 -0.0228
19809TIP3   OH280841   4.267   2.821   4.672  0.0029 -0.4446  0.0995
19809TIP3    H180842   4.225   2.763   4.609 -2.3943  1.0027  0.3122
19809TIP3    H280843   4.361   2.813   4.653 -0.6061 -0.7391 -3.0178
19810TIP3   OH280844   4.574   4.673  16.617  0.2243  0.0120 -0.4176
19810TIP3    H180845   4.532   4.699  16.699  1.4777  0.0215  0.2408
19810TIP3    H280846   4.612   4.587  16.636  1.4813  0.5074 -0.6373
19811TIP3   OH280847   3.917   2.516   2.102 -0.4395 -0.2041  0.2480
19811TIP3    H180848   3.863   2.442   2.075  1.6442 -1.5119 -0.3476
19811TIP3    H280849   3.894   2.529   2.194 -1.9392 -0.5967 -0.0590
19812TIP3   OH280850   6.428   5.813  12.901 -0.2535 -0.2852 -0.6925
19812TIP3    H180851   6.420   5.908  12.904 -1.6370 -0.4259  0.8508
19812TIP3    H280852   6.338   5.782  12.890  0.0154 -1.4657  0.4109
19813TIP3   OH280853   2.687   4.856   3.089  0.3323 -0.0373 -0.3577
19813TIP3    H180854   2.731   4.907   3.157 -1.1004 -0.2217  0.7341
19813TIP3    H280855   2.714   4.766   3.106  1.7563  0.1663 -1.4333
19814TIP3   OH280856   6.325   3.774  11.856 -1.1165  0.0996 -0.5017
19814TIP3    H180857   6.319   3.731  11.940 -0.1916 -1.4017 -1.2032
19814TIP3    H280858   6.416   3.801  11.848 -0.2753 -3.1974 -2.6740
19815TIP3   OH280859   4.106   3.100  15.680  0.5236  0.4372  0.7662
19815TIP3    H180860   4.198   3.081  15.661  0.2154 -3.4851  2.5964
19815TIP3    H280861   4.059   3.064  15.605  0.3554  0.3488  0.9131
19816TIP3   OH280862   0.450   1.844   4.928 -0.5342 -0.5314 -0.3331
19816TIP3    H180863   0.534   1.810   4.896 -0.6893 -0.9202 -0.3200
19816TIP3    H280864   0.460   1.940   4.922  0.1263 -0.5581  0.2079
19817TIP3   OH280865   2.802   3.631   2.525  0.3021 -0.5661 -0.1924
19817TIP3    H180866   2.759   3.550   2.499  0.9536 -0.8463 -0.4155
19817TIP3    H280867   2.754   3.660   2.603 -3.4405  1.6973 -3.1686
19818TIP3   OH280868   3.275   0.321  16.223  0.0879  0.8736  0.1636
19818TIP3    H180869   3.247   0.327  16.131 -0.2446  0.8320  0.2596
19818TIP3    H280870   3.253   0.232  16.249 -1.1080  1.3027  0.6883
19819TIP3   OH280871   6.738   3.428  15.373 -0.5119  0.2369 -0.2603
19819TIP3    H180872   6.699   3.406  15.289  0.7806 -0.3717 -0.7000
19819TIP3    H280873   6.668   3.410  15.437 -0.2835 -2.8070 -0.8375
19820TIP3   OH280874   0.553   2.773  12.383 -0.0346 -0.3354  0.2784
19820TIP3    H180875   0.510   2.813  12.458  1.3477  0.3596  0.7200
19820TIP3    H280876   0.482   2.756  12.321 -1.0177  0.2371  1.2272
19821TIP3   OH280877   1.514   5.631   3.320 -0.1133  0.3786  0.0506
19821TIP3    H180878   1.504   5.602   3.410 -1.0952 -1.4628 -0.6316
19821TIP3    H280879   1.606   5.613   3.299 -0.1994 -0.3449  0.2859
19822TIP3   OH280880   3.610   0.083   1.675 -0.3091  0.4167  0.4644
19822TIP3    H180881   3.529   0.128   1.699  0.1514  0.9481  1.0448
19822TIP3    H280882   3.658   0.146   1.622 -0.1564  0.2078  0.3538
19823TIP3   OH280883   2.414   4.426   6.264  0.0683  0.0568 -0.5264
19823TIP3    H180884   2.334   4.399   6.218  0.4773  0.6664 -1.6274
19823TIP3    H280885   2.398   4.518   6.287  0.0522 -0.1138  0.1486
19824TIP3   OH280886   6.700   0.473  13.800 -0.4543 -0.4387 -0.0030
19824TIP3    H180887   6.651   0.399  13.763 -0.1169 -1.2299  1.1010
19824TIP3    H280888   6.785   0.435  13.823  0.2881  0.6740 -0.8916
19825TIP3   OH280889   0.120   3.376   2.757  0.7049  0.4750  0.2178
19825TIP3    H180890   0.103   3.391   2.850  1.7199 -1.5937  0.7674
19825TIP3    H280891   0.098   3.284   2.743  0.1815  0.8594 -1.7002
19826TIP3   OH280892   1.189   2.127   0.080  0.4911 -0.1405  0.2276
19826TIP3    H180893   1.142   2.210   0.082 -1.6471 -1.2930 -0.4275
19826TIP3    H280894   1.169   2.086   0.164  0.5951 -0.4916  0.0832
19827TIP3   OH280895   6.160   5.359   4.542 -0.2518  0.5160  0.5218
19827TIP3    H180896   6.162   5.450   4.572  0.3561 -0.1105  2.4983
19827TIP3    H280897   6.080   5.322   4.581  1.6533 -0.8940  3.3038
19828TIP3   OH280898   1.165   2.072  12.304  0.7186  0.6863  0.0493
19828TIP3    H180899   1.071   2.058  12.293  0.7463  0.4329  0.1352
19828TIP3    H280900   1.201   2.063  12.216  0.5927  1.3272 -0.0694
19829TIP3   OH280901   3.488   4.383  13.012  0.1693 -0.5642 -0.4818
19829TIP3    H180902   3.445   4.385  13.097  0.3734  0.0785 -0.3920
19829TIP3    H280903   3.445   4.310  12.965  2.0696 -2.8309  1.1941
19830TIP3   OH280904   3.800   3.301   5.973  0.4192  0.2356 -0.3453
19830TIP3    H180905   3.817   3.270   6.062  0.6452  0.6899 -0.2266
19830TIP3    H280906   3.762   3.226   5.928 -0.9771  0.4089  0.5142
19831TIP3   OH280907   0.324   6.017   1.555 -0.0153  0.2093 -0.6011
19831TIP3    H180908   0.244   5.994   1.601 -1.0756  0.4174 -2.2694
19831TIP3    H280909   0.373   5.935   1.547 -0.4064 -0.0610 -0.2039
19832TIP3   OH280910   5.054   6.464  13.234 -0.0743  0.0240 -0.4036
19832TIP3    H180911   5.144   6.444  13.259 -0.1468 -1.5742 -1.3151
19832TIP3    H280912   5.007   6.381  13.246 -1.4681  0.9038  0.2899
19833TIP3   OH280913   3.003   6.256   5.741  0.3166 -0.3216 -0.3144
19833TIP3    H180914   3.090   6.291   5.761 -0.3639  0.6431  1.0768
19833TIP3    H280915   2.960   6.325   5.692  0.1745 -0.6048 -0.5873
19834TIP3   OH280916   6.006   4.379  13.290 -0.3607 -0.0308 -0.3811
19834TIP3    H180917   6.051   4.455  13.327  0.9809 -1.0564  0.1610
19834TIP3    H280918   6.072   4.309  13.291 -0.7457 -0.5205 -3.2762
19835TIP3   OH280919   2.834   6.148   2.843  0.0433 -0.5091 -0.0370
19835TIP3    H180920   2.768   6.162   2.776  0.8752  0.9590 -0.5871
19835TIP3    H280921   2.911   6.116   2.795  0.7284  0.7989  0.1456
19836TIP3   OH280922   6.206   0.053   1.110 -0.1429  0.2728 -0.2158
19836TIP3    H180923   6.163   0.017   1.033 -1.3516  0.4123  0.3834
19836TIP3    H280924   6.234   0.141   1.083  0.9411 -0.2943 -1.0097
19837TIP3   OH280925   0.418   3.813   4.460  0.2857  0.6368 -0.7613
19837TIP3    H180926   0.395   3.752   4.391  1.7666 -0.8232  0.0098
19837TIP3    H280927   0.384   3.773   4.540 -0.5600  1.8427 -0.4945
19838TIP3   OH280928   0.122   5.936   3.786 -0.5197  0.1623 -0.3894
19838TIP3    H180929   0.158   5.852   3.757  0.3578  0.1536  0.7014
19838TIP3    H280930   0.053   5.914   3.848 -1.5354  0.2164 -1.4731
19839TIP3   OH280931   1.525   3.868  16.551  1.0574  0.4061 -0.2537
19839TIP3    H180932   1.432   3.843  16.546  0.2453  2.9903  1.2104
19839TIP3    H280933   1.566   3.821  16.478 -1.1170 -1.9100 -0.0573
19840TIP3   OH280934   1.554   4.061   3.800  0.1164  0.2813  0.3755
19840TIP3    H180935   1.612   4.116   3.747  0.5187 -1.4153 -0.9903
19840TIP3    H280936   1.485   4.034   3.740 -0.3632 -0.2837  1.1723
19841TIP3   OH280937   6.679   4.123   0.403 -0.7072 -0.2376  0.0488
19841TIP3    H180938   6.662   4.066   0.329 -0.1841  0.5024 -0.6515
19841TIP3    H280939   6.714   4.204   0.364 -0.7693  0.2924  1.0641
19842TIP3   OH280940   3.763   1.627  16.482  0.2226 -0.8128 -0.3538
19842TIP3    H180941   3.815   1.573  16.422  1.7314 -0.1324  0.3037
19842TIP3    H280942   3.824   1.695  16.511 -0.9606 -0.1879  0.6858
19843TIP3   OH280943   0.268   6.689   1.723 -0.2008  0.4434 -0.4188
19843TIP3    H180944   0.318   6.635   1.784 -0.3358  0.6776 -0.1001
19843TIP3    H280945   0.180   6.651   1.724  0.2786 -0.7664 -1.9473
19844TIP3   OH280946   0.406   3.616  10.667 -0.5090  0.2292 -0.0353
19844TIP3    H180947   0.420   3.696  10.718  0.5590 -0.8238  1.3810
19844TIP3    H280948   0.317   3.625  10.633 -0.7651  1.5716  0.9226
19845TIP3   OH280949   4.069   0.627   2.608  0.1540  0.7928 -0.1857
19845TIP3    H180950   4.048   0.716   2.577 -4.5050  0.2115  0.8935
19845TIP3    H280951   4.064   0.573   2.530 -0.9142  0.9207 -0.2142
19846TIP3   OH280952   2.575   5.153  11.505 -0.1412  0.2136 -0.1531
19846TIP3    H180953   2.590   5.235  11.552 -2.5956  1.9633 -2.2960
19846TIP3    H280954   2.494   5.118  11.543 -0.4427  0.0506 -0.9380
19847TIP3   OH280955   4.208   5.372  15.180  0.0784  0.0359  0.3998
19847TIP3    H180956   4.149   5.339  15.113  1.4268 -0.0907 -0.7357
19847TIP3    H280957   4.211   5.303  15.246 -1.3787  0.2329  0.7086
19848TIP3   OH280958   2.055   5.056   1.761 -0.0393 -0.3998 -0.0427
19848TIP3    H180959   2.007   5.121   1.709 -0.6821 -1.1175 -0.3471
19848TIP3    H280960   2.123   5.107   1.805  1.4191  0.0102 -2.6675
19849TIP3   OH280961   2.355   2.098   0.967  0.0867 -0.2967  0.3360
19849TIP3    H180962   2.364   2.005   0.944 -0.6051 -0.1348 -0.6275
19849TIP3    H280963   2.266   2.106   0.999  0.1529  0.0292  0.4410
19850TIP3   OH280964   0.874   1.567  15.357 -0.1685 -0.1791  0.4009
19850TIP3    H180965   0.793   1.520  15.334  0.5348 -0.9913 -0.4700
19850TIP3    H280966   0.862   1.654  15.320 -0.0939 -0.7176 -0.9428
19851TIP3   OH280967   2.583   1.357   2.568 -0.6319 -0.6262  0.2453
19851TIP3    H180968   2.490   1.338   2.564 -1.2893  2.3701  0.5127
19851TIP3    H280969   2.592   1.420   2.640  1.3400  0.5258 -0.9757
19852TIP3   OH280970   3.408   2.897  17.013 -0.5822  0.0697  0.5019
19852TIP3    H180971   3.327   2.862  17.051 -1.2134  0.3026 -0.6093
19852TIP3    H280972   3.441   2.825  16.959 -1.5064  0.9102 -1.2200
19853TIP3   OH280973   2.958   2.302  11.697 -0.6995 -0.4199 -0.1347
19853TIP3    H180974   2.914   2.276  11.616 -1.0631 -0.4363  0.0656
19853TIP3    H280975   3.000   2.222  11.728  0.7557 -0.0556 -1.1199
19854TIP3   OH280976   3.622   4.507  16.072 -0.0901  0.3973 -0.7841
19854TIP3    H180977   3.653   4.560  15.998  2.4986 -0.2960 -0.2305
19854TIP3    H280978   3.637   4.562  16.149  1.3295 -0.5734 -0.3497
19855TIP3   OH280979   2.786   1.151  13.706  0.7413  0.7685 -0.2287
19855TIP3    H180980   2.879   1.128  13.707  0.8725  1.2411 -0.9384
19855TIP3    H280981   2.749   1.098  13.634  0.6453  1.2454 -0.5360
19856TIP3   OH280982   3.608   3.299  11.318  0.0756 -0.6135  0.1484
19856TIP3    H180983   3.659   3.360  11.371  0.9301 -1.6344  0.5370
19856TIP3    H280984   3.672   3.232  11.292 -0.5259 -0.5649 -1.4683
19857TIP3   OH280985   3.751   2.464   0.799  0.3271  0.0037 -0.0143
19857TIP3    H180986   3.658   2.467   0.780  0.6959  1.3319 -1.6774
19857TIP3    H280987   3.762   2.386   0.854 -1.6357 -0.5634 -0.4050
19858TIP3   OH280988   6.283   1.810  17.084  0.1986 -0.1447  0.5297
19858TIP3    H180989   6.348   1.880  17.083 -0.3688  0.3921  0.6822
19858TIP3    H280990   6.333   1.730  17.099  0.7458  0.3365  1.2850
19859TIP3   OH280991   5.295   5.498  15.964 -0.3741  0.0577 -0.3548
19859TIP3    H180992   5.293   5.498  15.868  0.5332  0.9457 -0.3841
19859TIP3    H280993   5.204   5.485  15.990 -0.1431 -3.8598 -1.3232
19860TIP3   OH280994   4.460   1.567   6.315  0.0693 -0.3506  0.4762
19860TIP3    H180995   4.474   1.552   6.408  1.8204 -0.0600  0.2918
19860TIP3    H280996   4.515   1.643   6.294 -2.4257  1.3254 -0.2441
19861TIP3   OH280997   2.381   0.707  13.442 -0.5230  0.6824 -0.2161
19861TIP3    H180998   2.335   0.783  13.406 -1.9805 -0.9803 -1.9547
19861TIP3    H280999   2.352   0.703  13.533 -0.0180  2.4976  0.0529
19862TIP3   OH281000   1.940   4.055  13.644 -0.2706  0.5879 -0.7718
19862TIP3    H181001   1.853   4.094  13.644  0.0427  1.2995 -1.2654
19862TIP3    H281002   2.000   4.130  13.639  0.3443  0.0718 -1.1902
19863TIP3   OH281003   1.629   2.508   2.531  0.0163 -0.4979 -0.3103
19863TIP3    H181004   1.656   2.590   2.489  0.2854 -0.4679 -0.0769
19863TIP3    H281005   1.689   2.442   2.498 -0.9358 -0.8312 -1.4118
19864TIP3   OH281006   3.292   2.260  12.051  0.6366 -0.1417 -0.1289
19864TIP3    H181007   3.332   2.245  11.965  0.5955 -1.2343  0.0262
19864TIP3    H281008   3.236   2.336  12.039  1.6019  0.4751 -0.7421
19865TIP3   OH281009   4.501   1.951  15.328  0.0932  0.3445 -0.7561
19865TIP3    H181010   4.583   1.950  15.377  1.5736 -1.0987 -3.1775
19865TIP3    H281011   4.445   2.012  15.376  1.4666 -1.0162  2.7110
19866TIP3   OH281012   3.809   0.042   3.167 -0.0118  0.5294  0.0198
19866TIP3    H181013   3.860   0.009   3.093 -0.2026 -0.7333  0.4280
19866TIP3    H281014   3.736  -0.019   3.174 -0.2252  0.8867  0.9865
19867TIP3   OH281015   0.033   1.530   0.763 -0.3023 -0.0815  0.0437
19867TIP3    H181016  -0.054   1.568   0.775 -2.1602 -4.2261  0.3989
19867TIP3    H281017   0.086   1.570   0.832 -2.1590  1.7459  0.4770
19868TIP3   OH281018   4.394   3.233   0.806  0.2319  0.5143 -0.4606
19868TIP3    H181019   4.357   3.295   0.870 -0.7945  1.4067 -1.8954
19868TIP3    H281020   4.343   3.247   0.727  1.1877 -0.9266 -1.3501
19869TIP3   OH281021   0.852   0.899   0.435 -0.4177 -0.7147  0.1766
19869TIP3    H181022   0.768   0.945   0.430 -0.3846 -0.8402 -1.8090
19869TIP3    H281023   0.831   0.817   0.481 -1.2732 -0.5210  0.1453
19870TIP3   OH281024   4.372   3.203  11.910 -0.3693  0.4989 -0.1882
19870TIP3    H181025   4.397   3.120  11.870 -1.8132  1.3326 -2.9079
19870TIP3    H281026   4.305   3.180  11.974  0.2221 -0.5734  0.0520
19871TIP3   OH281027   4.240   4.153  16.662  0.1778 -0.0200 -0.2566
19871TIP3    H181028   4.216   4.064  16.685  1.0465  0.3207  2.1320
19871TIP3    H281029   4.333   4.160  16.683 -0.4517  2.1791  2.1441
19872TIP3   OH281030   0.746   0.252  12.011 -0.2404 -0.1285  0.1973
19872TIP3    H181031   0.802   0.175  12.003  1.2600  1.0003 -0.5169
19872TIP3    H281032   0.676   0.226  12.071  0.4752 -1.8997  0.2709
19873TIP3   OH281033   1.937   1.514   5.676 -0.4770  0.0359 -0.4149
19873TIP3    H181034   1.946   1.419   5.663 -1.8559 -0.0287 -1.0582
19873TIP3    H281035   2.011   1.552   5.629 -0.2247 -0.7029 -0.6251
19874TIP3   OH281036   0.464   0.755   1.187 -0.0727 -0.6536 -0.4200
19874TIP3    H181037   0.376   0.787   1.171  0.0534 -1.1683 -2.3494
19874TIP3    H281038   0.521   0.826   1.159  0.1325 -0.2786  0.9273
19875TIP3   OH281039   3.938   1.832  11.227  0.2958 -0.2864 -0.2106
19875TIP3    H181040   3.969   1.876  11.306  0.8072 -1.3498  0.1915
19875TIP3    H281041   4.004   1.854  11.160  0.6076 -0.5299  0.0164
19876TIP3   OH281042   3.775   5.282  11.835  0.2219  0.1503 -0.0529
19876TIP3    H181043   3.786   5.359  11.779 -3.6396 -0.2545 -1.5118
19876TIP3    H281044   3.730   5.314  11.913  0.9893 -0.2066  0.5506
19877TIP3   OH281045   4.064   5.453   3.581  0.1889 -0.2140 -0.3916
19877TIP3    H181046   4.070   5.467   3.486  1.1231  1.7214 -0.0885
19877TIP3    H281047   3.990   5.507   3.608 -1.4717 -2.5190 -0.3175
19878TIP3   OH281048   5.018   2.342  11.685  0.1680 -0.2850 -0.8509
19878TIP3    H181049   5.032   2.247  11.687  0.8057 -0.1802  0.4070
19878TIP3    H281050   5.072   2.374  11.613  1.2367 -0.6915 -0.2462
19879TIP3   OH281051   3.296   3.230   0.650  0.3650  0.2194 -0.1836
19879TIP3    H181052   3.387   3.257   0.638  0.5509 -0.7099 -0.8831
19879TIP3    H281053   3.297   3.135   0.640 -0.5596  0.1128  0.5924
19880TIP3   OH281054   5.123   5.457   2.865  0.2568  0.5122  0.0795
19880TIP3    H181055   5.050   5.414   2.909  0.0963  0.0153 -0.6594
19880TIP3    H281056   5.085   5.492   2.784  1.0509 -0.6813 -0.8288
19881TIP3   OH281057   1.280   5.258  12.645 -1.0648  0.1542  0.1025
19881TIP3    H181058   1.314   5.303  12.722 -0.7239  0.8029 -0.4263
19881TIP3    H281059   1.270   5.326  12.579 -0.2778 -0.5888 -0.7959
19882TIP3   OH281060   3.047   0.880  12.813  0.0382  0.5635 -0.2127
19882TIP3    H181061   2.951   0.880  12.804  0.0208 -0.1033 -0.0017
19882TIP3    H281062   3.071   0.788  12.819  0.6485  0.7568  0.2996
19883TIP3   OH281063   2.348   0.418   3.928 -0.0673  0.3246  0.0555
19883TIP3    H181064   2.432   0.433   3.885  0.4202  0.9519  1.2133
19883TIP3    H281065   2.360   0.338   3.978  0.0038  0.7037  0.6429
19884TIP3   OH281066   5.400   2.600  13.066  0.5345 -0.2640  0.1216
19884TIP3    H181067   5.344   2.561  12.999  0.3443  0.5359 -0.1948
19884TIP3    H281068   5.468   2.646  13.017  0.2916  0.4798  0.4693
19885TIP3   OH281069   0.617   5.810   0.664 -0.1067  0.3181  0.2089
19885TIP3    H181070   0.557   5.739   0.642 -0.1678  0.6376 -0.7067
19885TIP3    H281071   0.667   5.778   0.739  0.5549 -1.0727 -0.8136
19886TIP3   OH281072   0.353   2.324   4.199  0.1774  0.7612  0.6774
19886TIP3    H181073   0.404   2.332   4.280 -0.7347  0.5435  1.2967
19886TIP3    H281074   0.264   2.351   4.225 -0.3405 -0.2642 -0.0174
19887TIP3   OH281075   5.772   0.811  11.594  0.0657 -1.0362 -0.1890
19887TIP3    H181076   5.819   0.801  11.677 -1.2391 -1.6228  0.4913
19887TIP3    H281077   5.792   0.732  11.545 -0.4323 -1.4120  0.2121
19888TIP3   OH281078   0.833   0.601  11.235 -0.0712  0.0277 -0.2902
19888TIP3    H181079   0.893   0.526  11.223 -2.4079 -2.0854  0.7032
19888TIP3    H281080   0.755   0.577  11.185 -0.2732  2.5404 -1.2044
19889TIP3   OH281081   3.510   2.784   4.682  0.2272  0.0220 -0.0884
19889TIP3    H181082   3.482   2.693   4.690 -2.2175  0.7512  0.1984
19889TIP3    H281083   3.475   2.813   4.598  1.0267  0.6848 -0.2018
19890TIP3   OH281084   4.904   2.345  14.636  0.1030 -0.8328  0.2876
19890TIP3    H181085   4.958   2.390  14.571 -0.5718 -0.3920  0.0328
19890TIP3    H281086   4.815   2.349  14.601 -0.2012 -0.9567  1.0327
19891TIP3   OH281087   0.653   4.862  15.971 -0.6751 -0.4283 -0.3312
19891TIP3    H181088   0.647   4.935  15.910 -0.2605  0.3192  0.5055
19891TIP3    H281089   0.679   4.787  15.917  0.1621  0.3265 -0.9842
19892TIP3   OH281090   4.530   4.124  11.758  0.1771 -0.3353  0.5360
19892TIP3    H181091   4.572   4.158  11.679  1.0850 -1.3206  0.5908
19892TIP3    H281092   4.599   4.122  11.824 -0.3670 -0.3516  1.1171
19893TIP3   OH281093   0.774   0.469   3.144  0.4452  0.0755 -0.3521
19893TIP3    H181094   0.715   0.452   3.218  1.7217  0.2568  0.7373
19893TIP3    H281095   0.820   0.550   3.168  2.2640 -0.9098 -0.4339
19894TIP3   OH281096   0.276   0.659  16.611  0.3255 -0.3390  0.4643
19894TIP3    H181097   0.189   0.624  16.634  0.1332  0.2661  0.6682
19894TIP3    H281098   0.300   0.613  16.531 -0.6195  0.2197 -0.1375
19895TIP3   OH281099   3.378   6.597   5.075 -0.5292  0.0284  0.0997
19895TIP3    H181100   3.286   6.571   5.072 -0.9741  1.2655  2.0084
19895TIP3    H281101   3.388   6.640   5.160  1.8944 -0.3515  0.0451
19896TIP3   OH281102   4.255   6.678   3.300  0.6637  0.1632 -0.1812
19896TIP3    H181103   4.273   6.747   3.364  0.1514  1.0486 -0.9771
19896TIP3    H281104   4.178   6.633   3.334  0.2430  0.7910 -0.2968
19897TIP3   OH281105   1.774   0.606   6.431  0.2634  0.3726  0.0861
19897TIP3    H181106   1.754   0.682   6.376  0.1735  1.0575  1.0648
19897TIP3    H281107   1.743   0.531   6.380  0.6144  0.9613 -1.0110
19898TIP3   OH281108   0.251   3.380   2.494  0.5309 -0.3688 -0.8579
19898TIP3    H181109   0.339   3.420   2.492  0.2793  0.2118 -0.6740
19898TIP3    H281110   0.243   3.346   2.583 -0.1733  1.3281 -0.2347
19899TIP3   OH281111   3.057   1.160   3.139 -0.1578 -0.1244 -0.1166
19899TIP3    H181112   3.025   1.223   3.204  0.9010  0.8620 -0.5461
19899TIP3    H281113   3.003   1.177   3.062 -1.7378 -1.6148  0.6328
19900TIP3   OH281114   4.111   3.093  13.031  0.1405  0.0911  0.0856
19900TIP3    H181115   4.201   3.105  13.059  1.2412  1.2151 -3.6440
19900TIP3    H281116   4.074   3.032  13.095  4.1795 -2.2086  0.3889
19901TIP3   OH281117   1.928   4.137   1.277 -0.3797  0.1539 -0.0606
19901TIP3    H181118   1.989   4.070   1.309  0.5360  0.6697 -0.7082
19901TIP3    H281119   1.844   4.091   1.268 -0.1015 -0.5470  0.8825
19902TIP3   OH281120   4.152   4.114   4.346  0.5409 -1.0487 -0.3773
19902TIP3    H181121   4.092   4.129   4.273  0.7404 -0.3060 -0.3919
19902TIP3    H281122   4.227   4.069   4.307  1.4335  0.8975 -0.9811
19903TIP3   OH281123   3.978   0.229   4.680 -0.0338  0.5546 -0.2927
19903TIP3    H181124   3.971   0.135   4.665 -0.2948  0.7181 -1.2323
19903TIP3    H281125   4.044   0.258   4.618  1.1670  0.7623  1.0414
19904TIP3   OH281126   1.328   2.503   5.327  0.1742  0.0370 -0.2015
19904TIP3    H181127   1.332   2.597   5.344  1.1008 -0.0998  0.3948
19904TIP3    H281128   1.266   2.494   5.255 -1.9576  0.8779  1.4906
19905TIP3   OH281129   3.057   6.179   5.319  0.0081  0.0075 -0.7923
19905TIP3    H181130   3.016   6.095   5.342  0.3966 -0.3626 -1.4407
19905TIP3    H281131   3.024   6.199   5.231 -0.6345  0.8894 -0.3631
19906TIP3   OH281132   4.540   5.166  13.655  0.0916  0.2594  0.3004
19906TIP3    H181133   4.528   5.191  13.746 -1.5653  0.9598 -0.0955
19906TIP3    H281134   4.626   5.123  13.653 -0.9810 -2.1507  2.6684
19907TIP3   OH281135   1.838   1.895   2.208 -0.0868 -0.1818 -0.8203
19907TIP3    H181136   1.911   1.840   2.181  0.4714 -0.3480  0.9316
19907TIP3    H281137   1.763   1.835   2.215 -0.2838 -0.0974 -2.1519
19908TIP3   OH281138   4.158   0.156  14.973  0.0721 -0.0195  0.5871
19908TIP3    H181139   4.121   0.237  15.007 -0.1617  1.1039 -2.2030
19908TIP3    H281140   4.249   0.156  15.005 -0.1144  1.0072  1.1287
19909TIP3   OH281141   2.510   3.633   1.857 -0.5544 -0.3025  0.2149
19909TIP3    H181142   2.428   3.682   1.866  1.3777  2.4440  4.1807
19909TIP3    H281143   2.512   3.576   1.934  0.4952 -1.6163 -0.7532
19910TIP3   OH281144   0.507   0.522   1.659 -0.4503  0.5096  0.1862
19910TIP3    H181145   0.554   0.445   1.627 -1.2943  0.2637 -0.4895
19910TIP3    H281146   0.510   0.583   1.585  2.1734  2.0207  1.4983
19911TIP3   OH281147   6.686   1.449  15.708  0.4711  0.3069 -0.0044
19911TIP3    H181148   6.662   1.536  15.739 -1.6179 -0.3327  0.2264
19911TIP3    H281149   6.781   1.444  15.721  0.6978  2.7422 -0.5484
19912TIP3   OH281150   1.117   1.508   1.739  0.1893  0.0303 -0.3879
19912TIP3    H181151   1.193   1.551   1.778  0.4857 -1.3467  0.5576
19912TIP3    H281152   1.143   1.491   1.649  1.7768 -2.2436  0.4554
19913TIP3   OH281153   1.846   0.800  15.716 -0.3250 -0.7099 -0.0756
19913TIP3    H181154   1.907   0.783  15.787 -0.6212  1.4350  0.7227
19913TIP3    H281155   1.902   0.814  15.639  0.1488  0.1487  0.4166
19914TIP3   OH281156   3.170   6.119   0.978  0.2407  0.3541 -0.0257
19914TIP3    H181157   3.086   6.074   0.966  0.0587  0.8472 -0.6410
19914TIP3    H281158   3.229   6.078   0.914  0.6855 -0.5080  0.9184
19915TIP3   OH281159   5.996   4.784   3.021  0.5233 -0.0849 -0.7736
19915TIP3    H181160   6.086   4.814   3.029  0.5805 -0.3548 -0.3678
19915TIP3    H281161   5.985   4.765   2.928  1.5457 -2.0301 -0.5268
19916TIP3   OH281162   1.195   0.159  11.680  0.2128 -0.1474  0.5748
19916TIP3    H181163   1.156   0.093  11.623 -0.9459  1.0662 -0.0752
19916TIP3    H281164   1.284   0.128  11.696  0.1070 -1.1967 -0.7766
19917TIP3   OH281165   5.374   5.147   4.836 -0.1506 -0.7110  0.2427
19917TIP3    H181166   5.285   5.143   4.799 -1.1626 -1.6071  2.6852
19917TIP3    H281167   5.381   5.069   4.891  2.5873 -1.2403 -0.7674
19918TIP3   OH281168   4.040   5.669  16.286 -0.6096  0.5311  0.1627
19918TIP3    H181169   4.061   5.577  16.270 -0.3259  0.4508  0.9497
19918TIP3    H281170   3.978   5.667  16.359 -0.3357  0.9759  0.4103
19919TIP3   OH281171   1.219   2.977   1.157 -0.3935 -0.0939  0.1415
19919TIP3    H181172   1.310   2.952   1.170 -0.0104  0.2737 -1.6463
19919TIP3    H281173   1.168   2.903   1.191  0.5798 -0.6233  0.4629
19920TIP3   OH281174   3.901   1.988  12.805 -0.3815  0.1397  0.0881
19920TIP3    H181175   3.939   2.075  12.810 -0.3872  0.2187 -1.0153
19920TIP3    H281176   3.941   1.948  12.727 -1.7686 -0.1399 -0.5165
19921TIP3   OH281177   3.333   4.275  16.633 -0.9242  0.0561 -0.8045
19921TIP3    H181178   3.275   4.322  16.572 -0.2515  0.9819 -0.7519
19921TIP3    H281179   3.401   4.339  16.655 -1.1141 -0.2879  0.8646
19922TIP3   OH281180   3.682   2.400  14.405  0.5770 -0.5065  0.5489
19922TIP3    H181181   3.762   2.371  14.363  0.7672  0.3508  0.3000
19922TIP3    H281182   3.664   2.485  14.365 -0.4755 -0.7072  0.5728
19923TIP3   OH281183   5.048   4.890  12.245  0.4586  0.3527  0.3056
19923TIP3    H181184   5.013   4.803  12.223 -1.6298  1.0548  0.7776
19923TIP3    H281185   5.123   4.872  12.302  0.8166 -1.1716 -0.6097
19924TIP3   OH281186   0.486   6.741  12.719 -0.7299 -0.0059  0.1705
19924TIP3    H181187   0.551   6.676  12.692 -1.1655 -0.8623  1.1242
19924TIP3    H281188   0.413   6.730  12.658 -0.4983  0.0920 -0.1233
19925TIP3   OH281189   3.916   6.680  14.395  0.1394  0.0406 -0.6634
19925TIP3    H181190   3.843   6.706  14.451  2.0308 -0.6978  2.2292
19925TIP3    H281191   3.967   6.760  14.382  0.3366 -0.0317 -0.3412
19926TIP3   OH281192   0.176   4.967  13.591  0.1990  0.0580  0.1305
19926TIP3    H181193   0.116   4.918  13.647  0.3457  0.9464  1.0977
19926TIP3    H281194   0.200   5.044  13.644 -1.8837  2.4287 -2.2310
19927TIP3   OH281195   0.956   1.323   3.000 -0.2806 -0.1423 -0.0660
19927TIP3    H181196   0.881   1.381   3.013  1.2441  1.9478 -0.3496
19927TIP3    H281197   0.928   1.263   2.930 -1.7953  0.4106  0.0507
19928TIP3   OH281198   5.111   4.860   4.051  0.7937 -0.2471 -0.3394
19928TIP3    H181199   5.143   4.843   4.140 -0.7029  1.2147  0.5063
19928TIP3    H281200   5.130   4.780   4.003  0.4837 -1.5381  1.6284
19929TIP3   OH281201   1.968   3.731   6.193  0.2868 -0.0222  0.3118
19929TIP3    H181202   2.005   3.816   6.167  1.4283 -0.6972 -0.3212
19929TIP3    H281203   2.010   3.668   6.135 -0.0310 -1.1131  1.2425
19930TIP3   OH281204   4.678   3.356   4.603  0.2855  0.5003  0.0001
19930TIP3    H181205   4.643   3.277   4.562  1.2635 -0.9304  1.8162
19930TIP3    H281206   4.603   3.397   4.647  0.4643 -1.5126  2.2685
19931TIP3   OH281207   4.667   1.637  11.599  0.0265  0.3374 -0.2625
19931TIP3    H181208   4.755   1.624  11.635  0.1273  0.0997 -0.6019
19931TIP3    H281209   4.629   1.706  11.654 -0.2266 -0.7971  1.0178
19932TIP3   OH281210   5.322   2.888  14.328 -0.0314 -0.2613 -0.1145
19932TIP3    H181211   5.252   2.935  14.372 -0.7190 -3.1637  2.0380
19932TIP3    H281212   5.403   2.923  14.365 -0.4516  0.7013 -0.1061
19933TIP3   OH281213   4.729   1.403   6.909 -0.0383  0.6744 -0.2169
19933TIP3    H181214   4.635   1.386   6.911 -0.1156  1.2763  1.2744
19933TIP3    H281215   4.737   1.484   6.858 -0.8346  3.7244  4.2359
19934TIP3   OH281216   4.454   5.108   4.387  0.3848 -0.8084 -0.2297
19934TIP3    H181217   4.546   5.081   4.378  0.7781 -0.8009  2.9650
19934TIP3    H281218   4.410   5.032   4.424 -0.9556 -0.8701 -1.9238
19935TIP3   OH281219   6.722   4.047   5.883  0.4697  0.2606  0.3573
19935TIP3    H181220   6.759   4.135   5.886 -1.9930  1.4509 -1.5672
19935TIP3    H281221   6.641   4.053   5.934 -1.0589 -0.1226 -1.9309
19936TIP3   OH281222   3.263   6.582  11.900  0.2170 -0.4839  0.2165
19936TIP3    H181223   3.221   6.634  11.968  1.8618  0.0800  0.8197
19936TIP3    H281224   3.355   6.610  11.901  0.6457 -1.7792 -0.9826
19937TIP3   OH281225   2.355   0.469  16.939  0.7676 -0.4883 -0.1145
19937TIP3    H181226   2.448   0.488  16.928  0.9171 -1.7534 -1.2392
19937TIP3    H281227   2.318   0.475  16.851  0.2184 -2.1100 -0.0157
19938TIP3   OH281228   2.178   4.350   2.925 -0.3889 -0.4290  0.3487
19938TIP3    H181229   2.258   4.298   2.930 -0.8285 -1.1230  0.2487
19938TIP3    H281230   2.201   4.424   2.869  0.4630 -0.1054  1.1196
19939TIP3   OH281231   3.431   0.399   5.247  0.8711  0.5329  0.0825
19939TIP3    H181232   3.350   0.371   5.288  0.2676 -0.6726 -1.8546
19939TIP3    H281233   3.475   0.317   5.223  1.1121  1.1864 -1.7954
19940TIP3   OH281234   3.293   5.392  10.811 -0.0609  0.0781  0.4475
19940TIP3    H181235   3.210   5.398  10.764  0.5783 -1.9484 -1.0118
19940TIP3    H281236   3.315   5.482  10.833 -2.0770  0.7387 -0.1334
19941TIP3   OH281237   0.643   1.755   1.143 -0.3121 -0.0126 -0.7365
19941TIP3    H181238   0.636   1.848   1.122 -1.0730  0.2419  0.6530
19941TIP3    H281239   0.709   1.722   1.081 -0.0789  1.4281 -1.2737
19942TIP3   OH281240   5.606   4.110  15.828  0.3639 -0.7541 -0.4217
19942TIP3    H181241   5.513   4.087  15.822  0.3252 -0.8284  0.3408
19942TIP3    H281242   5.613   4.155  15.913  1.0610 -0.9284 -0.3881
19943TIP3   OH281243   4.616   4.689   3.449  0.1713  0.5606  0.2607
19943TIP3    H181244   4.600   4.613   3.505  2.1797  0.1474  0.3170
19943TIP3    H281245   4.687   4.737   3.493  0.5866  1.1550 -1.0311
19944TIP3   OH281246   0.968   1.228   1.819 -0.2924  0.2061 -0.3947
19944TIP3    H181247   0.889   1.234   1.765  0.7490  0.3627 -1.9068
19944TIP3    H281248   1.028   1.292   1.781  0.8451 -0.4404  0.2962
19945TIP3   OH281249   3.993   3.540   2.073  0.1704 -0.8366  0.0592
19945TIP3    H181250   4.018   3.631   2.059  0.0387 -0.7724  0.2336
19945TIP3    H281251   3.998   3.500   1.987 -0.5047 -0.4755 -0.1474
19946TIP3   OH281252   5.124   0.458   1.250  0.2673  0.2244 -0.2534
19946TIP3    H181253   5.150   0.444   1.341 -2.1758 -0.9317  0.2939
19946TIP3    H281254   5.116   0.369   1.214  1.7912  0.6708 -1.8016
19947TIP3   OH281255   1.498   0.134   1.924 -0.0976 -0.0172 -0.4454
19947TIP3    H181256   1.466   0.062   1.870  0.1925  1.9470 -3.3259
19947TIP3    H281257   1.422   0.163   1.973 -0.6384 -1.0362 -0.6667
19948TIP3   OH281258   3.394   1.789   3.250  0.9756 -0.0822  0.2932
19948TIP3    H181259   3.363   1.758   3.164  1.8959 -0.3788  0.0663
19948TIP3    H281260   3.334   1.748   3.312 -0.0178  0.5510 -0.2395
19949TIP3   OH281261   5.455   2.814   1.797 -0.3251  0.0356 -0.7636
19949TIP3    H181262   5.423   2.892   1.842  0.9555  0.3100 -0.2816
19949TIP3    H281263   5.531   2.846   1.747  0.2032 -0.8887 -0.5576
19950TIP3   OH281264   1.681   4.910  12.490 -0.3039  0.1442  0.4175
19950TIP3    H181265   1.624   4.927  12.565 -1.9375  0.8326 -0.9300
19950TIP3    H281266   1.688   4.995  12.446  1.3777 -0.0561  0.2792
19951TIP3   OH281267   0.320   1.123   2.812 -0.4657 -0.2798  0.0392
19951TIP3    H181268   0.326   1.169   2.728 -0.2379 -0.4159 -0.0177
19951TIP3    H281269   0.262   1.179   2.865  1.1543  0.9644  0.5479
19952TIP3   OH281270   3.585   0.730  11.856 -0.1394  0.1034  0.2415
19952TIP3    H181271   3.527   0.715  11.931 -1.0950  0.1391 -0.4763
19952TIP3    H281272   3.592   0.644  11.814  0.1941  0.1369  0.2284
19953TIP3   OH281273   5.441   3.016   5.514 -0.2535 -0.4143  0.2315
19953TIP3    H181274   5.426   2.923   5.499 -1.2322 -0.4354  1.2731
19953TIP3    H281275   5.356   3.050   5.540  0.1877  0.7005  0.2395
19954TIP3   OH281276   3.270   4.228  10.771 -0.0947 -0.0185 -0.2027
19954TIP3    H181277   3.179   4.244  10.749  0.1112  1.5501  0.0016
19954TIP3    H281278   3.295   4.152  10.718 -1.8757 -1.3135  0.7502
19955TIP3   OH281279   2.925   1.520  14.090 -0.5095  0.2319  0.2395
19955TIP3    H181280   2.940   1.603  14.045 -0.6915  0.6084  0.8638
19955TIP3    H281281   3.010   1.497  14.127  0.7114 -2.1533 -3.6741
19956TIP3   OH281282   5.315   1.862   1.046 -0.4960  0.2035 -0.1460
19956TIP3    H181283   5.390   1.919   1.062  0.9438 -0.6725 -3.4620
19956TIP3    H281284   5.248   1.920   1.010 -0.2796  0.4441 -0.1637
19957TIP3   OH281285   1.018   5.323   5.358  0.0127  0.3488  0.2128
19957TIP3    H181286   1.031   5.386   5.429 -0.0697  0.4005  0.1823
19957TIP3    H281287   1.099   5.273   5.355  0.4377  1.0611 -0.3731
19958TIP3   OH281288   2.063   4.874  15.204 -0.6438  0.6862  0.5653
19958TIP3    H181289   2.057   4.969  15.196 -0.7818  0.4911 -1.8644
19958TIP3    H281290   2.153   4.853  15.176 -0.9854  0.0009 -0.0327
19959TIP3   OH281291   0.986   4.785   1.621  0.0082  0.1046  0.0093
19959TIP3    H181292   1.001   4.864   1.673 -0.5974  0.3530 -0.1898
19959TIP3    H281293   1.012   4.714   1.679 -0.2002  0.4085  0.4838
19960TIP3   OH281294   2.412   3.096  12.392 -0.5117 -0.2203 -0.1170
19960TIP3    H181295   2.376   3.183  12.379  1.9100  0.5575 -2.1040
19960TIP3    H281296   2.432   3.065  12.303  0.7879 -1.8248  0.7041
19961TIP3   OH281297   1.070   3.165   6.156 -0.2640 -0.2236  0.0473
19961TIP3    H181298   1.007   3.229   6.124  1.0639  1.0117 -0.1250
19961TIP3    H281299   1.054   3.161   6.250  1.4942  2.4665  0.5185
19962TIP3   OH281300   2.932   1.233   2.866  0.3160 -0.2671  0.1482
19962TIP3    H181301   2.939   1.254   2.773 -0.5722  0.3753  0.2171
19962TIP3    H281302   2.840   1.247   2.886  0.4413 -0.7353  1.0505
19963TIP3   OH281303   4.138   6.159  15.415  0.4255 -0.0214  0.5654
19963TIP3    H181304   4.073   6.112  15.363 -0.6020  1.8586  0.1314
19963TIP3    H281305   4.222   6.122  15.387 -0.2269 -0.2164 -1.1929
19964TIP3   OH281306   4.355   2.432  11.644  0.3797  0.2033 -0.0135
19964TIP3    H181307   4.286   2.470  11.700  1.0722  0.1144  0.9079
19964TIP3    H281308   4.334   2.463  11.556 -0.8884  0.1208  0.2448
19965TIP3   OH281309   0.297   3.115   0.610 -0.1258 -0.2870 -0.2600
19965TIP3    H181310   0.228   3.071   0.661  0.8916 -1.8402 -0.1776
19965TIP3    H281311   0.374   3.113   0.668  0.9542 -1.7635 -1.6942
19966TIP3   OH281312   2.448   1.924   2.398  0.2845  0.3828  0.2211
19966TIP3    H181313   2.528   1.921   2.450  1.5638  0.8781 -1.6780
19966TIP3    H281314   2.452   1.845   2.343  0.0125  0.9772 -0.6592
19967TIP3   OH281315   4.915   1.698  12.312 -0.7230  0.2277 -0.1215
19967TIP3    H181316   4.994   1.707  12.365  0.9512 -1.5737 -2.1846
19967TIP3    H281317   4.853   1.653  12.369  0.7849 -1.0136  0.5776
19968TIP3   OH281318   4.213   3.931   2.615  0.0991 -0.2024  0.0437
19968TIP3    H181319   4.298   3.899   2.644  0.0208  0.9145  1.5780
19968TIP3    H281320   4.150   3.878   2.663 -0.0561  0.1257  0.2051
19969TIP3   OH281321   0.970   4.489  14.574 -0.0370  0.0155 -0.8099
19969TIP3    H181322   0.974   4.583  14.591 -1.2176  0.3557 -2.2694
19969TIP3    H281323   0.881   4.464  14.599 -0.2095 -0.4120 -1.8405
19970TIP3   OH281324   5.793   4.227  17.118 -0.4962 -0.2289  0.4271
19970TIP3    H181325   5.698   4.214  17.108 -0.2994 -0.3686 -1.4075
19970TIP3    H281326   5.828   4.219  17.030  1.3008 -0.6300  1.1518
19971TIP3   OH281327   3.246   0.068  12.915 -0.0490 -0.2545 -0.2883
19971TIP3    H181328   3.322   0.110  12.957 -1.6076  0.2148  2.1288
19971TIP3    H281329   3.250  -0.023  12.944  0.0906 -0.4643 -0.9390
19972TIP3   OH281330   0.435   0.098   3.758 -0.0262 -0.0885  0.0115
19972TIP3    H181331   0.528   0.081   3.742  0.5065  2.5725  0.0596
19972TIP3    H281332   0.430   0.110   3.853 -0.0623  1.6133 -0.1894
19973TIP3   OH281333   5.067   6.028  15.777 -0.3867  0.3500 -0.0601
19973TIP3    H181334   5.011   6.053  15.703 -1.1074 -0.1176  0.3250
19973TIP3    H281335   5.036   6.081  15.850  0.5820  1.0952 -0.1832
19974TIP3   OH281336   1.086   2.765   4.274  0.1153 -0.0157 -0.2898
19974TIP3    H181337   1.125   2.689   4.318 -0.0094  0.1208  0.0599
19974TIP3    H281338   1.006   2.731   4.235 -0.9144  0.3455  1.4577
19975TIP3   OH281339   0.062   5.037  12.937  0.4473 -0.3123 -0.1044
19975TIP3    H181340   0.050   4.942  12.943 -2.8943  0.0995  0.7920
19975TIP3    H281341  -0.024   5.073  12.955  1.9602  2.9715  0.9850
19976TIP3   OH281342   0.127   0.878  13.996 -0.0532  0.0588 -0.8694
19976TIP3    H181343   0.071   0.925  14.058  0.5475 -0.4455  0.0780
19976TIP3    H281344   0.067   0.821  13.948 -0.1627 -1.7587  1.3399
19977TIP3   OH281345   0.378   2.618   4.556 -0.1917 -0.1592 -0.3203
19977TIP3    H181346   0.467   2.593   4.582 -0.2518  0.4865  0.5271
19977TIP3    H281347   0.387   2.707   4.522 -0.7236  0.4252  1.0318
19978TIP3   OH281348   0.816   5.412   3.731 -0.0352  0.1715 -0.2503
19978TIP3    H181349   0.788   5.453   3.649 -0.5569  3.6983  1.5808
19978TIP3    H281350   0.908   5.436   3.739 -0.1069  0.2343  0.4080
19979TIP3   OH281351   3.471   3.081  15.716 -0.5468  0.0957 -0.9003
19979TIP3    H181352   3.389   3.032  15.710 -0.7370  0.1383  1.0358
19979TIP3    H281353   3.476   3.107  15.808  0.9592  1.2738 -1.3090
19980TIP3   OH281354   5.929   3.257   2.099  0.1936 -0.8747 -0.5730
19980TIP3    H181355   5.986   3.261   2.022 -0.9097  0.3457 -1.3423
19980TIP3    H281356   5.857   3.199   2.072 -1.2668  1.1921 -1.2025
19981TIP3   OH281357   6.187   4.970  15.739  0.1660  0.0394 -0.3519
19981TIP3    H181358   6.168   5.050  15.690  1.0852  0.7321  0.3898
19981TIP3    H281359   6.243   4.918  15.681 -1.0793 -0.4310 -1.1463
19982TIP3   OH281360   0.156   3.190   1.111  0.4553 -0.2304 -0.7711
19982TIP3    H181361   0.202   3.139   1.044  1.2660  1.9937 -1.9562
19982TIP3    H281362   0.219   3.202   1.181  0.3100 -0.7250 -0.5540
19983LIG      O81363   1.555   5.118  16.758  0.5114 -0.1005 -0.1353
19983LIG     C181364   1.682   5.152  16.722 -0.6897  0.1359 -0.2089
19983LIG     C281365   1.771   5.073  16.815 -0.1754 -0.3862  0.1990
19983LIG     C381366   1.698   5.106  16.580  0.3165  0.2969 -0.4592
19983LIG     H181367   1.707   5.260  16.738 -0.9512 -0.1739  2.5073
19983LIG     H281368   1.877   5.097  16.797 -0.1223 -0.2836  0.6486
19983LIG     H381369   1.751   4.964  16.799  0.3990 -0.3766 -0.6138
19983LIG     H481370   1.751   5.094  16.922 -0.3762  1.6572 -0.2288
19983LIG     H581371   1.806   5.119  16.559  0.7670 -1.6877  0.5333
19983LIG     H681372   1.644   5.176  16.513 -0.1004  2.0325  1.6307
19983LIG     H781373   1.656   5.003  16.577  0.6396  0.1760 -1.0054
19983LIG     H881374   1.556   5.147  16.849  0.1637 -3.0706  0.8544
   6.78697   6.78697  17.23950
